Title t= 441.00000 step= 220500
44389
    1GLY      N    1   6.101   4.379   1.563
    1GLY    HT1    2   6.189   4.420   1.526
    1GLY    HT2    3   6.137   4.313   1.635
    1GLY    HT3    4   6.052   4.457   1.612
    1GLY     CA    5   6.036   4.320   1.445
    1GLY    HA1    6   6.114   4.255   1.407
    1GLY    HA2    7   6.010   4.394   1.371
    1GLY      C    8   5.926   4.228   1.489
    1GLY      O    9   5.953   4.122   1.549
    2PRO      N   10   5.797   4.257   1.475
    2PRO     CD   11   5.754   4.388   1.416
    2PRO    HD1   12   5.772   4.390   1.307
    2PRO    HD2   13   5.806   4.474   1.465
    2PRO     CA   14   5.675   4.190   1.529
    2PRO     HA   15   5.683   4.211   1.635
    2PRO     CB   16   5.561   4.255   1.460
    2PRO    HB1   17   5.474   4.254   1.530
    2PRO    HB2   18   5.543   4.203   1.364
    2PRO     CG   19   5.606   4.398   1.445
    2PRO    HG1   20   5.551   4.453   1.365
    2PRO    HG2   21   5.604   4.460   1.537
    2PRO      C   22   5.675   4.035   1.519
    2PRO      O   23   5.688   3.983   1.408
    3GLY      N   24   5.661   3.966   1.632
    3GLY     HN   25   5.696   4.008   1.715
    3GLY     CA   26   5.605   3.834   1.641
    3GLY    HA1   27   5.532   3.834   1.561
    3GLY    HA2   28   5.556   3.828   1.737
    3GLY      C   29   5.695   3.714   1.613
    3GLY      O   30   5.812   3.715   1.577
    4ASP      N   31   5.651   3.596   1.635
    4ASP     HN   32   5.554   3.584   1.656
    4ASP     CA   33   5.726   3.469   1.615
    4ASP     HA   34   5.818   3.484   1.671
    4ASP     CB   35   5.643   3.353   1.673
    4ASP    HB1   36   5.686   3.254   1.648
    4ASP    HB2   37   5.538   3.367   1.640
    4ASP     CG   38   5.636   3.359   1.826
    4ASP    OD1   39   5.714   3.431   1.891
    4ASP    OD2   40   5.566   3.280   1.893
    4ASP      C   41   5.765   3.430   1.468
    4ASP      O   42   5.695   3.473   1.375
    5PRO      N   43   5.877   3.358   1.447
    5PRO     CD   44   5.969   3.316   1.555
    5PRO    HD1   45   5.912   3.283   1.644
    5PRO    HD2   46   6.046   3.392   1.581
    5PRO     CA   47   5.920   3.304   1.325
    5PRO     HA   48   5.945   3.384   1.257
    5PRO     CB   49   6.049   3.222   1.358
    5PRO    HB1   50   6.124   3.304   1.354
    5PRO    HB2   51   6.069   3.138   1.288
    5PRO     CG   52   6.036   3.189   1.499
    5PRO    HG1   53   5.977   3.097   1.519
    5PRO    HG2   54   6.136   3.171   1.543
    5PRO      C   55   5.812   3.220   1.259
    5PRO      O   56   5.728   3.163   1.326
    6GLY      N   57   5.822   3.198   1.127
    6GLY     HN   58   5.901   3.227   1.073
    6GLY     CA   59   5.721   3.110   1.052
    6GLY    HA1   60   5.690   3.032   1.120
    6GLY    HA2   61   5.760   3.065   0.961
    6GLY      C   62   5.587   3.178   1.025
    6GLY      O   63   5.539   3.258   1.107
    7SER      N   64   5.526   3.128   0.917
    7SER     HN   65   5.574   3.058   0.864
    7SER     CA   66   5.392   3.180   0.882
    7SER     HA   67   5.401   3.288   0.884
    7SER     CB   68   5.341   3.126   0.752
    7SER    HB1   69   5.246   3.184   0.747
    7SER    HB2   70   5.318   3.017   0.755
    7SER     OG   71   5.433   3.152   0.644
    7SER    HG1   72   5.421   3.245   0.622
    7SER      C   73   5.292   3.138   0.997
    7SER      O   74   5.306   3.027   1.048
    8GLY      N   75   5.199   3.227   1.053
    8GLY     HN   76   5.180   3.312   1.005
    8GLY     CA   77   5.116   3.184   1.162
    8GLY    HA1   78   5.057   3.273   1.179
    8GLY    HA2   79   5.186   3.156   1.239
    8GLY      C   80   5.014   3.072   1.149
    8GLY      O   81   5.004   3.006   1.047
    9ASN      N   82   4.943   3.041   1.259
    9ASN     HN   83   4.956   3.087   1.347
    9ASN     CA   84   4.840   2.934   1.263
    9ASN     HA   85   4.839   2.875   1.172
    9ASN     CB   86   4.875   2.844   1.383
    9ASN    HB1   87   4.831   2.888   1.474
    9ASN    HB2   88   4.984   2.849   1.402
    9ASN     CG   89   4.811   2.707   1.366
    9ASN    OD1   90   4.729   2.677   1.278
    9ASN    ND2   91   4.853   2.615   1.460
    9ASN   HD21   92   4.834   2.519   1.441
    9ASN   HD22   93   4.918   2.635   1.533
    9ASN      C   94   4.701   2.995   1.274
    9ASN      O   95   4.679   3.069   1.373
   10PRO      N   96   4.612   2.978   1.171
   10PRO     CD   97   4.648   2.949   1.033
   10PRO    HD1   98   4.657   2.840   1.018
   10PRO    HD2   99   4.739   2.998   0.992
   10PRO     CA  100   4.486   3.050   1.180
   10PRO     HA  101   4.510   3.154   1.168
   10PRO     CB  102   4.416   3.001   1.055
   10PRO    HB1  103   4.329   3.069   1.042
   10PRO    HB2  104   4.376   2.900   1.078
   10PRO     CG  105   4.528   2.999   0.957
   10PRO    HG1  106   4.506   2.935   0.869
   10PRO    HG2  107   4.553   3.101   0.923
   10PRO      C  108   4.403   3.030   1.306
   10PRO      O  109   4.381   2.914   1.342
   11GLY      N  110   4.349   3.138   1.374
   11GLY     HN  111   4.352   3.232   1.341
   11GLY     CA  112   4.251   3.113   1.480
   11GLY    HA1  113   4.223   3.211   1.517
   11GLY    HA2  114   4.302   3.058   1.558
   11GLY      C  115   4.121   3.054   1.440
   11GLY      O  116   4.091   3.040   1.324
   12SER      N  117   4.037   3.018   1.538
   12SER     HN  118   4.061   3.033   1.634
   12SER     CA  119   3.898   2.971   1.512
   12SER     HA  120   3.860   2.992   1.413
   12SER     CB  121   3.887   2.818   1.545
   12SER    HB1  122   3.967   2.764   1.491
   12SER    HB2  123   3.797   2.766   1.504
   12SER     OG  124   3.899   2.784   1.681
   12SER    HG1  125   3.992   2.799   1.699
   12SER      C  126   3.806   3.041   1.600
   12SER      O  127   3.686   3.036   1.566
   13GLY      N  128   3.844   3.101   1.715
   13GLY     HN  129   3.942   3.097   1.737
   13GLY     CA  130   3.750   3.156   1.807
   13GLY    HA1  131   3.677   3.218   1.758
   13GLY    HA2  132   3.800   3.200   1.892
   13GLY      C  133   3.652   3.053   1.869
   13GLY      O  134   3.669   2.930   1.866
   14ASP      N  135   3.550   3.105   1.940
   14ASP     HN  136   3.553   3.203   1.960
   14ASP     CA  137   3.434   3.027   1.986
   14ASP     HA  138   3.466   2.929   2.016
   14ASP     CB  139   3.357   3.099   2.104
   14ASP    HB1  140   3.283   3.031   2.150
   14ASP    HB2  141   3.297   3.187   2.074
   14ASP     CG  142   3.463   3.132   2.210
   14ASP    OD1  143   3.474   3.249   2.265
   14ASP    OD2  144   3.539   3.038   2.244
   14ASP      C  145   3.339   3.009   1.869
   14ASP      O  146   3.336   3.097   1.779
   15PRO      N  147   3.259   2.896   1.864
   15PRO     CD  148   3.247   2.802   1.975
   15PRO    HD1  149   3.228   2.856   2.070
   15PRO    HD2  150   3.336   2.737   1.984
   15PRO     CA  151   3.201   2.840   1.744
   15PRO     HA  152   3.287   2.813   1.684
   15PRO     CB  153   3.131   2.712   1.792
   15PRO    HB1  154   3.201   2.626   1.786
   15PRO    HB2  155   3.039   2.680   1.739
   15PRO     CG  156   3.123   2.727   1.941
   15PRO    HG1  157   3.043   2.796   1.978
   15PRO    HG2  158   3.112   2.632   1.997
   15PRO      C  159   3.102   2.932   1.670
   15PRO    OT1  160   2.993   2.954   1.727
   15PRO    OT2  161   3.134   2.967   1.554
   16SOD    SOD  162   3.918   5.150   0.539
   17SOD    SOD  163   0.920   3.179   1.069
   18SOD    SOD  164   3.439   6.958   3.701
   19SOD    SOD  165   7.193   5.449   3.914
   20SOD    SOD  166   2.104   1.821   3.408
   21SOD    SOD  167   6.689   0.611   5.079
   22SOD    SOD  168   4.232   5.006   4.407
   23SOD    SOD  169   1.927   7.228   4.534
   24SOD    SOD  170   6.901   2.432   6.646
   25SOD    SOD  171   5.418   6.712   5.694
   26SOD    SOD  172   2.018   4.107   4.896
   27SOD    SOD  173   0.114   4.667   2.095
   28SOD    SOD  174   7.385   0.429   4.524
   29SOD    SOD  175   4.619   0.304   2.308
   30SOD    SOD  176   7.611   7.391   5.807
   31SOD    SOD  177   3.746   2.712   1.851
   32SOD    SOD  178   5.399   2.514   4.601
   33SOD    SOD  179   8.090   5.453   2.064
   34SOD    SOD  180   7.813   5.417   5.894
   35SOD    SOD  181   7.436   5.771   1.213
   36SOD    SOD  182   6.104   1.772   6.679
   37SOD    SOD  183   1.519   4.279   3.808
   38SOD    SOD  184   7.637   3.269   5.013
   39SOD    SOD  185   5.256   3.813   4.259
   40SOD    SOD  186   5.996   6.891   0.656
   41SOD    SOD  187   3.357   6.662   2.024
   42SOD    SOD  188   6.864   5.835   3.531
   43SOD    SOD  189   6.426   3.690   4.563
   44SOD    SOD  190   8.282   1.956   6.579
   45SOD    SOD  191   2.760   2.926   1.002
   46SOD    SOD  192   4.684   7.162   0.221
   47SOD    SOD  193   4.145   4.408   2.650
   48SOD    SOD  194   1.937   0.257   3.972
   49SOD    SOD  195   8.099   1.039   0.843
   50SOD    SOD  196   5.266   4.977   2.518
   51SOD    SOD  197   5.832   3.631   1.099
   52SOD    SOD  198   5.215   6.982   0.469
   53SOD    SOD  199   5.182   1.657   1.067
   54SOD    SOD  200   0.169   6.448   2.009
   55SOD    SOD  201   0.775   7.088   3.476
   56SOD    SOD  202   1.272   2.673   5.561
   57SOD    SOD  203   7.762   0.751   5.778
   58SOD    SOD  204   5.091   3.146   6.252
   59SOD    SOD  205   3.103   4.576   3.223
   60CLA    CLA  206   3.383   1.463   3.557
   61CLA    CLA  207   2.620   7.050   3.806
   62CLA    CLA  208   2.661   6.292   0.057
   63CLA    CLA  209   3.564   1.872   2.088
   64CLA    CLA  210   1.049   6.637   0.248
   65CLA    CLA  211   0.225   4.871   4.826
   66CLA    CLA  212   8.280   6.855   1.255
   67CLA    CLA  213   3.852   7.071   3.440
   68CLA    CLA  214   5.140   4.888   4.442
   69CLA    CLA  215   1.251   5.193   1.918
   70CLA    CLA  216   1.186   2.932   4.952
   71CLA    CLA  217   3.426   6.146   5.870
   72CLA    CLA  218   6.776   0.863   6.404
   73CLA    CLA  219   7.633   5.101   1.552
   74CLA    CLA  220   7.648   5.238   5.277
   75CLA    CLA  221   7.775   4.073   0.928
   76CLA    CLA  222   3.438   0.750   5.706
   77CLA    CLA  223   5.781   7.790   1.676
   78CLA    CLA  224   2.887   1.820   5.484
   79CLA    CLA  225   4.189   3.312   0.453
   80CLA    CLA  226   1.760   1.488   1.136
   81CLA    CLA  227   3.682   0.975   3.590
   82CLA    CLA  228   0.421   3.357   4.456
   83CLA    CLA  229   7.220   5.862   6.512
   84CLA    CLA  230   6.983   5.253   4.273
   85CLA    CLA  231   5.941   4.581   1.756
   86CLA    CLA  232   6.488   7.509   4.955
   87CLA    CLA  233   1.870   6.814   1.523
   88CLA    CLA  234   7.931   4.708   2.941
   89CLA    CLA  235   1.855   7.638   4.210
   90CLA    CLA  236   7.301   5.870   3.518
   91CLA    CLA  237   7.343   5.372   1.777
   92CLA    CLA  238   1.689   2.027   2.764
   93CLA    CLA  239   7.570   3.964   1.897
   94CLA    CLA  240   3.397   2.377   3.746
   95CLA    CLA  241   4.238   5.051   4.113
   96CLA    CLA  242   5.897   0.861   4.793
   97CLA    CLA  243   7.733   1.174   1.112
   98CLA    CLA  244   6.244   3.598   2.496
   99CLA    CLA  245   2.933   6.019   4.922
  100CLA    CLA  246   3.337   5.259   5.107
  101CLA    CLA  247   5.093   2.637   4.983
  102TIP3   OH2  248   1.628   3.762   4.594
  102TIP3    H1  249   1.539   3.796   4.582
  102TIP3    H2  250   1.625   3.673   4.557
  103TIP3   OH2  251   6.269   3.547   5.020
  103TIP3    H1  252   6.328   3.524   4.948
  103TIP3    H2  253   6.322   3.602   5.078
  104TIP3   OH2  254   7.629   0.578   6.247
  104TIP3    H1  255   7.537   0.604   6.255
  104TIP3    H2  256   7.672   0.620   6.322
  105TIP3   OH2  257   2.533   4.846   5.597
  105TIP3    H1  258   2.553   4.902   5.523
  105TIP3    H2  259   2.551   4.757   5.565
  106TIP3   OH2  260   5.066   3.687   1.377
  106TIP3    H1  261   5.047   3.594   1.383
  106TIP3    H2  262   5.063   3.706   1.284
  107TIP3   OH2  263   4.415   6.114   1.166
  107TIP3    H1  264   4.503   6.130   1.200
  107TIP3    H2  265   4.400   6.185   1.104
  108TIP3   OH2  266   0.389   2.755   5.684
  108TIP3    H1  267   0.427   2.734   5.769
  108TIP3    H2  268   0.464   2.770   5.627
  109TIP3   OH2  269   1.668   3.765   0.365
  109TIP3    H1  270   1.610   3.732   0.296
  109TIP3    H2  271   1.694   3.687   0.414
  110TIP3   OH2  272   2.384   0.769   3.505
  110TIP3    H1  273   2.416   0.681   3.487
  110TIP3    H2  274   2.290   0.764   3.489
  111TIP3   OH2  275   2.094   4.160   1.081
  111TIP3    H1  276   2.121   4.071   1.059
  111TIP3    H2  277   2.030   4.183   1.013
  112TIP3   OH2  278   6.083   0.580   2.774
  112TIP3    H1  279   6.136   0.504   2.750
  112TIP3    H2  280   6.024   0.547   2.842
  113TIP3   OH2  281   6.973   1.455   5.499
  113TIP3    H1  282   6.936   1.539   5.470
  113TIP3    H2  283   6.901   1.393   5.493
  114TIP3   OH2  284   6.956   3.840   5.399
  114TIP3    H1  285   6.901   3.762   5.396
  114TIP3    H2  286   6.894   3.913   5.389
  115TIP3   OH2  287   1.909   3.949   0.313
  115TIP3    H1  288   1.883   3.882   0.376
  115TIP3    H2  289   1.889   4.032   0.356
  116TIP3   OH2  290   7.246   3.825   5.307
  116TIP3    H1  291   7.172   3.866   5.351
  116TIP3    H2  292   7.300   3.898   5.276
  117TIP3   OH2  293   3.536   1.631   3.800
  117TIP3    H1  294   3.617   1.584   3.781
  117TIP3    H2  295   3.469   1.584   3.749
  118TIP3   OH2  296   5.478   0.750   3.719
  118TIP3    H1  297   5.394   0.704   3.720
  118TIP3    H2  298   5.512   0.742   3.808
  119TIP3   OH2  299   7.098   6.747   3.069
  119TIP3    H1  300   7.031   6.813   3.087
  119TIP3    H2  301   7.154   6.748   3.147
  120TIP3   OH2  302   4.465   4.135   1.539
  120TIP3    H1  303   4.453   4.133   1.445
  120TIP3    H2  304   4.416   4.060   1.572
  121TIP3   OH2  305   2.750   6.260   0.857
  121TIP3    H1  306   2.765   6.219   0.943
  121TIP3    H2  307   2.672   6.215   0.823
  122TIP3   OH2  308   8.150   5.872   0.538
  122TIP3    H1  309   8.168   5.780   0.556
  122TIP3    H2  310   8.236   5.909   0.516
  123TIP3   OH2  311   4.532   1.059   3.010
  123TIP3    H1  312   4.457   1.118   3.006
  123TIP3    H2  313   4.558   1.048   2.918
  124TIP3   OH2  314   1.692   5.041   0.358
  124TIP3    H1  315   1.753   5.029   0.286
  124TIP3    H2  316   1.606   5.037   0.318
  125TIP3   OH2  317   3.578   4.639   3.477
  125TIP3    H1  318   3.566   4.606   3.566
  125TIP3    H2  319   3.504   4.697   3.462
  126TIP3   OH2  320   2.702   2.854   0.118
  126TIP3    H1  321   2.795   2.863   0.094
  126TIP3    H2  322   2.669   2.786   0.060
  127TIP3   OH2  323   7.022   4.744   0.872
  127TIP3    H1  324   7.026   4.783   0.959
  127TIP3    H2  325   7.058   4.656   0.883
  128TIP3   OH2  326   1.485   6.626   3.264
  128TIP3    H1  327   1.552   6.648   3.329
  128TIP3    H2  328   1.485   6.701   3.205
  129TIP3   OH2  329   0.732   6.883   6.389
  129TIP3    H1  330   0.751   6.882   6.483
  129TIP3    H2  331   0.811   6.919   6.349
  130TIP3   OH2  332   1.040   1.919   0.267
  130TIP3    H1  333   1.026   1.966   0.184
  130TIP3    H2  334   1.047   1.988   0.333
  131TIP3   OH2  335   4.892   6.020   6.687
  131TIP3    H1  336   4.960   6.028   6.754
  131TIP3    H2  337   4.841   5.944   6.714
  132TIP3   OH2  338   7.070   2.282   5.567
  132TIP3    H1  339   7.155   2.289   5.522
  132TIP3    H2  340   7.069   2.354   5.629
  133TIP3   OH2  341   2.081   5.433   0.035
  133TIP3    H1  342   2.163   5.417  -0.012
  133TIP3    H2  343   2.080   5.368   0.105
  134TIP3   OH2  344   4.405   1.943   3.456
  134TIP3    H1  345   4.484   1.983   3.492
  134TIP3    H2  346   4.357   2.017   3.417
  135TIP3   OH2  347   2.659   6.822   0.199
  135TIP3    H1  348   2.694   6.891   0.255
  135TIP3    H2  349   2.666   6.742   0.251
  136TIP3   OH2  350   0.053   7.225   1.509
  136TIP3    H1  351  -0.001   7.278   1.450
  136TIP3    H2  352   0.061   7.278   1.588
  137TIP3   OH2  353   5.142   4.577   5.767
  137TIP3    H1  354   5.101   4.491   5.760
  137TIP3    H2  355   5.181   4.592   5.681
  138TIP3   OH2  356   8.077   7.671   5.550
  138TIP3    H1  357   8.154   7.653   5.603
  138TIP3    H2  358   8.070   7.595   5.492
  139TIP3   OH2  359   6.220   4.006   1.389
  139TIP3    H1  360   6.164   3.970   1.459
  139TIP3    H2  361   6.302   3.958   1.397
  140TIP3   OH2  362   6.952   4.745   1.717
  140TIP3    H1  363   7.035   4.785   1.742
  140TIP3    H2  364   6.967   4.715   1.627
  141TIP3   OH2  365   5.945   1.477   0.691
  141TIP3    H1  366   5.874   1.425   0.655
  141TIP3    H2  367   6.024   1.445   0.647
  142TIP3   OH2  368   1.794   3.135   1.793
  142TIP3    H1  369   1.779   3.198   1.863
  142TIP3    H2  370   1.797   3.050   1.837
  143TIP3   OH2  371   8.111   2.083   4.367
  143TIP3    H1  372   8.070   1.999   4.385
  143TIP3    H2  373   8.096   2.135   4.446
  144TIP3   OH2  374   2.184   0.324   4.545
  144TIP3    H1  375   2.122   0.290   4.610
  144TIP3    H2  376   2.230   0.394   4.591
  145TIP3   OH2  377   5.945   3.166   0.794
  145TIP3    H1  378   5.914   3.226   0.726
  145TIP3    H2  379   6.022   3.208   0.832
  146TIP3   OH2  380   4.967   5.504   3.942
  146TIP3    H1  381   4.999   5.560   3.871
  146TIP3    H2  382   4.978   5.415   3.909
  147TIP3   OH2  383   7.025   0.024   5.632
  147TIP3    H1  384   6.958   0.004   5.567
  147TIP3    H2  385   7.096   0.063   5.582
  148TIP3   OH2  386   8.250   2.738   3.123
  148TIP3    H1  387   8.260   2.788   3.042
  148TIP3    H2  388   8.329   2.684   3.128
  149TIP3   OH2  389   7.121   3.086   5.654
  149TIP3    H1  390   7.195   3.026   5.643
  149TIP3    H2  391   7.160   3.173   5.645
  150TIP3   OH2  392   1.665   1.770   3.576
  150TIP3    H1  393   1.626   1.727   3.500
  150TIP3    H2  394   1.635   1.717   3.650
  151TIP3   OH2  395   6.730   0.182   3.129
  151TIP3    H1  396   6.820   0.165   3.157
  151TIP3    H2  397   6.680   0.108   3.162
  152TIP3   OH2  398   5.372   1.996   4.946
  152TIP3    H1  399   5.456   2.024   4.982
  152TIP3    H2  400   5.311   2.002   5.019
  153TIP3   OH2  401   3.888   5.838   6.151
  153TIP3    H1  402   3.799   5.802   6.156
  153TIP3    H2  403   3.931   5.807   6.230
  154TIP3   OH2  404   4.256   5.477   5.219
  154TIP3    H1  405   4.266   5.382   5.216
  154TIP3    H2  406   4.181   5.495   5.162
  155TIP3   OH2  407   3.689   6.608   5.312
  155TIP3    H1  408   3.603   6.632   5.347
  155TIP3    H2  409   3.674   6.596   5.218
  156TIP3   OH2  410   5.033   2.522   0.179
  156TIP3    H1  411   4.944   2.502   0.152
  156TIP3    H2  412   5.067   2.440   0.214
  157TIP3   OH2  413   0.991   7.033   3.491
  157TIP3    H1  414   1.022   7.076   3.412
  157TIP3    H2  415   1.042   6.953   3.498
  158TIP3   OH2  416   6.927   3.981   5.888
  158TIP3    H1  417   6.993   4.043   5.857
  158TIP3    H2  418   6.919   3.917   5.818
  159TIP3   OH2  419   3.716   7.747   0.557
  159TIP3    H1  420   3.714   7.828   0.609
  159TIP3    H2  421   3.640   7.697   0.588
  160TIP3   OH2  422   2.942   6.581   0.822
  160TIP3    H1  423   2.952   6.524   0.746
  160TIP3    H2  424   2.877   6.646   0.797
  161TIP3   OH2  425   3.599   1.253   0.556
  161TIP3    H1  426   3.596   1.330   0.614
  161TIP3    H2  427   3.646   1.284   0.478
  162TIP3   OH2  428   2.377   1.683   0.084
  162TIP3    H1  429   2.419   1.656   0.165
  162TIP3    H2  430   2.448   1.689   0.020
  163TIP3   OH2  431   6.103   6.612   2.276
  163TIP3    H1  432   6.050   6.620   2.197
  163TIP3    H2  433   6.100   6.518   2.297
  164TIP3   OH2  434   7.995   5.740   4.952
  164TIP3    H1  435   8.057   5.801   4.991
  164TIP3    H2  436   7.961   5.690   5.026
  165TIP3   OH2  437   5.093   2.824   3.118
  165TIP3    H1  438   5.108   2.764   3.191
  165TIP3    H2  439   5.074   2.908   3.159
  166TIP3   OH2  440   7.138   6.439   3.918
  166TIP3    H1  441   7.070   6.429   3.984
  166TIP3    H2  442   7.108   6.512   3.863
  167TIP3   OH2  443   2.033   3.605   4.807
  167TIP3    H1  444   2.018   3.611   4.713
  167TIP3    H2  445   1.958   3.651   4.846
  168TIP3   OH2  446   0.784   2.534   2.071
  168TIP3    H1  447   0.699   2.491   2.063
  168TIP3    H2  448   0.763   2.627   2.074
  169TIP3   OH2  449   8.027   0.172   2.749
  169TIP3    H1  450   8.069   0.258   2.751
  169TIP3    H2  451   8.071   0.121   2.817
  170TIP3   OH2  452   4.242   2.047   2.123
  170TIP3    H1  453   4.168   2.106   2.134
  170TIP3    H2  454   4.276   2.034   2.211
  171TIP3   OH2  455   6.375   1.696   5.974
  171TIP3    H1  456   6.420   1.613   5.988
  171TIP3    H2  457   6.426   1.740   5.905
  172TIP3   OH2  458   5.429   4.364   3.213
  172TIP3    H1  459   5.388   4.281   3.191
  172TIP3    H2  460   5.368   4.431   3.181
  173TIP3   OH2  461   8.177   5.677   2.085
  173TIP3    H1  462   8.182   5.743   2.016
  173TIP3    H2  463   8.264   5.677   2.125
  174TIP3   OH2  464   1.694   2.066   6.540
  174TIP3    H1  465   1.703   2.144   6.485
  174TIP3    H2  466   1.714   2.097   6.629
  175TIP3   OH2  467   2.359   0.535   4.601
  175TIP3    H1  468   2.454   0.523   4.614
  175TIP3    H2  469   2.350   0.562   4.510
  176TIP3   OH2  470   0.309   1.639   1.383
  176TIP3    H1  471   0.244   1.571   1.399
  176TIP3    H2  472   0.285   1.709   1.444
  177TIP3   OH2  473   2.479   2.574   6.396
  177TIP3    H1  474   2.574   2.575   6.379
  177TIP3    H2  475   2.451   2.488   6.364
  178TIP3   OH2  476   5.912   3.435   4.662
  178TIP3    H1  477   5.970   3.470   4.730
  178TIP3    H2  478   5.833   3.408   4.709
  179TIP3   OH2  479   4.141   7.124   0.359
  179TIP3    H1  480   4.153   7.211   0.397
  179TIP3    H2  481   4.046   7.109   0.362
  180TIP3   OH2  482   5.324   1.930   0.324
  180TIP3    H1  483   5.349   1.940   0.416
  180TIP3    H2  484   5.344   2.015   0.284
  181TIP3   OH2  485   4.721   5.146   2.281
  181TIP3    H1  486   4.627   5.157   2.270
  181TIP3    H2  487   4.753   5.235   2.298
  182TIP3   OH2  488   5.050   1.844   1.166
  182TIP3    H1  489   4.992   1.786   1.215
  182TIP3    H2  490   5.088   1.901   1.233
  183TIP3   OH2  491   2.458   0.738   0.539
  183TIP3    H1  492   2.484   0.828   0.520
  183TIP3    H2  493   2.513   0.685   0.482
  184TIP3   OH2  494   0.440   5.185   2.526
  184TIP3    H1  495   0.432   5.148   2.438
  184TIP3    H2  496   0.531   5.215   2.531
  185TIP3   OH2  497   3.316   3.995   1.458
  185TIP3    H1  498   3.288   3.917   1.410
  185TIP3    H2  499   3.249   4.061   1.438
  186TIP3   OH2  500   2.968   7.343   2.506
  186TIP3    H1  501   3.024   7.266   2.514
  186TIP3    H2  502   2.899   7.316   2.445
  187TIP3   OH2  503   0.527   7.421   2.880
  187TIP3    H1  504   0.619   7.448   2.874
  187TIP3    H2  505   0.498   7.415   2.789
  188TIP3   OH2  506   4.027   4.966   3.047
  188TIP3    H1  507   4.036   4.964   3.142
  188TIP3    H2  508   3.951   4.909   3.029
  189TIP3   OH2  509   4.020   5.312   4.182
  189TIP3    H1  510   4.085   5.377   4.156
  189TIP3    H2  511   4.065   5.228   4.171
  190TIP3   OH2  512   4.180   2.222   0.113
  190TIP3    H1  513   4.184   2.182   0.026
  190TIP3    H2  514   4.185   2.316   0.096
  191TIP3   OH2  515   2.131   5.360   0.700
  191TIP3    H1  516   2.085   5.276   0.710
  191TIP3    H2  517   2.186   5.349   0.623
  192TIP3   OH2  518   3.314   2.065   1.420
  192TIP3    H1  519   3.297   2.031   1.332
  192TIP3    H2  520   3.247   2.130   1.434
  193TIP3   OH2  521   5.894   5.654   5.080
  193TIP3    H1  522   5.987   5.656   5.102
  193TIP3    H2  523   5.858   5.582   5.131
  194TIP3   OH2  524   7.286   3.707   2.867
  194TIP3    H1  525   7.265   3.632   2.812
  194TIP3    H2  526   7.234   3.693   2.947
  195TIP3   OH2  527   2.572   3.352   1.080
  195TIP3    H1  528   2.495   3.315   1.036
  195TIP3    H2  529   2.539   3.428   1.128
  196TIP3   OH2  530   5.517   7.332   1.362
  196TIP3    H1  531   5.566   7.413   1.372
  196TIP3    H2  532   5.441   7.342   1.419
  197TIP3   OH2  533   4.471   0.465   3.884
  197TIP3    H1  534   4.450   0.385   3.932
  197TIP3    H2  535   4.558   0.449   3.848
  198TIP3   OH2  536   6.719   0.266   3.823
  198TIP3    H1  537   6.640   0.241   3.775
  198TIP3    H2  538   6.697   0.253   3.915
  199TIP3   OH2  539   6.153   5.881   0.880
  199TIP3    H1  540   6.198   5.799   0.861
  199TIP3    H2  541   6.061   5.865   0.858
  200TIP3   OH2  542   5.904   3.788   1.888
  200TIP3    H1  543   5.811   3.810   1.893
  200TIP3    H2  544   5.908   3.695   1.912
  201TIP3   OH2  545   1.794   1.468   6.177
  201TIP3    H1  546   1.703   1.463   6.147
  201TIP3    H2  547   1.795   1.542   6.237
  202TIP3   OH2  548   1.309   6.349   0.358
  202TIP3    H1  549   1.346   6.336   0.271
  202TIP3    H2  550   1.328   6.267   0.404
  203TIP3   OH2  551   6.309   6.341   3.126
  203TIP3    H1  552   6.387   6.286   3.120
  203TIP3    H2  553   6.339   6.423   3.164
  204TIP3   OH2  554   1.700   5.988   6.749
  204TIP3    H1  555   1.726   6.018   6.662
  204TIP3    H2  556   1.648   6.061   6.784
  205TIP3   OH2  557   2.592   5.652   6.044
  205TIP3    H1  558   2.684   5.630   6.036
  205TIP3    H2  559   2.583   5.688   6.132
  206TIP3   OH2  560   8.136   6.342   5.439
  206TIP3    H1  561   8.146   6.362   5.347
  206TIP3    H2  562   8.199   6.398   5.484
  207TIP3   OH2  563   4.818   2.352   4.999
  207TIP3    H1  564   4.763   2.345   4.921
  207TIP3    H2  565   4.814   2.266   5.040
  208TIP3   OH2  566   0.918   7.171   0.832
  208TIP3    H1  567   0.825   7.163   0.856
  208TIP3    H2  568   0.937   7.265   0.842
  209TIP3   OH2  569   2.173   6.791   4.644
  209TIP3    H1  570   2.252   6.739   4.659
  209TIP3    H2  571   2.145   6.816   4.732
  210TIP3   OH2  572   0.532   6.964   2.238
  210TIP3    H1  573   0.475   6.899   2.196
  210TIP3    H2  574   0.532   7.038   2.177
  211TIP3   OH2  575   3.975   4.496   1.761
  211TIP3    H1  576   3.911   4.561   1.791
  211TIP3    H2  577   4.001   4.449   1.840
  212TIP3   OH2  578   6.085   6.517   4.697
  212TIP3    H1  579   5.993   6.517   4.722
  212TIP3    H2  580   6.094   6.589   4.635
  213TIP3   OH2  581   1.206   3.983   5.810
  213TIP3    H1  582   1.149   3.984   5.887
  213TIP3    H2  583   1.200   3.893   5.778
  214TIP3   OH2  584   5.261   6.640   0.282
  214TIP3    H1  585   5.166   6.637   0.268
  214TIP3    H2  586   5.299   6.630   0.195
  215TIP3   OH2  587   0.730   2.511   2.471
  215TIP3    H1  588   0.738   2.485   2.563
  215TIP3    H2  589   0.670   2.586   2.472
  216TIP3   OH2  590   6.682   2.244   5.080
  216TIP3    H1  591   6.606   2.184   5.080
  216TIP3    H2  592   6.643   2.331   5.087
  217TIP3   OH2  593   2.003   5.926   1.353
  217TIP3    H1  594   1.949   5.876   1.293
  217TIP3    H2  595   2.055   5.861   1.400
  218TIP3   OH2  596   6.712   3.452   2.249
  218TIP3    H1  597   6.729   3.516   2.319
  218TIP3    H2  598   6.650   3.390   2.288
  219TIP3   OH2  599   5.714   5.404   1.383
  219TIP3    H1  600   5.755   5.417   1.297
  219TIP3    H2  601   5.646   5.470   1.387
  220TIP3   OH2  602   6.090   1.864   5.577
  220TIP3    H1  603   6.184   1.858   5.561
  220TIP3    H2  604   6.072   1.798   5.644
  221TIP3   OH2  605   3.420   3.811   2.301
  221TIP3    H1  606   3.408   3.736   2.360
  221TIP3    H2  607   3.500   3.792   2.253
  222TIP3   OH2  608   3.117   2.484   0.225
  222TIP3    H1  609   3.180   2.530   0.169
  222TIP3    H2  610   3.033   2.527   0.207
  223TIP3   OH2  611   5.227   4.423   0.442
  223TIP3    H1  612   5.221   4.455   0.533
  223TIP3    H2  613   5.198   4.332   0.448
  224TIP3   OH2  614   3.851   5.165   1.635
  224TIP3    H1  615   3.837   5.227   1.563
  224TIP3    H2  616   3.774   5.175   1.690
  225TIP3   OH2  617   3.084   6.406   6.359
  225TIP3    H1  618   3.141   6.440   6.291
  225TIP3    H2  619   3.007   6.372   6.312
  226TIP3   OH2  620   1.728   7.781   6.507
  226TIP3    H1  621   1.689   7.729   6.576
  226TIP3    H2  622   1.703   7.736   6.426
  227TIP3   OH2  623   1.168   0.866   2.995
  227TIP3    H1  624   1.124   0.787   2.964
  227TIP3    H2  625   1.143   0.934   2.932
  228TIP3   OH2  626   0.294   6.389   0.712
  228TIP3    H1  627   0.201   6.395   0.692
  228TIP3    H2  628   0.298   6.333   0.790
  229TIP3   OH2  629   1.953   0.870   1.710
  229TIP3    H1  630   1.983   0.925   1.638
  229TIP3    H2  631   1.917   0.932   1.774
  230TIP3   OH2  632   8.273   4.640   1.715
  230TIP3    H1  633   8.200   4.612   1.660
  230TIP3    H2  634   8.290   4.730   1.690
  231TIP3   OH2  635   3.266   5.702   3.646
  231TIP3    H1  636   3.360   5.690   3.657
  231TIP3    H2  637   3.226   5.642   3.709
  232TIP3   OH2  638   5.971   1.623   4.496
  232TIP3    H1  639   5.954   1.537   4.458
  232TIP3    H2  640   5.931   1.685   4.435
  233TIP3   OH2  641   0.963   5.746   1.507
  233TIP3    H1  642   0.962   5.815   1.574
  233TIP3    H2  643   0.985   5.667   1.555
  234TIP3   OH2  644   2.312   6.534   6.007
  234TIP3    H1  645   2.284   6.620   5.974
  234TIP3    H2  646   2.407   6.539   6.011
  235TIP3   OH2  647   2.128   4.667   5.036
  235TIP3    H1  648   2.147   4.590   4.984
  235TIP3    H2  649   2.104   4.734   4.972
  236TIP3   OH2  650   0.088   2.047   2.527
  236TIP3    H1  651   0.067   2.019   2.438
  236TIP3    H2  652   0.087   2.143   2.523
  237TIP3   OH2  653   2.625   5.761   3.246
  237TIP3    H1  654   2.617   5.782   3.153
  237TIP3    H2  655   2.717   5.736   3.258
  238TIP3   OH2  656   0.241   6.003   5.086
  238TIP3    H1  657   0.200   5.917   5.072
  238TIP3    H2  658   0.271   6.029   4.999
  239TIP3   OH2  659   1.673   4.569   1.805
  239TIP3    H1  660   1.624   4.487   1.810
  239TIP3    H2  661   1.666   4.596   1.713
  240TIP3   OH2  662   3.975   5.810   6.773
  240TIP3    H1  663   4.053   5.860   6.750
  240TIP3    H2  664   3.907   5.876   6.784
  241TIP3   OH2  665   5.229   6.569   6.149
  241TIP3    H1  666   5.155   6.623   6.176
  241TIP3    H2  667   5.189   6.491   6.110
  242TIP3   OH2  668   3.642   6.674   4.111
  242TIP3    H1  669   3.689   6.607   4.160
  242TIP3    H2  670   3.577   6.626   4.060
  243TIP3   OH2  671   1.149   1.869   4.429
  243TIP3    H1  672   1.128   1.815   4.506
  243TIP3    H2  673   1.065   1.896   4.394
  244TIP3   OH2  674   1.043   1.293   5.971
  244TIP3    H1  675   1.112   1.237   6.006
  244TIP3    H2  676   1.063   1.300   5.878
  245TIP3   OH2  677   6.553   3.249   0.487
  245TIP3    H1  678   6.573   3.159   0.510
  245TIP3    H2  679   6.638   3.293   0.489
  246TIP3   OH2  680   7.704   6.868   0.615
  246TIP3    H1  681   7.671   6.958   0.620
  246TIP3    H2  682   7.662   6.830   0.538
  247TIP3   OH2  683   5.344   0.384   4.433
  247TIP3    H1  684   5.333   0.477   4.412
  247TIP3    H2  685   5.357   0.342   4.348
  248TIP3   OH2  686   3.386   2.826   6.358
  248TIP3    H1  687   3.399   2.881   6.435
  248TIP3    H2  688   3.293   2.805   6.358
  249TIP3   OH2  689   4.009   2.271   3.363
  249TIP3    H1  690   3.928   2.319   3.351
  249TIP3    H2  691   4.063   2.326   3.419
  250TIP3   OH2  692   7.072   0.072   6.078
  250TIP3    H1  693   7.119  -0.011   6.072
  250TIP3    H2  694   7.054   0.082   6.172
  251TIP3   OH2  695   5.726   5.473   5.213
  251TIP3    H1  696   5.675   5.405   5.169
  251TIP3    H2  697   5.679   5.489   5.295
  252TIP3   OH2  698   2.118   0.736   1.113
  252TIP3    H1  699   2.029   0.738   1.079
  252TIP3    H2  700   2.151   0.649   1.088
  253TIP3   OH2  701   6.156   7.201   4.653
  253TIP3    H1  702   6.117   7.267   4.711
  253TIP3    H2  703   6.235   7.242   4.619
  254TIP3   OH2  704   4.509   4.415   3.710
  254TIP3    H1  705   4.419   4.423   3.677
  254TIP3    H2  706   4.528   4.501   3.748
  255TIP3   OH2  707   7.771   0.759   3.861
  255TIP3    H1  708   7.771   0.801   3.775
  255TIP3    H2  709   7.857   0.780   3.898
  256TIP3   OH2  710   2.347   0.548   1.035
  256TIP3    H1  711   2.403   0.626   1.028
  256TIP3    H2  712   2.309   0.539   0.948
  257TIP3   OH2  713   2.750   2.706   5.106
  257TIP3    H1  714   2.832   2.745   5.075
  257TIP3    H2  715   2.711   2.774   5.162
  258TIP3   OH2  716   3.914   5.201   2.185
  258TIP3    H1  717   3.934   5.289   2.153
  258TIP3    H2  718   3.982   5.145   2.148
  259TIP3   OH2  719   5.067   3.274   2.327
  259TIP3    H1  720   4.998   3.284   2.261
  259TIP3    H2  721   5.090   3.363   2.352
  260TIP3   OH2  722   2.198   1.350   3.416
  260TIP3    H1  723   2.193   1.262   3.378
  260TIP3    H2  724   2.138   1.403   3.363
  261TIP3   OH2  725   4.151   2.116   3.819
  261TIP3    H1  726   4.218   2.052   3.844
  261TIP3    H2  727   4.201   2.189   3.782
  262TIP3   OH2  728   4.708   6.566   4.244
  262TIP3    H1  729   4.723   6.568   4.339
  262TIP3    H2  730   4.679   6.655   4.223
  263TIP3   OH2  731   8.224   3.113   4.743
  263TIP3    H1  732   8.206   3.203   4.716
  263TIP3    H2  733   8.316   3.099   4.720
  264TIP3   OH2  734   7.847   0.363   1.718
  264TIP3    H1  735   7.871   0.271   1.730
  264TIP3    H2  736   7.812   0.390   1.802
  265TIP3   OH2  737   2.795   5.863   5.757
  265TIP3    H1  738   2.852   5.890   5.828
  265TIP3    H2  739   2.780   5.770   5.772
  266TIP3   OH2  740   6.563   1.023   6.587
  266TIP3    H1  741   6.525   0.998   6.503
  266TIP3    H2  742   6.651   0.985   6.586
  267TIP3   OH2  743   6.419   1.395   4.218
  267TIP3    H1  744   6.441   1.303   4.207
  267TIP3    H2  745   6.481   1.427   4.284
  268TIP3   OH2  746   0.068   1.633   4.036
  268TIP3    H1  747   0.005   1.652   3.967
  268TIP3    H2  748   0.100   1.719   4.064
  269TIP3   OH2  749   2.382   4.738   0.384
  269TIP3    H1  750   2.402   4.686   0.306
  269TIP3    H2  751   2.422   4.689   0.456
  270TIP3   OH2  752   1.313   7.173   4.190
  270TIP3    H1  753   1.358   7.258   4.186
  270TIP3    H2  754   1.334   7.139   4.277
  271TIP3   OH2  755   2.941   3.829   3.668
  271TIP3    H1  756   2.918   3.833   3.575
  271TIP3    H2  757   3.006   3.759   3.674
  272TIP3   OH2  758   4.242   6.706   5.983
  272TIP3    H1  759   4.204   6.652   6.053
  272TIP3    H2  760   4.223   6.658   5.903
  273TIP3   OH2  761   8.059   0.671   2.289
  273TIP3    H1  762   8.058   0.754   2.242
  273TIP3    H2  763   8.047   0.605   2.220
  274TIP3   OH2  764   6.292   2.660   0.406
  274TIP3    H1  765   6.230   2.636   0.475
  274TIP3    H2  766   6.238   2.665   0.327
  275TIP3   OH2  767   0.524   2.437   6.705
  275TIP3    H1  768   0.477   2.492   6.768
  275TIP3    H2  769   0.513   2.348   6.739
  276TIP3   OH2  770   1.468   6.317   2.132
  276TIP3    H1  771   1.471   6.361   2.217
  276TIP3    H2  772   1.463   6.224   2.154
  277TIP3   OH2  773   7.425   7.244   4.584
  277TIP3    H1  774   7.456   7.162   4.544
  277TIP3    H2  775   7.354   7.273   4.527
  278TIP3   OH2  776   7.042   6.533   0.951
  278TIP3    H1  777   7.040   6.451   1.000
  278TIP3    H2  778   7.092   6.512   0.872
  279TIP3   OH2  779   7.767   2.212   0.186
  279TIP3    H1  780   7.756   2.296   0.141
  279TIP3    H2  781   7.764   2.146   0.117
  280TIP3   OH2  782   3.114   1.974   6.661
  280TIP3    H1  783   3.159   1.920   6.727
  280TIP3    H2  784   3.075   1.910   6.601
  281TIP3   OH2  785   2.556   4.877   6.086
  281TIP3    H1  786   2.651   4.893   6.085
  281TIP3    H2  787   2.523   4.927   6.011
  282TIP3   OH2  788   7.409   6.690   5.716
  282TIP3    H1  789   7.489   6.668   5.762
  282TIP3    H2  790   7.339   6.662   5.775
  283TIP3   OH2  791   5.478   4.240   3.753
  283TIP3    H1  792   5.559   4.287   3.737
  283TIP3    H2  793   5.429   4.247   3.671
  284TIP3   OH2  794   0.311   3.471   3.996
  284TIP3    H1  795   0.373   3.544   3.985
  284TIP3    H2  796   0.276   3.457   3.908
  285TIP3   OH2  797   0.660   7.510   3.778
  285TIP3    H1  798   0.593   7.443   3.792
  285TIP3    H2  799   0.690   7.532   3.865
  286TIP3   OH2  800   2.652   5.015   3.036
  286TIP3    H1  801   2.713   4.943   3.027
  286TIP3    H2  802   2.578   4.979   3.085
  287TIP3   OH2  803   6.008   7.155   5.126
  287TIP3    H1  804   6.089   7.197   5.098
  287TIP3    H2  805   5.943   7.182   5.061
  288TIP3   OH2  806   8.205   7.185   6.603
  288TIP3    H1  807   8.137   7.168   6.668
  288TIP3    H2  808   8.179   7.134   6.526
  289TIP3   OH2  809   1.302   1.746   2.626
  289TIP3    H1  810   1.285   1.675   2.688
  289TIP3    H2  811   1.219   1.760   2.581
  290TIP3   OH2  812   0.775   3.884   2.831
  290TIP3    H1  813   0.739   3.941   2.763
  290TIP3    H2  814   0.706   3.880   2.897
  291TIP3   OH2  815   2.567   5.322   0.985
  291TIP3    H1  816   2.610   5.405   0.967
  291TIP3    H2  817   2.624   5.256   0.946
  292TIP3   OH2  818   1.159   7.569   5.154
  292TIP3    H1  819   1.239   7.530   5.118
  292TIP3    H2  820   1.088   7.514   5.121
  293TIP3   OH2  821   5.586   2.004   6.768
  293TIP3    H1  822   5.599   2.034   6.678
  293TIP3    H2  823   5.634   2.068   6.821
  294TIP3   OH2  824   0.827   0.584   4.195
  294TIP3    H1  825   0.916   0.553   4.181
  294TIP3    H2  826   0.837   0.666   4.244
  295TIP3   OH2  827   3.301   6.257   3.888
  295TIP3    H1  828   3.337   6.171   3.867
  295TIP3    H2  829   3.249   6.243   3.967
  296TIP3   OH2  830   6.296   3.911   3.502
  296TIP3    H1  831   6.307   3.818   3.522
  296TIP3    H2  832   6.368   3.931   3.443
  297TIP3   OH2  833   5.900   6.758   4.299
  297TIP3    H1  834   5.960   6.684   4.296
  297TIP3    H2  835   5.829   6.729   4.356
  298TIP3   OH2  836   3.618   4.292   4.140
  298TIP3    H1  837   3.673   4.245   4.077
  298TIP3    H2  838   3.529   4.264   4.119
  299TIP3   OH2  839   1.681   3.348   4.058
  299TIP3    H1  840   1.618   3.350   4.130
  299TIP3    H2  841   1.742   3.420   4.076
  300TIP3   OH2  842   6.472   1.800   1.530
  300TIP3    H1  843   6.380   1.816   1.553
  300TIP3    H2  844   6.470   1.779   1.437
  301TIP3   OH2  845   1.382   1.848   3.417
  301TIP3    H1  846   1.412   1.926   3.464
  301TIP3    H2  847   1.320   1.881   3.353
  302TIP3   OH2  848   7.332   3.892   2.087
  302TIP3    H1  849   7.334   3.796   2.093
  302TIP3    H2  850   7.403   3.914   2.027
  303TIP3   OH2  851   6.822   2.776   1.470
  303TIP3    H1  852   6.737   2.819   1.480
  303TIP3    H2  853   6.881   2.845   1.439
  304TIP3   OH2  854   5.762   6.606   0.079
  304TIP3    H1  855   5.733   6.524   0.038
  304TIP3    H2  856   5.792   6.580   0.166
  305TIP3   OH2  857   6.318   6.079   5.378
  305TIP3    H1  858   6.331   6.166   5.414
  305TIP3    H2  859   6.350   6.086   5.287
  306TIP3   OH2  860   2.932   0.969   1.043
  306TIP3    H1  861   2.994   0.939   1.110
  306TIP3    H2  862   2.948   1.063   1.036
  307TIP3   OH2  863   4.014   2.124   4.851
  307TIP3    H1  864   3.945   2.174   4.894
  307TIP3    H2  865   3.967   2.065   4.792
  308TIP3   OH2  866   4.509   7.543   3.440
  308TIP3    H1  867   4.462   7.459   3.439
  308TIP3    H2  868   4.465   7.595   3.373
  309TIP3   OH2  869   7.671   1.598   3.544
  309TIP3    H1  870   7.744   1.539   3.563
  309TIP3    H2  871   7.593   1.543   3.548
  310TIP3   OH2  872   7.728   6.761   5.356
  310TIP3    H1  873   7.732   6.679   5.406
  310TIP3    H2  874   7.753   6.735   5.267
  311TIP3   OH2  875   6.460   6.828   0.857
  311TIP3    H1  876   6.535   6.848   0.800
  311TIP3    H2  877   6.499   6.786   0.934
  312TIP3   OH2  878   3.384   0.313   2.681
  312TIP3    H1  879   3.310   0.264   2.644
  312TIP3    H2  880   3.459   0.287   2.626
  313TIP3   OH2  881   0.400   6.369   3.336
  313TIP3    H1  882   0.350   6.315   3.275
  313TIP3    H2  883   0.406   6.317   3.415
  314TIP3   OH2  884   2.263   7.236   3.818
  314TIP3    H1  885   2.197   7.257   3.885
  314TIP3    H2  886   2.340   7.210   3.868
  315TIP3   OH2  887   3.249   3.599   4.800
  315TIP3    H1  888   3.162   3.625   4.832
  315TIP3    H2  889   3.308   3.625   4.871
  316TIP3   OH2  890   2.584   0.812   5.242
  316TIP3    H1  891   2.677   0.833   5.235
  316TIP3    H2  892   2.581   0.716   5.248
  317TIP3   OH2  893   3.089   6.046   5.193
  317TIP3    H1  894   3.161   5.983   5.184
  317TIP3    H2  895   3.029   6.024   5.122
  318TIP3   OH2  896   7.698   5.082   6.676
  318TIP3    H1  897   7.610   5.047   6.664
  318TIP3    H2  898   7.725   5.050   6.762
  319TIP3   OH2  899   1.146   1.143   2.314
  319TIP3    H1  900   1.142   1.064   2.260
  319TIP3    H2  901   1.174   1.212   2.254
  320TIP3   OH2  902   8.159   0.482   2.757
  320TIP3    H1  903   8.179   0.542   2.685
  320TIP3    H2  904   8.101   0.532   2.815
  321TIP3   OH2  905   6.949   5.941   0.659
  321TIP3    H1  906   7.038   5.927   0.625
  321TIP3    H2  907   6.901   5.978   0.584
  322TIP3   OH2  908   2.565   2.007   4.854
  322TIP3    H1  909   2.585   1.994   4.762
  322TIP3    H2  910   2.480   1.964   4.867
  323TIP3   OH2  911   0.409   6.559   3.959
  323TIP3    H1  912   0.352   6.630   3.989
  323TIP3    H2  913   0.378   6.482   4.005
  324TIP3   OH2  914   4.708   2.334   5.738
  324TIP3    H1  915   4.718   2.291   5.653
  324TIP3    H2  916   4.776   2.400   5.739
  325TIP3   OH2  917   5.034   6.211   1.368
  325TIP3    H1  918   4.993   6.252   1.444
  325TIP3    H2  919   5.000   6.121   1.369
  326TIP3   OH2  920   7.969   2.905   3.351
  326TIP3    H1  921   7.906   2.833   3.341
  326TIP3    H2  922   7.989   2.907   3.444
  327TIP3   OH2  923   6.374   2.757   3.783
  327TIP3    H1  924   6.309   2.807   3.734
  327TIP3    H2  925   6.323   2.705   3.845
  328TIP3   OH2  926   1.314   6.945   3.987
  328TIP3    H1  927   1.290   6.985   4.071
  328TIP3    H2  928   1.288   6.854   3.995
  329TIP3   OH2  929   2.531   3.539   2.625
  329TIP3    H1  930   2.483   3.620   2.641
  329TIP3    H2  931   2.599   3.538   2.692
  330TIP3   OH2  932   1.648   1.839   4.686
  330TIP3    H1  933   1.723   1.810   4.738
  330TIP3    H2  934   1.687   1.877   4.607
  331TIP3   OH2  935   4.232   2.248   1.677
  331TIP3    H1  936   4.225   2.316   1.744
  331TIP3    H2  937   4.326   2.244   1.657
  332TIP3   OH2  938   2.711   4.831   0.238
  332TIP3    H1  939   2.778   4.891   0.270
  332TIP3    H2  940   2.760   4.765   0.189
  333TIP3   OH2  941   4.764   5.886   1.188
  333TIP3    H1  942   4.780   5.890   1.094
  333TIP3    H2  943   4.762   5.792   1.208
  334TIP3   OH2  944   3.158   2.144   3.908
  334TIP3    H1  945   3.185   2.187   3.827
  334TIP3    H2  946   3.234   2.093   3.935
  335TIP3   OH2  947   6.857   6.459   5.594
  335TIP3    H1  948   6.806   6.489   5.669
  335TIP3    H2  949   6.833   6.367   5.584
  336TIP3   OH2  950   5.842   7.377   3.138
  336TIP3    H1  951   5.768   7.433   3.113
  336TIP3    H2  952   5.863   7.329   3.058
  337TIP3   OH2  953   0.832   5.525   2.693
  337TIP3    H1  954   0.790   5.597   2.645
  337TIP3    H2  955   0.921   5.556   2.708
  338TIP3   OH2  956   6.449   1.099   3.328
  338TIP3    H1  957   6.443   1.052   3.411
  338TIP3    H2  958   6.485   1.185   3.352
  339TIP3   OH2  959   6.482   5.193   2.214
  339TIP3    H1  960   6.516   5.215   2.301
  339TIP3    H2  961   6.546   5.229   2.153
  340TIP3   OH2  962   3.283   2.477   6.606
  340TIP3    H1  963   3.243   2.552   6.651
  340TIP3    H2  964   3.359   2.514   6.562
  341TIP3   OH2  965   1.014   4.434   2.359
  341TIP3    H1  966   0.970   4.382   2.426
  341TIP3    H2  967   0.969   4.519   2.363
  342TIP3   OH2  968   1.827   0.060   3.938
  342TIP3    H1  969   1.780  -0.010   3.984
  342TIP3    H2  970   1.759   0.107   3.889
  343TIP3   OH2  971   3.408   2.205   3.381
  343TIP3    H1  972   3.502   2.215   3.366
  343TIP3    H2  973   3.374   2.295   3.379
  344TIP3   OH2  974   5.823   3.117   6.450
  344TIP3    H1  975   5.728   3.115   6.463
  344TIP3    H2  976   5.859   3.095   6.535
  345TIP3   OH2  977   5.792   4.707   4.325
  345TIP3    H1  978   5.813   4.697   4.418
  345TIP3    H2  979   5.878   4.710   4.282
  346TIP3   OH2  980   3.512   7.739   5.275
  346TIP3    H1  981   3.431   7.733   5.225
  346TIP3    H2  982   3.515   7.659   5.327
  347TIP3   OH2  983   4.548   2.104   5.062
  347TIP3    H1  984   4.640   2.085   5.078
  347TIP3    H2  985   4.515   2.028   5.014
  348TIP3   OH2  986   7.850   0.946   1.556
  348TIP3    H1  987   7.934   0.960   1.599
  348TIP3    H2  988   7.826   0.856   1.579
  349TIP3   OH2  989   0.112   6.854   2.772
  349TIP3    H1  990   0.042   6.795   2.745
  349TIP3    H2  991   0.185   6.797   2.794
  350TIP3   OH2  992   0.403   6.404   1.602
  350TIP3    H1  993   0.402   6.499   1.596
  350TIP3    H2  994   0.451   6.375   1.525
  351TIP3   OH2  995   4.271   3.559   6.499
  351TIP3    H1  996   4.236   3.503   6.568
  351TIP3    H2  997   4.313   3.498   6.438
  352TIP3   OH2  998   4.962   4.790   6.182
  352TIP3    H1  999   4.999   4.711   6.142
  352TIP3    H2 1000   4.870   4.768   6.198
  353TIP3   OH2 1001   6.499   4.558   0.057
  353TIP3    H1 1002   6.460   4.554   0.145
  353TIP3    H2 1003   6.510   4.467   0.032
  354TIP3   OH2 1004   1.028   7.609   1.653
  354TIP3    H1 1005   1.011   7.661   1.575
  354TIP3    H2 1006   0.993   7.661   1.725
  355TIP3   OH2 1007   4.880   6.010   6.413
  355TIP3    H1 1008   4.788   5.995   6.433
  355TIP3    H2 1009   4.925   5.999   6.497
  356TIP3   OH2 1010   6.364   3.201   2.567
  356TIP3    H1 1011   6.346   3.110   2.543
  356TIP3    H2 1012   6.280   3.246   2.557
  357TIP3   OH2 1013   3.303   2.497   5.521
  357TIP3    H1 1014   3.209   2.479   5.519
  357TIP3    H2 1015   3.315   2.566   5.455
  358TIP3   OH2 1016   6.860   2.875   6.479
  358TIP3    H1 1017   6.769   2.875   6.447
  358TIP3    H2 1018   6.852   2.877   6.574
  359TIP3   OH2 1019   4.394   2.103   5.786
  359TIP3    H1 1020   4.381   2.072   5.876
  359TIP3    H2 1021   4.373   2.027   5.732
  360TIP3   OH2 1022   4.310   6.354   4.179
  360TIP3    H1 1023   4.283   6.388   4.264
  360TIP3    H2 1024   4.229   6.325   4.137
  361TIP3   OH2 1025   1.754   6.297   2.023
  361TIP3    H1 1026   1.846   6.308   2.048
  361TIP3    H2 1027   1.706   6.344   2.091
  362TIP3   OH2 1028   1.140   0.901   2.196
  362TIP3    H1 1029   1.064   0.847   2.172
  362TIP3    H2 1030   1.211   0.838   2.205
  363TIP3   OH2 1031   7.890   2.307   1.509
  363TIP3    H1 1032   7.914   2.278   1.420
  363TIP3    H2 1033   7.815   2.366   1.495
  364TIP3   OH2 1034   7.216   6.388   2.787
  364TIP3    H1 1035   7.238   6.465   2.839
  364TIP3    H2 1036   7.247   6.314   2.840
  365TIP3   OH2 1037   3.204   0.527   4.352
  365TIP3    H1 1038   3.217   0.620   4.370
  365TIP3    H2 1039   3.110   0.513   4.362
  366TIP3   OH2 1040   2.956   5.337   1.775
  366TIP3    H1 1041   2.985   5.325   1.685
  366TIP3    H2 1042   2.864   5.311   1.774
  367TIP3   OH2 1043   2.737   0.215   2.228
  367TIP3    H1 1044   2.645   0.194   2.212
  367TIP3    H2 1045   2.753   0.296   2.179
  368TIP3   OH2 1046   4.730   1.256   4.001
  368TIP3    H1 1047   4.715   1.178   4.055
  368TIP3    H2 1048   4.674   1.243   3.924
  369TIP3   OH2 1049   6.334   4.218   4.249
  369TIP3    H1 1050   6.298   4.139   4.210
  369TIP3    H2 1051   6.279   4.289   4.216
  370TIP3   OH2 1052   7.549   5.907   2.819
  370TIP3    H1 1053   7.622   5.857   2.782
  370TIP3    H2 1054   7.503   5.845   2.875
  371TIP3   OH2 1055   2.177   3.788   0.115
  371TIP3    H1 1056   2.116   3.722   0.146
  371TIP3    H2 1057   2.179   3.776   0.020
  372TIP3   OH2 1058   2.331   1.438   3.879
  372TIP3    H1 1059   2.332   1.361   3.935
  372TIP3    H2 1060   2.270   1.417   3.809
  373TIP3   OH2 1061   4.584   1.091   0.702
  373TIP3    H1 1062   4.654   1.090   0.637
  373TIP3    H2 1063   4.577   1.000   0.731
  374TIP3   OH2 1064   5.586   5.253   4.507
  374TIP3    H1 1065   5.681   5.249   4.502
  374TIP3    H2 1066   5.556   5.192   4.439
  375TIP3   OH2 1067   7.478   5.720   4.674
  375TIP3    H1 1068   7.521   5.724   4.588
  375TIP3    H2 1069   7.545   5.686   4.733
  376TIP3   OH2 1070   5.829   4.886   0.611
  376TIP3    H1 1071   5.822   4.790   0.612
  376TIP3    H2 1072   5.923   4.902   0.625
  377TIP3   OH2 1073   8.067   0.315   2.387
  377TIP3    H1 1074   7.979   0.335   2.355
  377TIP3    H2 1075   8.124   0.334   2.313
  378TIP3   OH2 1076   3.731   7.553   0.343
  378TIP3    H1 1077   3.710   7.639   0.380
  378TIP3    H2 1078   3.751   7.498   0.418
  379TIP3   OH2 1079   1.409   0.586   0.629
  379TIP3    H1 1080   1.330   0.594   0.576
  379TIP3    H2 1081   1.410   0.665   0.684
  380TIP3   OH2 1082   2.859   7.539   1.828
  380TIP3    H1 1083   2.823   7.620   1.864
  380TIP3    H2 1084   2.792   7.473   1.848
  381TIP3   OH2 1085   5.085   2.693   2.246
  381TIP3    H1 1086   5.132   2.641   2.311
  381TIP3    H2 1087   5.154   2.728   2.189
  382TIP3   OH2 1088   2.533   4.644   5.788
  382TIP3    H1 1089   2.449   4.607   5.762
  382TIP3    H2 1090   2.541   4.724   5.736
  383TIP3   OH2 1091   2.506   0.548   3.768
  383TIP3    H1 1092   2.527   0.480   3.704
  383TIP3    H2 1093   2.587   0.599   3.775
  384TIP3   OH2 1094   0.601   3.349   1.301
  384TIP3    H1 1095   0.552   3.308   1.373
  384TIP3    H2 1096   0.550   3.329   1.223
  385TIP3   OH2 1097   7.628   2.939   6.403
  385TIP3    H1 1098   7.614   2.873   6.470
  385TIP3    H2 1099   7.719   2.928   6.377
  386TIP3   OH2 1100   7.708   1.179   2.808
  386TIP3    H1 1101   7.667   1.143   2.887
  386TIP3    H2 1102   7.666   1.265   2.796
  387TIP3   OH2 1103   2.996   0.014   5.723
  387TIP3    H1 1104   3.058   0.070   5.677
  387TIP3    H2 1105   2.994   0.048   5.812
  388TIP3   OH2 1106   4.610   0.018   4.435
  388TIP3    H1 1107   4.699   0.055   4.442
  388TIP3    H2 1108   4.619  -0.054   4.372
  389TIP3   OH2 1109   1.097   0.586   3.573
  389TIP3    H1 1110   1.122   0.493   3.577
  389TIP3    H2 1111   1.102   0.607   3.480
  390TIP3   OH2 1112   8.087   2.932   4.583
  390TIP3    H1 1113   8.014   2.926   4.644
  390TIP3    H2 1114   8.155   2.979   4.631
  391TIP3   OH2 1115   2.438   1.156   6.731
  391TIP3    H1 1116   2.510   1.215   6.754
  391TIP3    H2 1117   2.479   1.070   6.724
  392TIP3   OH2 1118   0.627   5.277   0.096
  392TIP3    H1 1119   0.709   5.275   0.047
  392TIP3    H2 1120   0.601   5.369   0.096
  393TIP3   OH2 1121   6.267   6.299   6.172
  393TIP3    H1 1122   6.224   6.327   6.253
  393TIP3    H2 1123   6.325   6.228   6.199
  394TIP3   OH2 1124   6.558   5.848   0.574
  394TIP3    H1 1125   6.510   5.923   0.610
  394TIP3    H2 1126   6.490   5.791   0.538
  395TIP3   OH2 1127   3.947   3.789   3.594
  395TIP3    H1 1128   3.867   3.737   3.593
  395TIP3    H2 1129   4.005   3.743   3.654
  396TIP3   OH2 1130   2.070   6.568   1.404
  396TIP3    H1 1131   1.996   6.623   1.426
  396TIP3    H2 1132   2.111   6.611   1.328
  397TIP3   OH2 1133   8.206   5.383   1.877
  397TIP3    H1 1134   8.299   5.364   1.867
  397TIP3    H2 1135   8.170   5.374   1.789
  398TIP3   OH2 1136   3.632   7.472   6.682
  398TIP3    H1 1137   3.690   7.522   6.625
  398TIP3    H2 1138   3.682   7.461   6.763
  399TIP3   OH2 1139   1.503   2.179   1.620
  399TIP3    H1 1140   1.496   2.128   1.701
  399TIP3    H2 1141   1.596   2.174   1.597
  400TIP3   OH2 1142   6.097   3.581   1.172
  400TIP3    H1 1143   6.145   3.620   1.245
  400TIP3    H2 1144   6.152   3.508   1.143
  401TIP3   OH2 1145   7.135   6.693   5.061
  401TIP3    H1 1146   7.052   6.669   5.103
  401TIP3    H2 1147   7.175   6.755   5.122
  402TIP3   OH2 1148   5.668   5.643   4.037
  402TIP3    H1 1149   5.619   5.712   3.992
  402TIP3    H2 1150   5.692   5.582   3.968
  403TIP3   OH2 1151   0.391   6.802   1.828
  403TIP3    H1 1152   0.331   6.874   1.814
  403TIP3    H2 1153   0.416   6.774   1.740
  404TIP3   OH2 1154   3.888   6.379   1.895
  404TIP3    H1 1155   3.964   6.374   1.836
  404TIP3    H2 1156   3.832   6.306   1.868
  405TIP3   OH2 1157   5.681   3.305   5.361
  405TIP3    H1 1158   5.617   3.244   5.325
  405TIP3    H2 1159   5.681   3.378   5.300
  406TIP3   OH2 1160   5.091   1.192   1.021
  406TIP3    H1 1161   5.018   1.152   0.973
  406TIP3    H2 1162   5.121   1.123   1.080
  407TIP3   OH2 1163   5.156   2.046   5.132
  407TIP3    H1 1164   5.199   2.045   5.218
  407TIP3    H2 1165   5.109   2.130   5.130
  408TIP3   OH2 1166   0.087   6.895   2.140
  408TIP3    H1 1167  -0.008   6.910   2.139
  408TIP3    H2 1168   0.121   6.964   2.197
  409TIP3   OH2 1169   6.894   7.109   6.193
  409TIP3    H1 1170   6.977   7.070   6.222
  409TIP3    H2 1171   6.841   7.035   6.165
  410TIP3   OH2 1172   4.571   2.356   0.723
  410TIP3    H1 1173   4.504   2.303   0.680
  410TIP3    H2 1174   4.653   2.331   0.680
  411TIP3   OH2 1175   2.819   6.585   5.134
  411TIP3    H1 1176   2.788   6.530   5.206
  411TIP3    H2 1177   2.764   6.663   5.139
  412TIP3   OH2 1178   2.911   5.238   0.384
  412TIP3    H1 1179   2.914   5.292   0.305
  412TIP3    H2 1180   2.861   5.290   0.447
  413TIP3   OH2 1181   6.178   7.486   2.015
  413TIP3    H1 1182   6.208   7.435   2.089
  413TIP3    H2 1183   6.184   7.426   1.940
  414TIP3   OH2 1184   7.538   2.456   5.387
  414TIP3    H1 1185   7.522   2.410   5.305
  414TIP3    H2 1186   7.633   2.447   5.401
  415TIP3   OH2 1187   3.790   7.786   3.246
  415TIP3    H1 1188   3.798   7.816   3.337
  415TIP3    H2 1189   3.839   7.704   3.244
  416TIP3   OH2 1190   2.063   2.168   3.653
  416TIP3    H1 1191   2.042   2.146   3.562
  416TIP3    H2 1192   1.983   2.210   3.686
  417TIP3   OH2 1193   7.205   2.976   6.546
  417TIP3    H1 1194   7.261   3.055   6.548
  417TIP3    H2 1195   7.124   3.006   6.506
  418TIP3   OH2 1196   3.491   7.851   1.507
  418TIP3    H1 1197   3.497   7.755   1.509
  418TIP3    H2 1198   3.483   7.876   1.599
  419TIP3   OH2 1199   0.132   4.336   5.404
  419TIP3    H1 1200   0.131   4.333   5.500
  419TIP3    H2 1201   0.105   4.248   5.377
  420TIP3   OH2 1202   1.462   6.418   2.384
  420TIP3    H1 1203   1.523   6.492   2.387
  420TIP3    H2 1204   1.495   6.357   2.449
  421TIP3   OH2 1205   4.184   1.797   1.442
  421TIP3    H1 1206   4.230   1.875   1.409
  421TIP3    H2 1207   4.159   1.820   1.531
  422TIP3   OH2 1208   7.949   1.472   3.510
  422TIP3    H1 1209   7.982   1.532   3.577
  422TIP3    H2 1210   7.966   1.385   3.545
  423TIP3   OH2 1211   7.009   3.455   1.154
  423TIP3    H1 1212   6.959   3.386   1.111
  423TIP3    H2 1213   6.943   3.513   1.193
  424TIP3   OH2 1214   5.131   0.910   1.667
  424TIP3    H1 1215   5.080   0.973   1.616
  424TIP3    H2 1216   5.177   0.963   1.731
  425TIP3   OH2 1217   3.673   4.550   0.766
  425TIP3    H1 1218   3.615   4.601   0.823
  425TIP3    H2 1219   3.756   4.599   0.768
  426TIP3   OH2 1220   1.057   7.713   5.847
  426TIP3    H1 1221   1.103   7.641   5.805
  426TIP3    H2 1222   0.992   7.741   5.782
  427TIP3   OH2 1223   3.725   6.291   0.573
  427TIP3    H1 1224   3.632   6.310   0.565
  427TIP3    H2 1225   3.749   6.325   0.660
  428TIP3   OH2 1226   3.954   2.340   2.951
  428TIP3    H1 1227   3.912   2.326   2.866
  428TIP3    H2 1228   3.891   2.392   3.000
  429TIP3   OH2 1229   7.312   0.405   3.552
  429TIP3    H1 1230   7.307   0.309   3.558
  429TIP3    H2 1231   7.222   0.433   3.535
  430TIP3   OH2 1232   2.681   4.538   3.434
  430TIP3    H1 1233   2.743   4.577   3.496
  430TIP3    H2 1234   2.669   4.605   3.367
  431TIP3   OH2 1235   4.159   6.677   0.796
  431TIP3    H1 1236   4.211   6.714   0.725
  431TIP3    H2 1237   4.147   6.585   0.772
  432TIP3   OH2 1238   7.569   4.080   3.053
  432TIP3    H1 1239   7.524   4.014   3.001
  432TIP3    H2 1240   7.584   4.153   2.993
  433TIP3   OH2 1241   1.783   4.414   4.738
  433TIP3    H1 1242   1.811   4.495   4.780
  433TIP3    H2 1243   1.797   4.430   4.644
  434TIP3   OH2 1244   5.092   6.168   2.921
  434TIP3    H1 1245   5.061   6.258   2.908
  434TIP3    H2 1246   5.014   6.114   2.914
  435TIP3   OH2 1247   6.195   5.726   4.028
  435TIP3    H1 1248   6.221   5.743   4.118
  435TIP3    H2 1249   6.112   5.680   4.035
  436TIP3   OH2 1250   0.052   6.680   3.092
  436TIP3    H1 1251  -0.031   6.661   3.137
  436TIP3    H2 1252   0.064   6.774   3.102
  437TIP3   OH2 1253   3.519   5.583   4.058
  437TIP3    H1 1254   3.469   5.503   4.074
  437TIP3    H2 1255   3.606   5.565   4.093
  438TIP3   OH2 1256   7.084   4.246   5.973
  438TIP3    H1 1257   7.105   4.336   6.000
  438TIP3    H2 1258   7.113   4.193   6.047
  439TIP3   OH2 1259   5.894   4.206   0.750
  439TIP3    H1 1260   5.909   4.262   0.674
  439TIP3    H2 1261   5.982   4.183   0.780
  440TIP3   OH2 1262   5.321   1.825   1.011
  440TIP3    H1 1263   5.382   1.771   0.960
  440TIP3    H2 1264   5.378   1.879   1.065
  441TIP3   OH2 1265   4.957   7.263   1.649
  441TIP3    H1 1266   4.929   7.260   1.741
  441TIP3    H2 1267   5.019   7.190   1.640
  442TIP3   OH2 1268   1.937   4.067   0.869
  442TIP3    H1 1269   1.982   4.093   0.789
  442TIP3    H2 1270   1.844   4.064   0.845
  443TIP3   OH2 1271   4.210   7.135   2.210
  443TIP3    H1 1272   4.125   7.089   2.211
  443TIP3    H2 1273   4.236   7.140   2.302
  444TIP3   OH2 1274   7.567   0.598   6.534
  444TIP3    H1 1275   7.549   0.666   6.598
  444TIP3    H2 1276   7.481   0.569   6.504
  445TIP3   OH2 1277   0.353   3.912   3.101
  445TIP3    H1 1278   0.275   3.959   3.129
  445TIP3    H2 1279   0.339   3.895   3.007
  446TIP3   OH2 1280   3.479   3.261   2.636
  446TIP3    H1 1281   3.516   3.283   2.721
  446TIP3    H2 1282   3.402   3.317   2.628
  447TIP3   OH2 1283   0.237   6.298   6.435
  447TIP3    H1 1284   0.168   6.251   6.481
  447TIP3    H2 1285   0.317   6.250   6.456
  448TIP3   OH2 1286   1.451   2.220   4.491
  448TIP3    H1 1287   1.364   2.238   4.526
  448TIP3    H2 1288   1.512   2.263   4.551
  449TIP3   OH2 1289   0.019   4.459   5.187
  449TIP3    H1 1290   0.092   4.454   5.248
  449TIP3    H2 1291   0.048   4.520   5.119
  450TIP3   OH2 1292   0.742   4.581   3.333
  450TIP3    H1 1293   0.670   4.533   3.374
  450TIP3    H2 1294   0.700   4.655   3.289
  451TIP3   OH2 1295   6.508   5.562   0.967
  451TIP3    H1 1296   6.596   5.525   0.963
  451TIP3    H2 1297   6.482   5.552   1.059
  452TIP3   OH2 1298   2.688   5.646   1.316
  452TIP3    H1 1299   2.603   5.620   1.281
  452TIP3    H2 1300   2.729   5.695   1.245
  453TIP3   OH2 1301   3.263   2.617   0.036
  453TIP3    H1 1302   3.302   2.623  -0.051
  453TIP3    H2 1303   3.226   2.704   0.051
  454TIP3   OH2 1304   6.952   5.798   6.306
  454TIP3    H1 1305   6.907   5.716   6.286
  454TIP3    H2 1306   7.021   5.773   6.367
  455TIP3   OH2 1307   0.264   2.518   2.415
  455TIP3    H1 1308   0.190   2.465   2.384
  455TIP3    H2 1309   0.326   2.455   2.451
  456TIP3   OH2 1310   5.329   2.438   3.925
  456TIP3    H1 1311   5.256   2.376   3.935
  456TIP3    H2 1312   5.314   2.503   3.993
  457TIP3   OH2 1313   5.681   5.075   5.694
  457TIP3    H1 1314   5.761   5.125   5.709
  457TIP3    H2 1315   5.638   5.073   5.780
  458TIP3   OH2 1316   0.046   4.307   0.091
  458TIP3    H1 1317   0.022   4.299  -0.001
  458TIP3    H2 1318  -0.026   4.357   0.130
  459TIP3   OH2 1319   2.263   2.543   3.061
  459TIP3    H1 1320   2.331   2.483   3.090
  459TIP3    H2 1321   2.262   2.534   2.966
  460TIP3   OH2 1322   0.304   6.741   4.124
  460TIP3    H1 1323   0.218   6.706   4.147
  460TIP3    H2 1324   0.299   6.834   4.146
  461TIP3   OH2 1325   5.912   3.963   0.170
  461TIP3    H1 1326   5.910   3.995   0.260
  461TIP3    H2 1327   5.854   3.887   0.170
  462TIP3   OH2 1328   1.250   3.943   4.031
  462TIP3    H1 1329   1.295   3.894   3.963
  462TIP3    H2 1330   1.319   3.964   4.095
  463TIP3   OH2 1331   4.929   0.633   5.623
  463TIP3    H1 1332   4.953   0.540   5.626
  463TIP3    H2 1333   5.013   0.679   5.619
  464TIP3   OH2 1334   6.551   5.401   6.352
  464TIP3    H1 1335   6.489   5.362   6.414
  464TIP3    H2 1336   6.636   5.365   6.378
  465TIP3   OH2 1337   2.305   3.002   0.730
  465TIP3    H1 1338   2.372   3.068   0.712
  465TIP3    H2 1339   2.306   2.945   0.653
  466TIP3   OH2 1340   6.066   3.223   4.503
  466TIP3    H1 1341   5.977   3.256   4.489
  466TIP3    H2 1342   6.098   3.273   4.578
  467TIP3   OH2 1343   2.130   5.568   5.204
  467TIP3    H1 1344   2.201   5.628   5.179
  467TIP3    H2 1345   2.068   5.622   5.253
  468TIP3   OH2 1346   4.241   6.771   3.608
  468TIP3    H1 1347   4.301   6.698   3.617
  468TIP3    H2 1348   4.295   6.849   3.620
  469TIP3   OH2 1349   3.737   6.243   5.921
  469TIP3    H1 1350   3.670   6.205   5.864
  469TIP3    H2 1351   3.721   6.201   6.006
  470TIP3   OH2 1352   2.851   2.609   4.353
  470TIP3    H1 1353   2.882   2.537   4.298
  470TIP3    H2 1354   2.844   2.571   4.441
  471TIP3   OH2 1355   7.739   3.657   6.559
  471TIP3    H1 1356   7.753   3.749   6.581
  471TIP3    H2 1357   7.782   3.646   6.474
  472TIP3   OH2 1358   3.047   4.376   0.887
  472TIP3    H1 1359   3.108   4.315   0.844
  472TIP3    H2 1360   3.001   4.419   0.815
  473TIP3   OH2 1361   0.571   1.686   5.133
  473TIP3    H1 1362   0.659   1.718   5.114
  473TIP3    H2 1363   0.574   1.663   5.226
  474TIP3   OH2 1364   6.505   0.658   6.147
  474TIP3    H1 1365   6.460   0.583   6.107
  474TIP3    H2 1366   6.595   0.650   6.117
  475TIP3   OH2 1367   7.734   0.283   3.685
  475TIP3    H1 1368   7.701   0.362   3.728
  475TIP3    H2 1369   7.827   0.282   3.703
  476TIP3   OH2 1370   3.051   2.288   2.019
  476TIP3    H1 1371   3.046   2.195   2.043
  476TIP3    H2 1372   3.041   2.335   2.102
  477TIP3   OH2 1373   4.723   4.737   5.181
  477TIP3    H1 1374   4.758   4.680   5.248
  477TIP3    H2 1375   4.761   4.823   5.200
  478TIP3   OH2 1376   1.817   1.255   2.457
  478TIP3    H1 1377   1.811   1.202   2.536
  478TIP3    H2 1378   1.903   1.296   2.462
  479TIP3   OH2 1379   5.437   1.629   5.668
  479TIP3    H1 1380   5.370   1.657   5.730
  479TIP3    H2 1381   5.505   1.590   5.724
  480TIP3   OH2 1382   2.591   6.834   1.570
  480TIP3    H1 1383   2.536   6.791   1.635
  480TIP3    H2 1384   2.532   6.892   1.522
  481TIP3   OH2 1385   4.687   4.799   5.580
  481TIP3    H1 1386   4.726   4.882   5.606
  481TIP3    H2 1387   4.760   4.748   5.544
  482TIP3   OH2 1388   6.270   7.276   6.225
  482TIP3    H1 1389   6.352   7.249   6.185
  482TIP3    H2 1390   6.211   7.291   6.151
  483TIP3   OH2 1391   1.074   3.673   6.440
  483TIP3    H1 1392   0.987   3.697   6.471
  483TIP3    H2 1393   1.097   3.743   6.378
  484TIP3   OH2 1394   0.088   4.341   0.447
  484TIP3    H1 1395   0.034   4.378   0.377
  484TIP3    H2 1396   0.045   4.258   0.468
  485TIP3   OH2 1397   6.672   3.685   6.672
  485TIP3    H1 1398   6.667   3.601   6.717
  485TIP3    H2 1399   6.764   3.709   6.676
  486TIP3   OH2 1400   4.659   7.726   5.661
  486TIP3    H1 1401   4.678   7.633   5.644
  486TIP3    H2 1402   4.635   7.761   5.575
  487TIP3   OH2 1403   3.688   4.330   3.765
  487TIP3    H1 1404   3.607   4.283   3.747
  487TIP3    H2 1405   3.725   4.286   3.842
  488TIP3   OH2 1406   0.834   2.891   0.762
  488TIP3    H1 1407   0.891   2.931   0.697
  488TIP3    H2 1408   0.864   2.800   0.768
  489TIP3   OH2 1409   1.837   7.309   3.261
  489TIP3    H1 1410   1.820   7.329   3.169
  489TIP3    H2 1411   1.912   7.363   3.284
  490TIP3   OH2 1412   2.522   5.015   5.817
  490TIP3    H1 1413   2.551   5.100   5.783
  490TIP3    H2 1414   2.537   4.954   5.744
  491TIP3   OH2 1415   6.717   5.137   1.962
  491TIP3    H1 1416   6.758   5.146   2.048
  491TIP3    H2 1417   6.685   5.047   1.961
  492TIP3   OH2 1418   0.033   6.479   2.428
  492TIP3    H1 1419   0.008   6.505   2.339
  492TIP3    H2 1420   0.006   6.388   2.436
  493TIP3   OH2 1421   1.565   6.107   0.211
  493TIP3    H1 1422   1.562   6.050   0.288
  493TIP3    H2 1423   1.637   6.072   0.158
  494TIP3   OH2 1424   6.477   5.746   5.708
  494TIP3    H1 1425   6.509   5.823   5.755
  494TIP3    H2 1426   6.552   5.717   5.656
  495TIP3   OH2 1427   0.642   6.107   0.202
  495TIP3    H1 1428   0.684   6.168   0.262
  495TIP3    H2 1429   0.586   6.162   0.148
  496TIP3   OH2 1430   2.575   1.874   3.295
  496TIP3    H1 1431   2.581   1.796   3.350
  496TIP3    H2 1432   2.547   1.840   3.209
  497TIP3   OH2 1433   7.270   0.841   5.736
  497TIP3    H1 1434   7.238   0.758   5.701
  497TIP3    H2 1435   7.193   0.897   5.742
  498TIP3   OH2 1436   4.935   2.888   3.485
  498TIP3    H1 1437   4.943   2.835   3.564
  498TIP3    H2 1438   4.917   2.825   3.415
  499TIP3   OH2 1439   0.798   2.055   1.043
  499TIP3    H1 1440   0.802   2.012   1.129
  499TIP3    H2 1441   0.760   1.988   0.985
  500TIP3   OH2 1442   0.315   6.569   1.333
  500TIP3    H1 1443   0.255   6.592   1.262
  500TIP3    H2 1444   0.366   6.648   1.348
  501TIP3   OH2 1445   2.902   6.891   2.156
  501TIP3    H1 1446   2.952   6.845   2.089
  501TIP3    H2 1447   2.958   6.887   2.234
  502TIP3   OH2 1448   4.463   4.035   6.510
  502TIP3    H1 1449   4.421   3.955   6.478
  502TIP3    H2 1450   4.540   4.045   6.455
  503TIP3   OH2 1451   2.732   5.129   1.251
  503TIP3    H1 1452   2.706   5.154   1.163
  503TIP3    H2 1453   2.716   5.034   1.255
  504TIP3   OH2 1454   4.652   3.580   5.652
  504TIP3    H1 1455   4.614   3.633   5.582
  504TIP3    H2 1456   4.653   3.491   5.616
  505TIP3   OH2 1457   5.556   7.264   5.001
  505TIP3    H1 1458   5.634   7.320   5.003
  505TIP3    H2 1459   5.541   7.240   5.092
  506TIP3   OH2 1460   7.802   4.699   3.228
  506TIP3    H1 1461   7.783   4.790   3.251
  506TIP3    H2 1462   7.837   4.704   3.139
  507TIP3   OH2 1463   1.906   6.811   3.778
  507TIP3    H1 1464   1.911   6.835   3.686
  507TIP3    H2 1465   1.876   6.720   3.777
  508TIP3   OH2 1466   7.644   1.813   5.663
  508TIP3    H1 1467   7.722   1.796   5.609
  508TIP3    H2 1468   7.671   1.787   5.751
  509TIP3   OH2 1469   2.320   2.330   4.611
  509TIP3    H1 1470   2.236   2.364   4.642
  509TIP3    H2 1471   2.327   2.361   4.521
  510TIP3   OH2 1472   7.968   1.889   5.807
  510TIP3    H1 1473   8.004   1.852   5.887
  510TIP3    H2 1474   7.933   1.975   5.834
  511TIP3   OH2 1475   5.800   7.520   3.472
  511TIP3    H1 1476   5.806   7.523   3.567
  511TIP3    H2 1477   5.813   7.611   3.444
  512TIP3   OH2 1478   5.514   7.694   6.119
  512TIP3    H1 1479   5.509   7.789   6.121
  512TIP3    H2 1480   5.603   7.675   6.089
  513TIP3   OH2 1481   0.698   6.387   5.803
  513TIP3    H1 1482   0.630   6.391   5.736
  513TIP3    H2 1483   0.657   6.340   5.876
  514TIP3   OH2 1484   1.829   1.916   5.106
  514TIP3    H1 1485   1.870   1.904   5.192
  514TIP3    H2 1486   1.760   1.981   5.121
  515TIP3   OH2 1487   6.893   0.797   2.562
  515TIP3    H1 1488   6.804   0.809   2.528
  515TIP3    H2 1489   6.950   0.825   2.490
  516TIP3   OH2 1490   6.609   1.494   4.368
  516TIP3    H1 1491   6.631   1.578   4.408
  516TIP3    H2 1492   6.640   1.428   4.430
  517TIP3   OH2 1493   4.482   3.551   1.036
  517TIP3    H1 1494   4.415   3.606   0.996
  517TIP3    H2 1495   4.502   3.485   0.970
  518TIP3   OH2 1496   4.047   1.910   4.227
  518TIP3    H1 1497   4.109   1.863   4.171
  518TIP3    H2 1498   3.969   1.854   4.228
  519TIP3   OH2 1499   6.311   2.852   2.053
  519TIP3    H1 1500   6.266   2.916   1.998
  519TIP3    H2 1501   6.241   2.794   2.083
  520TIP3   OH2 1502   1.878   2.527   1.634
  520TIP3    H1 1503   1.842   2.602   1.586
  520TIP3    H2 1504   1.849   2.539   1.724
  521TIP3   OH2 1505   3.855   5.467   6.489
  521TIP3    H1 1506   3.915   5.405   6.530
  521TIP3    H2 1507   3.860   5.447   6.395
  522TIP3   OH2 1508   5.771   4.768   4.667
  522TIP3    H1 1509   5.688   4.753   4.623
  522TIP3    H2 1510   5.777   4.863   4.675
  523TIP3   OH2 1511   2.573   6.659   1.318
  523TIP3    H1 1512   2.607   6.719   1.385
  523TIP3    H2 1513   2.486   6.692   1.297
  524TIP3   OH2 1514   1.167   0.935   5.720
  524TIP3    H1 1515   1.154   0.856   5.773
  524TIP3    H2 1516   1.085   0.984   5.729
  525TIP3   OH2 1517   0.697   7.743   5.929
  525TIP3    H1 1518   0.664   7.763   5.841
  525TIP3    H2 1519   0.681   7.649   5.940
  526TIP3   OH2 1520   4.986   7.361   5.764
  526TIP3    H1 1521   4.901   7.405   5.759
  526TIP3    H2 1522   5.030   7.401   5.839
  527TIP3   OH2 1523   4.386   3.899   1.117
  527TIP3    H1 1524   4.348   3.884   1.203
  527TIP3    H2 1525   4.331   3.849   1.057
  528TIP3   OH2 1526   5.314   4.221   4.008
  528TIP3    H1 1527   5.380   4.218   3.939
  528TIP3    H2 1528   5.232   4.239   3.961
  529TIP3   OH2 1529   2.548   6.048   4.872
  529TIP3    H1 1530   2.574   6.096   4.950
  529TIP3    H2 1531   2.480   6.102   4.831
  530TIP3   OH2 1532   4.372   0.607   3.503
  530TIP3    H1 1533   4.289   0.566   3.480
  530TIP3    H2 1534   4.359   0.639   3.592
  531TIP3   OH2 1535   5.135   2.299   1.079
  531TIP3    H1 1536   5.113   2.213   1.042
  531TIP3    H2 1537   5.230   2.304   1.073
  532TIP3   OH2 1538   4.763   5.620   0.114
  532TIP3    H1 1539   4.841   5.662   0.151
  532TIP3    H2 1540   4.784   5.527   0.112
  533TIP3   OH2 1541   6.865   6.898   4.279
  533TIP3    H1 1542   6.849   6.814   4.236
  533TIP3    H2 1543   6.780   6.943   4.274
  534TIP3   OH2 1544   5.872   2.667   4.979
  534TIP3    H1 1545   5.828   2.748   5.006
  534TIP3    H2 1546   5.890   2.680   4.886
  535TIP3   OH2 1547   7.060   0.499   1.391
  535TIP3    H1 1548   7.133   0.547   1.351
  535TIP3    H2 1549   7.074   0.408   1.363
  536TIP3   OH2 1550   0.424   6.878   5.672
  536TIP3    H1 1551   0.486   6.808   5.653
  536TIP3    H2 1552   0.357   6.838   5.727
  537TIP3   OH2 1553   3.872   5.820   0.643
  537TIP3    H1 1554   3.891   5.761   0.715
  537TIP3    H2 1555   3.802   5.877   0.676
  538TIP3   OH2 1556   3.499   0.307   5.190
  538TIP3    H1 1557   3.494   0.232   5.132
  538TIP3    H2 1558   3.522   0.270   5.276
  539TIP3   OH2 1559   2.031   7.439   2.234
  539TIP3    H1 1560   2.047   7.345   2.234
  539TIP3    H2 1561   1.997   7.458   2.146
  540TIP3   OH2 1562   2.593   3.423   5.047
  540TIP3    H1 1563   2.590   3.510   5.087
  540TIP3    H2 1564   2.672   3.383   5.084
  541TIP3   OH2 1565   3.541   7.575   0.750
  541TIP3    H1 1566   3.506   7.562   0.838
  541TIP3    H2 1567   3.593   7.497   0.733
  542TIP3   OH2 1568   5.286   6.087   6.343
  542TIP3    H1 1569   5.348   6.058   6.276
  542TIP3    H2 1570   5.201   6.086   6.299
  543TIP3   OH2 1571   4.238   3.726   2.164
  543TIP3    H1 1572   4.186   3.715   2.243
  543TIP3    H2 1573   4.176   3.712   2.092
  544TIP3   OH2 1574   6.787   4.317   6.683
  544TIP3    H1 1575   6.721   4.272   6.735
  544TIP3    H2 1576   6.787   4.271   6.599
  545TIP3   OH2 1577   2.638   4.885   1.372
  545TIP3    H1 1578   2.710   4.840   1.415
  545TIP3    H2 1579   2.577   4.906   1.443
  546TIP3   OH2 1580   1.211   1.184   2.847
  546TIP3    H1 1581   1.296   1.142   2.858
  546TIP3    H2 1582   1.205   1.247   2.918
  547TIP3   OH2 1583   7.643   7.403   0.857
  547TIP3    H1 1584   7.605   7.358   0.932
  547TIP3    H2 1585   7.575   7.400   0.790
  548TIP3   OH2 1586   0.096   1.631   0.782
  548TIP3    H1 1587   0.162   1.630   0.851
  548TIP3    H2 1588   0.026   1.686   0.817
  549TIP3   OH2 1589   1.690   5.596   3.289
  549TIP3    H1 1590   1.763   5.593   3.352
  549TIP3    H2 1591   1.673   5.504   3.268
  550TIP3   OH2 1592   3.312   4.432   0.066
  550TIP3    H1 1593   3.399   4.453   0.031
  550TIP3    H2 1594   3.323   4.345   0.105
  551TIP3   OH2 1595   1.026   3.251   2.160
  551TIP3    H1 1596   1.067   3.164   2.160
  551TIP3    H2 1597   1.017   3.273   2.253
  552TIP3   OH2 1598   2.526   7.129   4.796
  552TIP3    H1 1599   2.573   7.050   4.824
  552TIP3    H2 1600   2.515   7.180   4.876
  553TIP3   OH2 1601   5.797   5.657   1.799
  553TIP3    H1 1602   5.874   5.682   1.849
  553TIP3    H2 1603   5.753   5.740   1.778
  554TIP3   OH2 1604   0.828   0.419   6.061
  554TIP3    H1 1605   0.852   0.413   6.154
  554TIP3    H2 1606   0.825   0.513   6.043
  555TIP3   OH2 1607   7.515   0.233   3.317
  555TIP3    H1 1608   7.590   0.257   3.371
  555TIP3    H2 1609   7.546   0.241   3.227
  556TIP3   OH2 1610   2.658   1.976   0.619
  556TIP3    H1 1611   2.602   2.037   0.571
  556TIP3    H2 1612   2.742   1.978   0.573
  557TIP3   OH2 1613   4.972   5.478   6.690
  557TIP3    H1 1614   5.004   5.520   6.769
  557TIP3    H2 1615   4.964   5.385   6.712
  558TIP3   OH2 1616   5.555   1.981   4.017
  558TIP3    H1 1617   5.521   2.057   3.970
  558TIP3    H2 1618   5.588   1.923   3.948
  559TIP3   OH2 1619   6.458   1.574   4.620
  559TIP3    H1 1620   6.458   1.493   4.569
  559TIP3    H2 1621   6.543   1.614   4.601
  560TIP3   OH2 1622   2.436   7.042   3.347
  560TIP3    H1 1623   2.404   7.094   3.273
  560TIP3    H2 1624   2.404   7.087   3.424
  561TIP3   OH2 1625   0.329   0.822   2.877
  561TIP3    H1 1626   0.263   0.839   2.810
  561TIP3    H2 1627   0.283   0.768   2.942
  562TIP3   OH2 1628   8.126   0.072   1.716
  562TIP3    H1 1629   8.173   0.154   1.729
  562TIP3    H2 1630   8.193   0.011   1.683
  563TIP3   OH2 1631   5.041   1.467   5.096
  563TIP3    H1 1632   5.125   1.430   5.068
  563TIP3    H2 1633   5.026   1.429   5.182
  564TIP3   OH2 1634   7.436   4.534   5.099
  564TIP3    H1 1635   7.411   4.445   5.123
  564TIP3    H2 1636   7.515   4.552   5.150
  565TIP3   OH2 1637   6.593   4.884   1.874
  565TIP3    H1 1638   6.621   4.845   1.956
  565TIP3    H2 1639   6.514   4.934   1.896
  566TIP3   OH2 1640   2.761   1.928   6.450
  566TIP3    H1 1641   2.710   1.868   6.504
  566TIP3    H2 1642   2.714   1.932   6.367
  567TIP3   OH2 1643   8.014   1.165   6.667
  567TIP3    H1 1644   8.090   1.120   6.630
  567TIP3    H2 1645   7.966   1.197   6.590
  568TIP3   OH2 1646   3.808   5.380   1.486
  568TIP3    H1 1647   3.872   5.442   1.451
  568TIP3    H2 1648   3.754   5.431   1.546
  569TIP3   OH2 1649   2.099   6.750   3.405
  569TIP3    H1 1650   2.156   6.775   3.333
  569TIP3    H2 1651   2.122   6.810   3.476
  570TIP3   OH2 1652   5.083   5.290   3.683
  570TIP3    H1 1653   5.030   5.364   3.653
  570TIP3    H2 1654   5.031   5.251   3.754
  571TIP3   OH2 1655   0.982   3.948   0.931
  571TIP3    H1 1656   0.948   3.965   0.843
  571TIP3    H2 1657   1.053   4.011   0.943
  572TIP3   OH2 1658   6.274   2.792   3.268
  572TIP3    H1 1659   6.184   2.822   3.258
  572TIP3    H2 1660   6.302   2.768   3.180
  573TIP3   OH2 1661   4.307   0.031   6.750
  573TIP3    H1 1662   4.254   0.056   6.674
  573TIP3    H2 1663   4.366   0.106   6.764
  574TIP3   OH2 1664   0.502   3.903   3.648
  574TIP3    H1 1665   0.546   3.881   3.731
  574TIP3    H2 1666   0.468   3.991   3.662
  575TIP3   OH2 1667   5.254   1.017   4.903
  575TIP3    H1 1668   5.187   0.979   4.846
  575TIP3    H2 1669   5.337   0.996   4.861
  576TIP3   OH2 1670   4.296   7.374   0.701
  576TIP3    H1 1671   4.286   7.458   0.746
  576TIP3    H2 1672   4.332   7.397   0.615
  577TIP3   OH2 1673   7.967   7.423   2.000
  577TIP3    H1 1674   7.939   7.336   2.030
  577TIP3    H2 1675   7.929   7.431   1.912
  578TIP3   OH2 1676   6.296   5.085   3.989
  578TIP3    H1 1677   6.240   5.162   4.005
  578TIP3    H2 1678   6.370   5.119   3.938
  579TIP3   OH2 1679   4.139   0.098   1.168
  579TIP3    H1 1680   4.176   0.185   1.181
  579TIP3    H2 1681   4.047   0.114   1.145
  580TIP3   OH2 1682   4.159   4.206   0.651
  580TIP3    H1 1683   4.106   4.148   0.706
  580TIP3    H2 1684   4.234   4.229   0.707
  581TIP3   OH2 1685   2.949   2.304   4.428
  581TIP3    H1 1686   2.902   2.345   4.501
  581TIP3    H2 1687   2.968   2.215   4.458
  582TIP3   OH2 1688   1.970   2.429   3.642
  582TIP3    H1 1689   1.972   2.448   3.548
  582TIP3    H2 1690   1.955   2.514   3.683
  583TIP3   OH2 1691   5.994   3.016   3.528
  583TIP3    H1 1692   6.037   3.035   3.445
  583TIP3    H2 1693   5.926   3.083   3.535
  584TIP3   OH2 1694   1.726   3.938   4.104
  584TIP3    H1 1695   1.763   3.906   4.186
  584TIP3    H2 1696   1.634   3.910   4.106
  585TIP3   OH2 1697   1.233   4.643   2.988
  585TIP3    H1 1698   1.269   4.653   2.900
  585TIP3    H2 1699   1.205   4.730   3.014
  586TIP3   OH2 1700   7.533   1.874   1.318
  586TIP3    H1 1701   7.592   1.918   1.379
  586TIP3    H2 1702   7.547   1.781   1.334
  587TIP3   OH2 1703   2.547   1.024   4.342
  587TIP3    H1 1704   2.460   1.061   4.329
  587TIP3    H2 1705   2.604   1.079   4.288
  588TIP3   OH2 1706   0.463   4.157   5.490
  588TIP3    H1 1707   0.535   4.130   5.434
  588TIP3    H2 1708   0.425   4.233   5.445
  589TIP3   OH2 1709   0.992   0.398   4.538
  589TIP3    H1 1710   0.926   0.465   4.556
  589TIP3    H2 1711   1.070   0.447   4.512
  590TIP3   OH2 1712   5.568   2.635   6.680
  590TIP3    H1 1713   5.511   2.575   6.631
  590TIP3    H2 1714   5.508   2.684   6.736
  591TIP3   OH2 1715   2.149   4.727   3.779
  591TIP3    H1 1716   2.179   4.720   3.689
  591TIP3    H2 1717   2.225   4.703   3.832
  592TIP3   OH2 1718   7.810   3.290   3.006
  592TIP3    H1 1719   7.807   3.364   2.945
  592TIP3    H2 1720   7.729   3.296   3.056
  593TIP3   OH2 1721   2.405   6.840   3.777
  593TIP3    H1 1722   2.463   6.914   3.763
  593TIP3    H2 1723   2.317   6.875   3.762
  594TIP3   OH2 1724   3.151   2.077   5.884
  594TIP3    H1 1725   3.137   2.171   5.897
  594TIP3    H2 1726   3.081   2.050   5.824
  595TIP3   OH2 1727   2.082   4.544   6.667
  595TIP3    H1 1728   2.143   4.595   6.615
  595TIP3    H2 1729   2.058   4.602   6.739
  596TIP3   OH2 1730   7.430   4.996   0.314
  596TIP3    H1 1731   7.464   5.086   0.321
  596TIP3    H2 1732   7.414   4.970   0.405
  597TIP3   OH2 1733   3.809   7.355   1.457
  597TIP3    H1 1734   3.846   7.280   1.503
  597TIP3    H2 1735   3.884   7.412   1.439
  598TIP3   OH2 1736   7.199   6.947   5.777
  598TIP3    H1 1737   7.261   6.970   5.708
  598TIP3    H2 1738   7.113   6.960   5.738
  599TIP3   OH2 1739   3.415   7.481   5.971
  599TIP3    H1 1740   3.464   7.562   5.968
  599TIP3    H2 1741   3.324   7.508   5.986
  600TIP3   OH2 1742   5.692   6.009   0.776
  600TIP3    H1 1743   5.706   5.914   0.776
  600TIP3    H2 1744   5.697   6.034   0.683
  601TIP3   OH2 1745   3.528   2.474   2.485
  601TIP3    H1 1746   3.566   2.560   2.503
  601TIP3    H2 1747   3.575   2.442   2.408
  602TIP3   OH2 1748   7.709   5.995   0.204
  602TIP3    H1 1749   7.639   6.009   0.268
  602TIP3    H2 1750   7.789   5.986   0.256
  603TIP3   OH2 1751   0.389   7.170   4.654
  603TIP3    H1 1752   0.451   7.168   4.581
  603TIP3    H2 1753   0.343   7.086   4.649
  604TIP3   OH2 1754   6.599   5.813   3.062
  604TIP3    H1 1755   6.679   5.852   3.098
  604TIP3    H2 1756   6.600   5.723   3.094
  605TIP3   OH2 1757   1.590   6.215   2.626
  605TIP3    H1 1758   1.652   6.275   2.669
  605TIP3    H2 1759   1.646   6.156   2.574
  606TIP3   OH2 1760   1.927   4.591   3.675
  606TIP3    H1 1761   1.997   4.649   3.704
  606TIP3    H2 1762   1.960   4.503   3.691
  607TIP3   OH2 1763   2.054   0.432   4.019
  607TIP3    H1 1764   2.007   0.513   4.035
  607TIP3    H2 1765   2.145   0.458   4.008
  608TIP3   OH2 1766   1.466   2.362   4.884
  608TIP3    H1 1767   1.511   2.340   4.802
  608TIP3    H2 1768   1.517   2.316   4.951
  609TIP3   OH2 1769   4.876   3.386   5.890
  609TIP3    H1 1770   4.955   3.440   5.887
  609TIP3    H2 1771   4.890   3.328   5.965
  610TIP3   OH2 1772   5.541   0.835   4.323
  610TIP3    H1 1773   5.602   0.818   4.394
  610TIP3    H2 1774   5.508   0.923   4.341
  611TIP3   OH2 1775   0.991   1.844   4.801
  611TIP3    H1 1776   0.935   1.911   4.841
  611TIP3    H2 1777   0.949   1.825   4.717
  612TIP3   OH2 1778   2.225   6.430   3.485
  612TIP3    H1 1779   2.159   6.393   3.543
  612TIP3    H2 1780   2.176   6.461   3.409
  613TIP3   OH2 1781   0.037   4.097   4.224
  613TIP3    H1 1782  -0.030   4.051   4.174
  613TIP3    H2 1783   0.038   4.185   4.188
  614TIP3   OH2 1784   3.131   7.585   1.967
  614TIP3    H1 1785   3.054   7.540   2.001
  614TIP3    H2 1786   3.129   7.672   2.008
  615TIP3   OH2 1787   2.964   0.031   6.006
  615TIP3    H1 1788   2.950  -0.058   6.038
  615TIP3    H2 1789   3.059   0.043   6.011
  616TIP3   OH2 1790   5.704   1.599   4.077
  616TIP3    H1 1791   5.744   1.681   4.048
  616TIP3    H2 1792   5.647   1.624   4.150
  617TIP3   OH2 1793   0.672   0.759   3.669
  617TIP3    H1 1794   0.645   0.836   3.618
  617TIP3    H2 1795   0.683   0.690   3.604
  618TIP3   OH2 1796   6.217   5.504   5.592
  618TIP3    H1 1797   6.146   5.550   5.547
  618TIP3    H2 1798   6.222   5.546   5.678
  619TIP3   OH2 1799   3.907   4.718   5.051
  619TIP3    H1 1800   3.977   4.780   5.034
  619TIP3    H2 1801   3.926   4.682   5.138
  620TIP3   OH2 1802   5.906   7.601   2.017
  620TIP3    H1 1803   5.856   7.680   2.038
  620TIP3    H2 1804   5.983   7.634   1.971
  621TIP3   OH2 1805   3.622   3.808   0.064
  621TIP3    H1 1806   3.603   3.717   0.086
  621TIP3    H2 1807   3.660   3.804  -0.024
  622TIP3   OH2 1808   0.469   5.369   3.515
  622TIP3    H1 1809   0.439   5.320   3.438
  622TIP3    H2 1810   0.537   5.427   3.482
  623TIP3   OH2 1811   2.005   5.736   2.302
  623TIP3    H1 1812   2.071   5.669   2.317
  623TIP3    H2 1813   1.934   5.689   2.257
  624TIP3   OH2 1814   0.880   7.359   1.638
  624TIP3    H1 1815   0.825   7.375   1.715
  624TIP3    H2 1816   0.924   7.443   1.622
  625TIP3   OH2 1817   1.462   5.713   0.645
  625TIP3    H1 1818   1.492   5.713   0.736
  625TIP3    H2 1819   1.493   5.797   0.611
  626TIP3   OH2 1820   6.410   2.731   1.173
  626TIP3    H1 1821   6.344   2.664   1.157
  626TIP3    H2 1822   6.391   2.763   1.261
  627TIP3   OH2 1823   2.033   3.667   6.586
  627TIP3    H1 1824   2.117   3.647   6.627
  627TIP3    H2 1825   1.968   3.640   6.651
  628TIP3   OH2 1826   6.271   0.770   0.092
  628TIP3    H1 1827   6.197   0.787   0.034
  628TIP3    H2 1828   6.278   0.850   0.145
  629TIP3   OH2 1829   1.551   4.754   6.430
  629TIP3    H1 1830   1.490   4.680   6.432
  629TIP3    H2 1831   1.609   4.736   6.356
  630TIP3   OH2 1832   5.392   1.646   6.265
  630TIP3    H1 1833   5.328   1.712   6.292
  630TIP3    H2 1834   5.339   1.568   6.246
  631TIP3   OH2 1835   8.126   5.722   2.381
  631TIP3    H1 1836   8.115   5.729   2.286
  631TIP3    H2 1837   8.078   5.797   2.416
  632TIP3   OH2 1838   6.308   4.324   2.847
  632TIP3    H1 1839   6.234   4.323   2.786
  632TIP3    H2 1840   6.378   4.276   2.802
  633TIP3   OH2 1841   0.132   0.869   1.423
  633TIP3    H1 1842   0.048   0.898   1.387
  633TIP3    H2 1843   0.191   0.867   1.348
  634TIP3   OH2 1844   1.450   3.543   2.164
  634TIP3    H1 1845   1.510   3.474   2.192
  634TIP3    H2 1846   1.475   3.620   2.215
  635TIP3   OH2 1847   2.914   1.200   1.526
  635TIP3    H1 1848   2.913   1.295   1.516
  635TIP3    H2 1849   2.839   1.181   1.582
  636TIP3   OH2 1850   1.238   3.090   5.267
  636TIP3    H1 1851   1.327   3.064   5.244
  636TIP3    H2 1852   1.234   3.183   5.244
  637TIP3   OH2 1853   6.546   0.168   2.858
  637TIP3    H1 1854   6.539   0.202   2.769
  637TIP3    H2 1855   6.635   0.133   2.864
  638TIP3   OH2 1856   2.340   6.347   5.498
  638TIP3    H1 1857   2.252   6.317   5.520
  638TIP3    H2 1858   2.379   6.273   5.451
  639TIP3   OH2 1859   2.249   3.757   4.953
  639TIP3    H1 1860   2.206   3.734   5.035
  639TIP3    H2 1861   2.192   3.722   4.885
  640TIP3   OH2 1862   2.934   0.025   2.952
  640TIP3    H1 1863   3.003   0.056   2.893
  640TIP3    H2 1864   2.887  -0.042   2.902
  641TIP3   OH2 1865   0.268   1.462   4.334
  641TIP3    H1 1866   0.195   1.522   4.347
  641TIP3    H2 1867   0.344   1.519   4.323
  642TIP3   OH2 1868   2.005   7.764   4.693
  642TIP3    H1 1869   1.971   7.683   4.732
  642TIP3    H2 1870   1.983   7.832   4.756
  643TIP3   OH2 1871   7.941   4.726   5.915
  643TIP3    H1 1872   7.865   4.693   5.866
  643TIP3    H2 1873   7.983   4.647   5.949
  644TIP3   OH2 1874   6.740   7.690   2.549
  644TIP3    H1 1875   6.718   7.731   2.466
  644TIP3    H2 1876   6.826   7.725   2.572
  645TIP3   OH2 1877   4.728   6.827   2.001
  645TIP3    H1 1878   4.775   6.881   2.065
  645TIP3    H2 1879   4.737   6.873   1.918
  646TIP3   OH2 1880   2.372   0.136   6.340
  646TIP3    H1 1881   2.456   0.111   6.378
  646TIP3    H2 1882   2.394   0.180   6.258
  647TIP3   OH2 1883   4.474   2.691   1.235
  647TIP3    H1 1884   4.566   2.708   1.254
  647TIP3    H2 1885   4.428   2.764   1.274
  648TIP3   OH2 1886   5.046   7.607   5.919
  648TIP3    H1 1887   5.089   7.609   6.005
  648TIP3    H2 1888   4.967   7.659   5.931
  649TIP3   OH2 1889   7.463   4.383   1.475
  649TIP3    H1 1890   7.522   4.419   1.408
  649TIP3    H2 1891   7.516   4.378   1.554
  650TIP3   OH2 1892   4.526   5.119   2.555
  650TIP3    H1 1893   4.575   5.038   2.570
  650TIP3    H2 1894   4.515   5.124   2.461
  651TIP3   OH2 1895   1.041   1.255   3.605
  651TIP3    H1 1896   1.075   1.219   3.523
  651TIP3    H2 1897   0.973   1.193   3.632
  652TIP3   OH2 1898   5.867   0.387   3.904
  652TIP3    H1 1899   5.786   0.411   3.949
  652TIP3    H2 1900   5.915   0.470   3.896
  653TIP3   OH2 1901   2.519   5.630   0.785
  653TIP3    H1 1902   2.525   5.542   0.748
  653TIP3    H2 1903   2.467   5.679   0.722
  654TIP3   OH2 1904   6.520   0.218   4.840
  654TIP3    H1 1905   6.510   0.250   4.750
  654TIP3    H2 1906   6.529   0.123   4.831
  655TIP3   OH2 1907   7.867   7.131   5.816
  655TIP3    H1 1908   7.800   7.156   5.880
  655TIP3    H2 1909   7.928   7.205   5.815
  656TIP3   OH2 1910   5.869   7.425   1.695
  656TIP3    H1 1911   5.916   7.507   1.715
  656TIP3    H2 1912   5.896   7.403   1.606
  657TIP3   OH2 1913   3.064   0.185   2.481
  657TIP3    H1 1914   3.065   0.274   2.448
  657TIP3    H2 1915   3.153   0.152   2.466
  658TIP3   OH2 1916   3.264   7.553   4.938
  658TIP3    H1 1917   3.272   7.640   4.977
  658TIP3    H2 1918   3.347   7.540   4.892
  659TIP3   OH2 1919   7.645   4.229   4.466
  659TIP3    H1 1920   7.594   4.230   4.385
  659TIP3    H2 1921   7.617   4.149   4.511
  660TIP3   OH2 1922   0.465   7.675   6.188
  660TIP3    H1 1923   0.452   7.767   6.164
  660TIP3    H2 1924   0.484   7.677   6.282
  661TIP3   OH2 1925   1.242   1.537   0.489
  661TIP3    H1 1926   1.281   1.505   0.408
  661TIP3    H2 1927   1.165   1.585   0.462
  662TIP3   OH2 1928   5.865   4.834   5.792
  662TIP3    H1 1929   5.784   4.832   5.742
  662TIP3    H2 1930   5.907   4.750   5.773
  663TIP3   OH2 1931   7.904   6.987   0.050
  663TIP3    H1 1932   7.820   6.943   0.037
  663TIP3    H2 1933   7.918   7.037  -0.031
  664TIP3   OH2 1934   3.030   2.938   3.635
  664TIP3    H1 1935   3.046   3.023   3.593
  664TIP3    H2 1936   3.034   2.957   3.729
  665TIP3   OH2 1937   3.556   5.471   5.340
  665TIP3    H1 1938   3.551   5.467   5.435
  665TIP3    H2 1939   3.498   5.402   5.309
  666TIP3   OH2 1940   7.545   5.051   4.062
  666TIP3    H1 1941   7.613   4.986   4.044
  666TIP3    H2 1942   7.537   5.052   4.157
  667TIP3   OH2 1943   7.923   2.190   1.244
  667TIP3    H1 1944   7.915   2.117   1.182
  667TIP3    H2 1945   7.954   2.263   1.191
  668TIP3   OH2 1946   4.463   1.056   4.580
  668TIP3    H1 1947   4.373   1.023   4.569
  668TIP3    H2 1948   4.517   0.994   4.531
  669TIP3   OH2 1949   6.653   2.626   3.841
  669TIP3    H1 1950   6.731   2.659   3.795
  669TIP3    H2 1951   6.676   2.632   3.934
  670TIP3   OH2 1952   6.684   3.153   1.659
  670TIP3    H1 1953   6.613   3.090   1.665
  670TIP3    H2 1954   6.692   3.171   1.565
  671TIP3   OH2 1955   1.806   5.275   2.013
  671TIP3    H1 1956   1.720   5.313   1.997
  671TIP3    H2 1957   1.789   5.202   2.073
  672TIP3   OH2 1958   3.023   0.553   1.512
  672TIP3    H1 1959   2.937   0.585   1.484
  672TIP3    H2 1960   3.006   0.514   1.599
  673TIP3   OH2 1961   6.214   7.662   0.648
  673TIP3    H1 1962   6.285   7.615   0.603
  673TIP3    H2 1963   6.195   7.609   0.725
  674TIP3   OH2 1964   1.837   1.388   1.808
  674TIP3    H1 1965   1.798   1.419   1.726
  674TIP3    H2 1966   1.927   1.368   1.785
  675TIP3   OH2 1967   0.058   3.627   4.478
  675TIP3    H1 1968   0.083   3.717   4.496
  675TIP3    H2 1969   0.121   3.597   4.412
  676TIP3   OH2 1970   6.745   0.814   6.083
  676TIP3    H1 1971   6.750   0.822   6.178
  676TIP3    H2 1972   6.834   0.832   6.053
  677TIP3   OH2 1973   0.735   2.748   0.450
  677TIP3    H1 1974   0.797   2.704   0.508
  677TIP3    H2 1975   0.650   2.710   0.473
  678TIP3   OH2 1976   8.049   1.660   3.676
  678TIP3    H1 1977   8.136   1.649   3.638
  678TIP3    H2 1978   8.046   1.751   3.705
  679TIP3   OH2 1979   4.701   0.906   5.677
  679TIP3    H1 1980   4.615   0.948   5.681
  679TIP3    H2 1981   4.697   0.850   5.600
  680TIP3   OH2 1982   8.215   4.415   6.523
  680TIP3    H1 1983   8.212   4.445   6.614
  680TIP3    H2 1984   8.125   4.393   6.502
  681TIP3   OH2 1985   4.780   7.125   2.703
  681TIP3    H1 1986   4.765   7.051   2.762
  681TIP3    H2 1987   4.777   7.202   2.760
  682TIP3   OH2 1988   3.050   5.200   5.507
  682TIP3    H1 1989   2.990   5.146   5.456
  682TIP3    H2 1990   3.107   5.241   5.442
  683TIP3   OH2 1991   6.307   3.328   1.112
  683TIP3    H1 1992   6.377   3.362   1.168
  683TIP3    H2 1993   6.330   3.236   1.099
  684TIP3   OH2 1994   3.107   0.503   0.372
  684TIP3    H1 1995   3.102   0.597   0.387
  684TIP3    H2 1996   3.016   0.472   0.381
  685TIP3   OH2 1997   0.655   6.170   3.046
  685TIP3    H1 1998   0.568   6.193   3.014
  685TIP3    H2 1999   0.642   6.091   3.098
  686TIP3   OH2 2000   5.564   0.645   0.997
  686TIP3    H1 2001   5.501   0.578   0.969
  686TIP3    H2 2002   5.649   0.600   0.992
  687TIP3   OH2 2003   7.454   5.195   1.265
  687TIP3    H1 2004   7.465   5.108   1.225
  687TIP3    H2 2005   7.476   5.182   1.357
  688TIP3   OH2 2006   2.217   1.653   2.949
  688TIP3    H1 2007   2.223   1.740   2.909
  688TIP3    H2 2008   2.159   1.604   2.891
  689TIP3   OH2 2009   0.111   3.941   0.641
  689TIP3    H1 2010   0.093   3.850   0.616
  689TIP3    H2 2011   0.171   3.972   0.573
  690TIP3   OH2 2012   0.235   2.389   5.349
  690TIP3    H1 2013   0.264   2.338   5.424
  690TIP3    H2 2014   0.153   2.347   5.322
  691TIP3   OH2 2015   0.385   0.215   3.021
  691TIP3    H1 2016   0.408   0.150   2.955
  691TIP3    H2 2017   0.344   0.286   2.971
  692TIP3   OH2 2018   6.673   4.873   0.516
  692TIP3    H1 2019   6.680   4.960   0.555
  692TIP3    H2 2020   6.724   4.816   0.573
  693TIP3   OH2 2021   3.878   4.717   4.095
  693TIP3    H1 2022   3.870   4.624   4.076
  693TIP3    H2 2023   3.816   4.733   4.166
  694TIP3   OH2 2024   0.225   6.828   5.853
  694TIP3    H1 2025   0.182   6.877   5.923
  694TIP3    H2 2026   0.254   6.747   5.895
  695TIP3   OH2 2027   6.064   0.285   6.212
  695TIP3    H1 2028   6.028   0.364   6.252
  695TIP3    H2 2029   6.151   0.311   6.182
  696TIP3   OH2 2030   5.411   5.433   0.696
  696TIP3    H1 2031   5.415   5.483   0.615
  696TIP3    H2 2032   5.503   5.420   0.720
  697TIP3   OH2 2033   7.576   7.116   2.965
  697TIP3    H1 2034   7.555   7.026   2.940
  697TIP3    H2 2035   7.659   7.109   3.012
  698TIP3   OH2 2036   1.078   5.603   5.109
  698TIP3    H1 2037   1.001   5.555   5.079
  698TIP3    H2 2038   1.050   5.643   5.191
  699TIP3   OH2 2039   5.712   2.063   2.915
  699TIP3    H1 2040   5.746   2.016   2.991
  699TIP3    H2 2041   5.624   2.089   2.940
  700TIP3   OH2 2042   2.613   7.763   2.814
  700TIP3    H1 2043   2.573   7.681   2.841
  700TIP3    H2 2044   2.705   7.743   2.800
  701TIP3   OH2 2045   8.057   4.556   5.504
  701TIP3    H1 2046   8.068   4.485   5.441
  701TIP3    H2 2047   7.990   4.612   5.464
  702TIP3   OH2 2048   5.995   1.441   0.013
  702TIP3    H1 2049   5.965   1.508  -0.049
  702TIP3    H2 2050   5.922   1.430   0.074
  703TIP3   OH2 2051   0.709   1.262   0.888
  703TIP3    H1 2052   0.736   1.331   0.827
  703TIP3    H2 2053   0.717   1.181   0.837
  704TIP3   OH2 2054   5.136   1.823   4.474
  704TIP3    H1 2055   5.222   1.820   4.433
  704TIP3    H2 2056   5.147   1.881   4.549
  705TIP3   OH2 2057   2.585   5.599   5.506
  705TIP3    H1 2058   2.672   5.626   5.478
  705TIP3    H2 2059   2.527   5.671   5.480
  706TIP3   OH2 2060   4.312   4.307   0.297
  706TIP3    H1 2061   4.379   4.375   0.290
  706TIP3    H2 2062   4.349   4.231   0.252
  707TIP3   OH2 2063   7.265   6.195   1.892
  707TIP3    H1 2064   7.214   6.252   1.835
  707TIP3    H2 2065   7.356   6.216   1.872
  708TIP3   OH2 2066   2.293   4.566   5.679
  708TIP3    H1 2067   2.336   4.505   5.619
  708TIP3    H2 2068   2.209   4.525   5.699
  709TIP3   OH2 2069   1.833   6.917   6.433
  709TIP3    H1 2070   1.921   6.955   6.440
  709TIP3    H2 2071   1.823   6.895   6.340
  710TIP3   OH2 2072   7.172   4.515   0.858
  710TIP3    H1 2073   7.250   4.535   0.807
  710TIP3    H2 2074   7.169   4.419   0.861
  711TIP3   OH2 2075   6.045   3.192   6.254
  711TIP3    H1 2076   6.013   3.275   6.221
  711TIP3    H2 2077   5.990   3.173   6.329
  712TIP3   OH2 2078   7.249   3.463   6.146
  712TIP3    H1 2079   7.263   3.430   6.057
  712TIP3    H2 2080   7.334   3.499   6.172
  713TIP3   OH2 2081   5.087   6.660   3.128
  713TIP3    H1 2082   5.158   6.709   3.085
  713TIP3    H2 2083   5.050   6.606   3.059
  714TIP3   OH2 2084   7.074   0.589   2.563
  714TIP3    H1 2085   7.028   0.671   2.580
  714TIP3    H2 2086   7.108   0.599   2.474
  715TIP3   OH2 2087   2.045   1.025   5.813
  715TIP3    H1 2088   1.980   1.012   5.882
  715TIP3    H2 2089   2.038   0.947   5.758
  716TIP3   OH2 2090   7.143   5.446   5.001
  716TIP3    H1 2091   7.056   5.450   5.042
  716TIP3    H2 2092   7.198   5.403   5.066
  717TIP3   OH2 2093   2.998   4.942   5.778
  717TIP3    H1 2094   2.964   4.885   5.709
  717TIP3    H2 2095   3.093   4.928   5.775
  718TIP3   OH2 2096   8.105   6.578   5.664
  718TIP3    H1 2097   8.196   6.602   5.683
  718TIP3    H2 2098   8.106   6.553   5.572
  719TIP3   OH2 2099   2.557   2.089   1.297
  719TIP3    H1 2100   2.461   2.087   1.290
  719TIP3    H2 2101   2.577   2.023   1.364
  720TIP3   OH2 2102   3.148   3.487   3.407
  720TIP3    H1 2103   3.071   3.431   3.399
  720TIP3    H2 2104   3.147   3.541   3.329
  721TIP3   OH2 2105   0.023   7.602   2.869
  721TIP3    H1 2106  -0.006   7.647   2.789
  721TIP3    H2 2107   0.004   7.510   2.852
  722TIP3   OH2 2108   6.872   4.282   3.266
  722TIP3    H1 2109   6.966   4.281   3.283
  722TIP3    H2 2110   6.842   4.364   3.307
  723TIP3   OH2 2111   1.359   2.146   4.079
  723TIP3    H1 2112   1.360   2.099   3.996
  723TIP3    H2 2113   1.338   2.079   4.144
  724TIP3   OH2 2114   1.707   0.216   3.273
  724TIP3    H1 2115   1.671   0.257   3.195
  724TIP3    H2 2116   1.789   0.176   3.243
  725TIP3   OH2 2117   5.542   4.632   5.528
  725TIP3    H1 2118   5.522   4.630   5.434
  725TIP3    H2 2119   5.582   4.717   5.542
  726TIP3   OH2 2120   5.378   3.513   5.107
  726TIP3    H1 2121   5.328   3.563   5.173
  726TIP3    H2 2122   5.339   3.426   5.110
  727TIP3   OH2 2123   3.746   2.597   0.216
  727TIP3    H1 2124   3.752   2.659   0.143
  727TIP3    H2 2125   3.680   2.534   0.188
  728TIP3   OH2 2126   4.518   5.601   2.277
  728TIP3    H1 2127   4.441   5.569   2.323
  728TIP3    H2 2128   4.517   5.696   2.292
  729TIP3   OH2 2129   2.361   4.248   1.805
  729TIP3    H1 2130   2.334   4.315   1.868
  729TIP3    H2 2131   2.363   4.294   1.721
  730TIP3   OH2 2132   1.118   2.970   3.622
  730TIP3    H1 2133   1.173   3.015   3.558
  730TIP3    H2 2134   1.122   2.878   3.595
  731TIP3   OH2 2135   7.869   1.536   6.662
  731TIP3    H1 2136   7.953   1.569   6.693
  731TIP3    H2 2137   7.885   1.510   6.571
  732TIP3   OH2 2138   6.913   7.274   4.840
  732TIP3    H1 2139   6.862   7.196   4.865
  732TIP3    H2 2140   6.980   7.240   4.781
  733TIP3   OH2 2141   4.522   0.909   3.857
  733TIP3    H1 2142   4.615   0.918   3.878
  733TIP3    H2 2143   4.502   0.986   3.803
  734TIP3   OH2 2144   5.212   0.134   6.254
  734TIP3    H1 2145   5.140   0.081   6.289
  734TIP3    H2 2146   5.169   0.202   6.202
  735TIP3   OH2 2147   4.580   0.360   4.670
  735TIP3    H1 2148   4.522   0.293   4.635
  735TIP3    H2 2149   4.538   0.388   4.752
  736TIP3   OH2 2150   0.643   5.631   4.480
  736TIP3    H1 2151   0.735   5.607   4.469
  736TIP3    H2 2152   0.610   5.644   4.391
  737TIP3   OH2 2153   0.638   0.247   1.081
  737TIP3    H1 2154   0.643   0.203   1.166
  737TIP3    H2 2155   0.668   0.336   1.098
  738TIP3   OH2 2156   0.123   0.601   5.409
  738TIP3    H1 2157   0.119   0.615   5.504
  738TIP3    H2 2158   0.033   0.579   5.384
  739TIP3   OH2 2159   5.143   1.577   6.512
  739TIP3    H1 2160   5.112   1.664   6.535
  739TIP3    H2 2161   5.239   1.585   6.508
  740TIP3   OH2 2162   5.805   2.340   6.480
  740TIP3    H1 2163   5.735   2.310   6.423
  740TIP3    H2 2164   5.858   2.398   6.425
  741TIP3   OH2 2165   6.953   2.052   1.346
  741TIP3    H1 2166   6.998   2.136   1.331
  741TIP3    H2 2167   7.006   1.988   1.300
  742TIP3   OH2 2168   3.563   5.480   4.662
  742TIP3    H1 2169   3.510   5.425   4.719
  742TIP3    H2 2170   3.502   5.514   4.597
  743TIP3   OH2 2171   2.182   7.716   4.496
  743TIP3    H1 2172   2.112   7.737   4.558
  743TIP3    H2 2173   2.236   7.795   4.493
  744TIP3   OH2 2174   6.848   4.860   2.993
  744TIP3    H1 2175   6.804   4.847   3.077
  744TIP3    H2 2176   6.940   4.875   3.017
  745TIP3   OH2 2177   7.206   7.288   6.031
  745TIP3    H1 2178   7.194   7.299   6.126
  745TIP3    H2 2179   7.128   7.241   6.002
  746TIP3   OH2 2180   5.613   4.232   5.092
  746TIP3    H1 2181   5.552   4.202   5.024
  746TIP3    H2 2182   5.689   4.265   5.043
  747TIP3   OH2 2183   0.617   1.933   1.588
  747TIP3    H1 2184   0.526   1.962   1.593
  747TIP3    H2 2185   0.648   1.936   1.678
  748TIP3   OH2 2186   0.040   3.988   0.270
  748TIP3    H1 2187   0.113   4.038   0.232
  748TIP3    H2 2188   0.080   3.928   0.331
  749TIP3   OH2 2189   1.644   1.411   5.839
  749TIP3    H1 2190   1.600   1.493   5.815
  749TIP3    H2 2191   1.737   1.430   5.827
  750TIP3   OH2 2192   3.089   5.518   2.574
  750TIP3    H1 2193   3.128   5.441   2.534
  750TIP3    H2 2194   3.014   5.484   2.624
  751TIP3   OH2 2195   3.239   2.379   1.820
  751TIP3    H1 2196   3.308   2.417   1.874
  751TIP3    H2 2197   3.167   2.363   1.881
  752TIP3   OH2 2198   6.690   1.970   4.112
  752TIP3    H1 2199   6.604   1.929   4.100
  752TIP3    H2 2200   6.752   1.905   4.080
  753TIP3   OH2 2201   7.010   5.853   1.454
  753TIP3    H1 2202   6.951   5.842   1.380
  753TIP3    H2 2203   6.956   5.832   1.531
  754TIP3   OH2 2204   7.256   6.143   1.294
  754TIP3    H1 2205   7.301   6.141   1.378
  754TIP3    H2 2206   7.246   6.236   1.274
  755TIP3   OH2 2207   2.896   7.418   1.288
  755TIP3    H1 2208   2.950   7.415   1.367
  755TIP3    H2 2209   2.808   7.437   1.320
  756TIP3   OH2 2210   0.977   2.580   4.199
  756TIP3    H1 2211   0.895   2.627   4.186
  756TIP3    H2 2212   0.982   2.566   4.294
  757TIP3   OH2 2213   6.611   2.890   2.018
  757TIP3    H1 2214   6.524   2.852   2.025
  757TIP3    H2 2215   6.657   2.860   2.097
  758TIP3   OH2 2216   4.903   5.584   5.050
  758TIP3    H1 2217   4.886   5.490   5.057
  758TIP3    H2 2218   4.981   5.590   4.994
  759TIP3   OH2 2219   1.519   2.725   0.841
  759TIP3    H1 2220   1.603   2.687   0.867
  759TIP3    H2 2221   1.480   2.755   0.923
  760TIP3   OH2 2222   5.746   4.753   1.515
  760TIP3    H1 2223   5.799   4.746   1.436
  760TIP3    H2 2224   5.798   4.710   1.583
  761TIP3   OH2 2225   5.518   4.546   2.478
  761TIP3    H1 2226   5.568   4.612   2.526
  761TIP3    H2 2227   5.504   4.586   2.392
  762TIP3   OH2 2228   3.410   2.910   6.649
  762TIP3    H1 2229   3.414   2.998   6.685
  762TIP3    H2 2230   3.333   2.871   6.690
  763TIP3   OH2 2231   3.922   5.805   2.034
  763TIP3    H1 2232   3.830   5.826   2.023
  763TIP3    H2 2233   3.968   5.879   1.994
  764TIP3   OH2 2234   7.297   7.662   4.118
  764TIP3    H1 2235   7.327   7.729   4.180
  764TIP3    H2 2236   7.364   7.594   4.122
  765TIP3   OH2 2237   7.026   0.433   3.185
  765TIP3    H1 2238   7.004   0.356   3.238
  765TIP3    H2 2239   6.941   0.464   3.151
  766TIP3   OH2 2240   1.219   1.204   0.554
  766TIP3    H1 2241   1.244   1.157   0.475
  766TIP3    H2 2242   1.211   1.295   0.527
  767TIP3   OH2 2243   0.145   7.003   4.589
  767TIP3    H1 2244   0.088   7.064   4.636
  767TIP3    H2 2245   0.085   6.937   4.554
  768TIP3   OH2 2246   5.366   0.378   1.679
  768TIP3    H1 2247   5.320   0.351   1.758
  768TIP3    H2 2248   5.334   0.466   1.662
  769TIP3   OH2 2249   4.474   6.960   3.832
  769TIP3    H1 2250   4.550   7.007   3.866
  769TIP3    H2 2251   4.491   6.950   3.738
  770TIP3   OH2 2252   4.345   2.172   3.296
  770TIP3    H1 2253   4.269   2.163   3.239
  770TIP3    H2 2254   4.420   2.169   3.237
  771TIP3   OH2 2255   2.398   6.418   2.972
  771TIP3    H1 2256   2.462   6.404   3.042
  771TIP3    H2 2257   2.416   6.507   2.941
  772TIP3   OH2 2258   4.971   1.852   3.054
  772TIP3    H1 2259   5.024   1.905   3.114
  772TIP3    H2 2260   4.931   1.916   2.995
  773TIP3   OH2 2261   0.060   4.737   6.657
  773TIP3    H1 2262   0.096   4.711   6.572
  773TIP3    H2 2263   0.004   4.663   6.683
  774TIP3   OH2 2264   3.762   2.607   1.209
  774TIP3    H1 2265   3.754   2.553   1.288
  774TIP3    H2 2266   3.835   2.567   1.161
  775TIP3   OH2 2267   0.958   1.219   4.060
  775TIP3    H1 2268   0.910   1.239   4.141
  775TIP3    H2 2269   1.029   1.284   4.058
  776TIP3   OH2 2270   4.628   5.435   5.423
  776TIP3    H1 2271   4.720   5.449   5.445
  776TIP3    H2 2272   4.585   5.518   5.443
  777TIP3   OH2 2273   2.729   7.423   5.451
  777TIP3    H1 2274   2.755   7.404   5.360
  777TIP3    H2 2275   2.801   7.475   5.486
  778TIP3   OH2 2276   4.969   6.345   6.371
  778TIP3    H1 2277   5.030   6.286   6.327
  778TIP3    H2 2278   4.908   6.287   6.417
  779TIP3   OH2 2279   2.229   1.762   2.617
  779TIP3    H1 2280   2.175   1.841   2.619
  779TIP3    H2 2281   2.176   1.697   2.571
  780TIP3   OH2 2282   0.151   2.583   2.676
  780TIP3    H1 2283   0.208   2.639   2.729
  780TIP3    H2 2284   0.184   2.592   2.587
  781TIP3   OH2 2285   3.365   0.740   3.862
  781TIP3    H1 2286   3.419   0.663   3.849
  781TIP3    H2 2287   3.341   0.768   3.774
  782TIP3   OH2 2288   2.098   4.598   3.242
  782TIP3    H1 2289   2.104   4.653   3.164
  782TIP3    H2 2290   2.060   4.655   3.309
  783TIP3   OH2 2291   0.720   5.581   0.989
  783TIP3    H1 2292   0.694   5.660   1.037
  783TIP3    H2 2293   0.641   5.556   0.940
  784TIP3   OH2 2294   1.254   1.320   1.184
  784TIP3    H1 2295   1.339   1.342   1.222
  784TIP3    H2 2296   1.276   1.280   1.099
  785TIP3   OH2 2297   2.525   4.747   0.046
  785TIP3    H1 2298   2.514   4.657   0.075
  785TIP3    H2 2299   2.581   4.787   0.111
  786TIP3   OH2 2300   3.141   0.872   2.726
  786TIP3    H1 2301   3.109   0.949   2.775
  786TIP3    H2 2302   3.169   0.811   2.794
  787TIP3   OH2 2303   1.797   3.938   3.826
  787TIP3    H1 2304   1.870   3.876   3.829
  787TIP3    H2 2305   1.772   3.951   3.917
  788TIP3   OH2 2306   2.684   6.049   5.195
  788TIP3    H1 2307   2.762   6.028   5.145
  788TIP3    H2 2308   2.635   6.111   5.140
  789TIP3   OH2 2309   6.498   7.356   0.048
  789TIP3    H1 2310   6.534   7.409   0.120
  789TIP3    H2 2311   6.472   7.274   0.090
  790TIP3   OH2 2312   7.416   6.480   3.849
  790TIP3    H1 2313   7.332   6.457   3.890
  790TIP3    H2 2314   7.393   6.503   3.759
  791TIP3   OH2 2315   5.165   5.155   5.323
  791TIP3    H1 2316   5.098   5.127   5.262
  791TIP3    H2 2317   5.129   5.233   5.365
  792TIP3   OH2 2318   7.838   0.634   4.223
  792TIP3    H1 2319   7.763   0.694   4.217
  792TIP3    H2 2320   7.865   0.621   4.132
  793TIP3   OH2 2321   6.544   5.626   6.772
  793TIP3    H1 2322   6.610   5.632   6.840
  793TIP3    H2 2323   6.576   5.558   6.713
  794TIP3   OH2 2324   2.171   2.801   4.214
  794TIP3    H1 2325   2.083   2.778   4.183
  794TIP3    H2 2326   2.176   2.896   4.205
  795TIP3   OH2 2327   1.227   5.064   0.107
  795TIP3    H1 2328   1.224   5.143   0.161
  795TIP3    H2 2329   1.140   5.025   0.117
  796TIP3   OH2 2330   0.250   7.193   6.614
  796TIP3    H1 2331   0.267   7.194   6.708
  796TIP3    H2 2332   0.158   7.169   6.606
  797TIP3   OH2 2333   6.871   3.976   1.951
  797TIP3    H1 2334   6.861   4.063   1.989
  797TIP3    H2 2335   6.910   3.923   2.021
  798TIP3   OH2 2336   0.788   1.538   1.794
  798TIP3    H1 2337   0.843   1.571   1.865
  798TIP3    H2 2338   0.774   1.445   1.816
  799TIP3   OH2 2339   7.100   5.529   5.990
  799TIP3    H1 2340   7.036   5.551   6.058
  799TIP3    H2 2341   7.157   5.463   6.031
  800TIP3   OH2 2342   4.456   6.548   0.426
  800TIP3    H1 2343   4.520   6.619   0.433
  800TIP3    H2 2344   4.382   6.588   0.380
  801TIP3   OH2 2345   2.563   3.795   2.157
  801TIP3    H1 2346   2.499   3.865   2.149
  801TIP3    H2 2347   2.617   3.802   2.077
  802TIP3   OH2 2348   2.245   2.914   3.040
  802TIP3    H1 2349   2.198   2.831   3.037
  802TIP3    H2 2350   2.312   2.901   3.107
  803TIP3   OH2 2351   4.986   1.291   2.275
  803TIP3    H1 2352   4.936   1.218   2.239
  803TIP3    H2 2353   4.921   1.348   2.315
  804TIP3   OH2 2354   4.039   2.471   4.960
  804TIP3    H1 2355   3.958   2.419   4.956
  804TIP3    H2 2356   4.101   2.415   5.006
  805TIP3   OH2 2357   6.518   0.165   2.598
  805TIP3    H1 2358   6.528   0.080   2.555
  805TIP3    H2 2359   6.487   0.223   2.529
  806TIP3   OH2 2360   6.741   1.594   1.017
  806TIP3    H1 2361   6.744   1.663   1.084
  806TIP3    H2 2362   6.805   1.530   1.045
  807TIP3   OH2 2363   3.860   6.200   6.638
  807TIP3    H1 2364   3.872   6.143   6.561
  807TIP3    H2 2365   3.943   6.247   6.645
  808TIP3   OH2 2366   5.265   6.373   1.191
  808TIP3    H1 2367   5.209   6.311   1.238
  808TIP3    H2 2368   5.310   6.319   1.126
  809TIP3   OH2 2369   2.367   0.513   2.946
  809TIP3    H1 2370   2.415   0.594   2.961
  809TIP3    H2 2371   2.435   0.446   2.935
  810TIP3   OH2 2372   6.432   3.790   4.118
  810TIP3    H1 2373   6.503   3.786   4.054
  810TIP3    H2 2374   6.371   3.720   4.092
  811TIP3   OH2 2375   5.104   0.137   1.249
  811TIP3    H1 2376   5.023   0.097   1.279
  811TIP3    H2 2377   5.143   0.175   1.328
  812TIP3   OH2 2378   6.950   7.612   3.292
  812TIP3    H1 2379   6.857   7.630   3.283
  812TIP3    H2 2380   6.989   7.696   3.316
  813TIP3   OH2 2381   3.998   3.220   2.075
  813TIP3    H1 2382   3.921   3.264   2.112
  813TIP3    H2 2383   3.995   3.132   2.112
  814TIP3   OH2 2384   0.827   2.721   5.735
  814TIP3    H1 2385   0.842   2.626   5.737
  814TIP3    H2 2386   0.913   2.760   5.751
  815TIP3   OH2 2387   1.568   6.863   2.056
  815TIP3    H1 2388   1.619   6.785   2.080
  815TIP3    H2 2389   1.496   6.864   2.119
  816TIP3   OH2 2390   0.998   3.231   2.445
  816TIP3    H1 2391   0.959   3.253   2.530
  816TIP3    H2 2392   1.077   3.181   2.468
  817TIP3   OH2 2393   1.000   1.142   4.939
  817TIP3    H1 2394   1.065   1.077   4.967
  817TIP3    H2 2395   0.936   1.092   4.888
  818TIP3   OH2 2396   7.983   3.291   1.768
  818TIP3    H1 2397   7.891   3.271   1.786
  818TIP3    H2 2398   7.985   3.386   1.756
  819TIP3   OH2 2399   5.340   2.053   3.328
  819TIP3    H1 2400   5.335   1.981   3.391
  819TIP3    H2 2401   5.380   2.014   3.250
  820TIP3   OH2 2402   6.116   1.523   3.745
  820TIP3    H1 2403   6.150   1.490   3.829
  820TIP3    H2 2404   6.086   1.445   3.699
  821TIP3   OH2 2405   7.124   2.600   3.813
  821TIP3    H1 2406   7.107   2.506   3.821
  821TIP3    H2 2407   7.209   2.612   3.856
  822TIP3   OH2 2408   6.431   1.158   4.653
  822TIP3    H1 2409   6.354   1.204   4.687
  822TIP3    H2 2410   6.396   1.075   4.621
  823TIP3   OH2 2411   5.620   6.566   1.849
  823TIP3    H1 2412   5.654   6.549   1.761
  823TIP3    H2 2413   5.676   6.514   1.907
  824TIP3   OH2 2414   1.440   6.826   5.066
  824TIP3    H1 2415   1.506   6.895   5.058
  824TIP3    H2 2416   1.463   6.780   5.147
  825TIP3   OH2 2417   5.557   1.361   2.569
  825TIP3    H1 2418   5.546   1.454   2.550
  825TIP3    H2 2419   5.524   1.351   2.659
  826TIP3   OH2 2420   0.098   7.170   3.676
  826TIP3    H1 2421   0.171   7.108   3.672
  826TIP3    H2 2422   0.139   7.254   3.697
  827TIP3   OH2 2423   0.183   6.918   5.265
  827TIP3    H1 2424   0.159   6.885   5.179
  827TIP3    H2 2425   0.216   6.841   5.312
  828TIP3   OH2 2426   5.094   7.757   4.895
  828TIP3    H1 2427   5.153   7.826   4.863
  828TIP3    H2 2428   5.064   7.789   4.980
  829TIP3   OH2 2429   0.669   2.414   6.476
  829TIP3    H1 2430   0.605   2.369   6.420
  829TIP3    H2 2431   0.628   2.415   6.562
  830TIP3   OH2 2432   2.303   7.195   5.731
  830TIP3    H1 2433   2.263   7.282   5.735
  830TIP3    H2 2434   2.363   7.199   5.657
  831TIP3   OH2 2435   1.956   1.889   6.687
  831TIP3    H1 2436   1.872   1.935   6.685
  831TIP3    H2 2437   1.947   1.826   6.758
  832TIP3   OH2 2438   2.434   4.127   5.597
  832TIP3    H1 2439   2.405   4.083   5.517
  832TIP3    H2 2440   2.392   4.076   5.667
  833TIP3   OH2 2441   0.934   2.961   3.341
  833TIP3    H1 2442   0.955   3.053   3.357
  833TIP3    H2 2443   0.916   2.925   3.428
  834TIP3   OH2 2444   2.626   1.972   4.583
  834TIP3    H1 2445   2.712   1.939   4.556
  834TIP3    H2 2446   2.563   1.912   4.544
  835TIP3   OH2 2447   6.045   7.675   6.157
  835TIP3    H1 2448   5.993   7.742   6.201
  835TIP3    H2 2449   6.008   7.592   6.188
  836TIP3   OH2 2450   6.359   2.548   4.384
  836TIP3    H1 2451   6.343   2.615   4.317
  836TIP3    H2 2452   6.434   2.499   4.351
  837TIP3   OH2 2453   2.604   1.684   6.489
  837TIP3    H1 2454   2.581   1.611   6.546
  837TIP3    H2 2455   2.524   1.702   6.439
  838TIP3   OH2 2456   4.084   4.583   4.265
  838TIP3    H1 2457   4.005   4.559   4.216
  838TIP3    H2 2458   4.102   4.507   4.319
  839TIP3   OH2 2459   7.369   0.783   4.379
  839TIP3    H1 2460   7.309   0.815   4.447
  839TIP3    H2 2461   7.456   0.810   4.410
  840TIP3   OH2 2462   6.123   2.647   1.004
  840TIP3    H1 2463   6.093   2.730   0.966
  840TIP3    H2 2464   6.165   2.601   0.931
  841TIP3   OH2 2465   7.329   1.525   0.289
  841TIP3    H1 2466   7.314   1.483   0.204
  841TIP3    H2 2467   7.401   1.476   0.328
  842TIP3   OH2 2468   7.742   6.100   1.730
  842TIP3    H1 2469   7.773   6.190   1.719
  842TIP3    H2 2470   7.822   6.048   1.736
  843TIP3   OH2 2471   0.968   6.907   5.219
  843TIP3    H1 2472   1.013   6.862   5.290
  843TIP3    H2 2473   1.039   6.941   5.163
  844TIP3   OH2 2474   1.217   0.825   1.331
  844TIP3    H1 2475   1.206   0.883   1.405
  844TIP3    H2 2476   1.215   0.882   1.254
  845TIP3   OH2 2477   6.866   5.584   6.191
  845TIP3    H1 2478   6.858   5.489   6.197
  845TIP3    H2 2479   6.793   5.617   6.244
  846TIP3   OH2 2480   8.167   6.070   6.356
  846TIP3    H1 2481   8.180   5.976   6.370
  846TIP3    H2 2482   8.072   6.081   6.354
  847TIP3   OH2 2483   3.575   5.288   3.843
  847TIP3    H1 2484   3.626   5.226   3.894
  847TIP3    H2 2485   3.614   5.373   3.863
  848TIP3   OH2 2486   6.210   5.404   0.126
  848TIP3    H1 2487   6.257   5.413   0.043
  848TIP3    H2 2488   6.275   5.369   0.186
  849TIP3   OH2 2489   3.330   0.091   2.406
  849TIP3    H1 2490   3.321   0.026   2.476
  849TIP3    H2 2491   3.340   0.039   2.326
  850TIP3   OH2 2492   6.086   0.050   3.204
  850TIP3    H1 2493   6.129   0.120   3.155
  850TIP3    H2 2494   6.134  -0.029   3.179
  851TIP3   OH2 2495   3.760   2.293   3.739
  851TIP3    H1 2496   3.751   2.366   3.678
  851TIP3    H2 2497   3.771   2.216   3.684
  852TIP3   OH2 2498   1.171   5.297   1.063
  852TIP3    H1 2499   1.161   5.372   1.122
  852TIP3    H2 2500   1.256   5.259   1.087
  853TIP3   OH2 2501   3.047   3.750   6.011
  853TIP3    H1 2502   3.088   3.709   5.935
  853TIP3    H2 2503   3.084   3.704   6.086
  854TIP3   OH2 2504   4.456   6.901   6.002
  854TIP3    H1 2505   4.401   6.828   6.032
  854TIP3    H2 2506   4.401   6.978   6.014
  855TIP3   OH2 2507   7.818   6.866   4.340
  855TIP3    H1 2508   7.807   6.946   4.391
  855TIP3    H2 2509   7.826   6.896   4.249
  856TIP3   OH2 2510   0.112   0.393   4.553
  856TIP3    H1 2511   0.134   0.485   4.539
  856TIP3    H2 2512   0.194   0.352   4.581
  857TIP3   OH2 2513   7.879   5.718   6.704
  857TIP3    H1 2514   7.859   5.806   6.733
  857TIP3    H2 2515   7.929   5.679   6.777
  858TIP3   OH2 2516   4.967   4.417   2.131
  858TIP3    H1 2517   4.951   4.329   2.096
  858TIP3    H2 2518   4.888   4.438   2.180
  859TIP3   OH2 2519   7.491   4.614   6.524
  859TIP3    H1 2520   7.463   4.600   6.433
  859TIP3    H2 2521   7.430   4.680   6.558
  860TIP3   OH2 2522   6.561   6.524   3.311
  860TIP3    H1 2523   6.622   6.456   3.282
  860TIP3    H2 2524   6.585   6.539   3.403
  861TIP3   OH2 2525   6.403   3.677   5.244
  861TIP3    H1 2526   6.438   3.730   5.316
  861TIP3    H2 2527   6.313   3.709   5.233
  862TIP3   OH2 2528   4.582   1.912   4.718
  862TIP3    H1 2529   4.556   1.889   4.807
  862TIP3    H2 2530   4.669   1.873   4.708
  863TIP3   OH2 2531   3.695   6.487   5.032
  863TIP3    H1 2532   3.657   6.574   5.020
  863TIP3    H2 2533   3.656   6.433   4.964
  864TIP3   OH2 2534   3.782   4.523   5.605
  864TIP3    H1 2535   3.705   4.478   5.639
  864TIP3    H2 2536   3.760   4.541   5.514
  865TIP3   OH2 2537   0.218   4.810   0.425
  865TIP3    H1 2538   0.272   4.774   0.495
  865TIP3    H2 2539   0.141   4.753   0.423
  866TIP3   OH2 2540   0.839   3.478   1.768
  866TIP3    H1 2541   0.864   3.386   1.779
  866TIP3    H2 2542   0.919   3.527   1.789
  867TIP3   OH2 2543   6.596   3.333   3.921
  867TIP3    H1 2544   6.504   3.307   3.923
  867TIP3    H2 2545   6.644   3.253   3.900
  868TIP3   OH2 2546   2.519   4.656   5.382
  868TIP3    H1 2547   2.459   4.701   5.322
  868TIP3    H2 2548   2.465   4.589   5.424
  869TIP3   OH2 2549   4.023   3.889   1.450
  869TIP3    H1 2550   3.970   3.942   1.390
  869TIP3    H2 2551   3.994   3.917   1.537
  870TIP3   OH2 2552   2.744   4.583   4.099
  870TIP3    H1 2553   2.657   4.542   4.097
  870TIP3    H2 2554   2.781   4.566   4.012
  871TIP3   OH2 2555   7.769   6.041   1.209
  871TIP3    H1 2556   7.814   6.017   1.129
  871TIP3    H2 2557   7.823   6.004   1.279
  872TIP3   OH2 2558   6.516   3.905   1.356
  872TIP3    H1 2559   6.594   3.958   1.375
  872TIP3    H2 2560   6.546   3.841   1.291
  873TIP3   OH2 2561   6.755   4.198   5.047
  873TIP3    H1 2562   6.685   4.234   5.100
  873TIP3    H2 2563   6.737   4.229   4.958
  874TIP3   OH2 2564   8.029   3.812   6.548
  874TIP3    H1 2565   7.990   3.782   6.630
  874TIP3    H2 2566   8.116   3.843   6.573
  875TIP3   OH2 2567   0.795   6.528   2.781
  875TIP3    H1 2568   0.718   6.471   2.790
  875TIP3    H2 2569   0.856   6.495   2.847
  876TIP3   OH2 2570   2.601   5.327   4.123
  876TIP3    H1 2571   2.683   5.341   4.170
  876TIP3    H2 2572   2.616   5.367   4.037
  877TIP3   OH2 2573   4.075   7.535   0.892
  877TIP3    H1 2574   4.160   7.558   0.928
  877TIP3    H2 2575   4.017   7.605   0.921
  878TIP3   OH2 2576   4.623   3.013   1.879
  878TIP3    H1 2577   4.592   3.100   1.903
  878TIP3    H2 2578   4.689   2.992   1.945
  879TIP3   OH2 2579   7.706   5.030   6.106
  879TIP3    H1 2580   7.687   5.082   6.184
  879TIP3    H2 2581   7.640   5.058   6.042
  880TIP3   OH2 2582   0.403   3.696   1.271
  880TIP3    H1 2583   0.361   3.710   1.356
  880TIP3    H2 2584   0.453   3.615   1.281
  881TIP3   OH2 2585   2.365   6.799   0.100
  881TIP3    H1 2586   2.376   6.888   0.134
  881TIP3    H2 2587   2.440   6.750   0.135
  882TIP3   OH2 2588   4.053   2.721   5.185
  882TIP3    H1 2589   4.027   2.631   5.206
  882TIP3    H2 2590   4.045   2.726   5.090
  883TIP3   OH2 2591   3.709   2.003   5.544
  883TIP3    H1 2592   3.728   1.916   5.510
  883TIP3    H2 2593   3.625   2.027   5.504
  884TIP3   OH2 2594   0.537   4.318   4.629
  884TIP3    H1 2595   0.498   4.402   4.603
  884TIP3    H2 2596   0.464   4.256   4.625
  885TIP3   OH2 2597   4.765   0.344   3.481
  885TIP3    H1 2598   4.779   0.438   3.494
  885TIP3    H2 2599   4.756   0.334   3.387
  886TIP3   OH2 2600   7.408   4.347   3.032
  886TIP3    H1 2601   7.463   4.304   2.966
  886TIP3    H2 2602   7.329   4.372   2.983
  887TIP3   OH2 2603   2.936   4.170   4.959
  887TIP3    H1 2604   2.957   4.133   5.044
  887TIP3    H2 2605   3.021   4.197   4.923
  888TIP3   OH2 2606   5.653   2.642   0.364
  888TIP3    H1 2607   5.700   2.724   0.380
  888TIP3    H2 2608   5.719   2.573   0.377
  889TIP3   OH2 2609   7.456   1.101   5.714
  889TIP3    H1 2610   7.409   1.025   5.679
  889TIP3    H2 2611   7.389   1.168   5.724
  890TIP3   OH2 2612   6.154   2.486   1.548
  890TIP3    H1 2613   6.131   2.394   1.553
  890TIP3    H2 2614   6.181   2.500   1.457
  891TIP3   OH2 2615   7.157   2.217   6.105
  891TIP3    H1 2616   7.094   2.195   6.173
  891TIP3    H2 2617   7.167   2.136   6.055
  892TIP3   OH2 2618   5.408   3.581   6.338
  892TIP3    H1 2619   5.502   3.595   6.330
  892TIP3    H2 2620   5.368   3.661   6.302
  893TIP3   OH2 2621   0.717   1.890   2.421
  893TIP3    H1 2622   0.640   1.834   2.408
  893TIP3    H2 2623   0.776   1.867   2.349
  894TIP3   OH2 2624   7.286   2.972   4.084
  894TIP3    H1 2625   7.213   2.952   4.143
  894TIP3    H2 2626   7.326   2.887   4.066
  895TIP3   OH2 2627   7.250   5.548   2.857
  895TIP3    H1 2628   7.170   5.590   2.890
  895TIP3    H2 2629   7.321   5.598   2.898
  896TIP3   OH2 2630   7.495   7.284   0.338
  896TIP3    H1 2631   7.409   7.324   0.350
  896TIP3    H2 2632   7.476   7.191   0.328
  897TIP3   OH2 2633   1.066   0.996   6.162
  897TIP3    H1 2634   1.110   0.914   6.184
  897TIP3    H2 2635   1.048   1.037   6.246
  898TIP3   OH2 2636   6.746   1.051   3.285
  898TIP3    H1 2637   6.811   1.114   3.314
  898TIP3    H2 2638   6.724   1.078   3.195
  899TIP3   OH2 2639   7.233   0.168   1.269
  899TIP3    H1 2640   7.261   0.139   1.356
  899TIP3    H2 2641   7.140   0.146   1.264
  900TIP3   OH2 2642   7.598   2.315   5.160
  900TIP3    H1 2643   7.536   2.255   5.201
  900TIP3    H2 2644   7.678   2.263   5.149
  901TIP3   OH2 2645   2.442   4.059   2.036
  901TIP3    H1 2646   2.365   4.003   2.043
  901TIP3    H2 2647   2.422   4.119   1.964
  902TIP3   OH2 2648   4.432   6.530   3.557
  902TIP3    H1 2649   4.404   6.570   3.475
  902TIP3    H2 2650   4.520   6.498   3.540
  903TIP3   OH2 2651   4.897   3.721   0.812
  903TIP3    H1 2652   4.854   3.784   0.869
  903TIP3    H2 2653   4.971   3.769   0.774
  904TIP3   OH2 2654   4.398   6.781   4.326
  904TIP3    H1 2655   4.433   6.738   4.403
  904TIP3    H2 2656   4.411   6.719   4.255
  905TIP3   OH2 2657   0.776   4.893   4.398
  905TIP3    H1 2658   0.741   4.827   4.338
  905TIP3    H2 2659   0.703   4.912   4.458
  906TIP3   OH2 2660   5.480   3.370   3.495
  906TIP3    H1 2661   5.450   3.292   3.449
  906TIP3    H2 2662   5.560   3.396   3.449
  907TIP3   OH2 2663   4.773   5.275   3.492
  907TIP3    H1 2664   4.839   5.206   3.494
  907TIP3    H2 2665   4.813   5.348   3.541
  908TIP3   OH2 2666   4.903   0.795   2.099
  908TIP3    H1 2667   4.941   0.720   2.054
  908TIP3    H2 2668   4.814   0.801   2.064
  909TIP3   OH2 2669   6.415   6.323   0.738
  909TIP3    H1 2670   6.470   6.304   0.813
  909TIP3    H2 2671   6.326   6.306   0.768
  910TIP3   OH2 2672   1.678   2.152   3.265
  910TIP3    H1 2673   1.676   2.086   3.195
  910TIP3    H2 2674   1.758   2.134   3.314
  911TIP3   OH2 2675   5.863   1.808   4.306
  911TIP3    H1 2676   5.804   1.883   4.312
  911TIP3    H2 2677   5.883   1.801   4.213
  912TIP3   OH2 2678   5.121   1.228   4.147
  912TIP3    H1 2679   5.129   1.195   4.057
  912TIP3    H2 2680   5.027   1.226   4.165
  913TIP3   OH2 2681   0.940   0.370   0.871
  913TIP3    H1 2682   0.938   0.376   0.966
  913TIP3    H2 2683   0.870   0.428   0.841
  914TIP3   OH2 2684   4.984   1.307   3.905
  914TIP3    H1 2685   4.909   1.297   3.963
  914TIP3    H2 2686   4.976   1.235   3.843
  915TIP3   OH2 2687   0.173   3.825   4.001
  915TIP3    H1 2688   0.180   3.894   3.935
  915TIP3    H2 2689   0.247   3.839   4.060
  916TIP3   OH2 2690   7.187   5.282   4.060
  916TIP3    H1 2691   7.196   5.200   4.011
  916TIP3    H2 2692   7.126   5.261   4.131
  917TIP3   OH2 2693   4.178   4.257   2.134
  917TIP3    H1 2694   4.131   4.313   2.073
  917TIP3    H2 2695   4.122   4.180   2.144
  918TIP3   OH2 2696   3.190   3.485   3.801
  918TIP3    H1 2697   3.206   3.572   3.764
  918TIP3    H2 2698   3.265   3.433   3.772
  919TIP3   OH2 2699   1.613   2.344   4.655
  919TIP3    H1 2700   1.681   2.282   4.629
  919TIP3    H2 2701   1.647   2.430   4.631
  920TIP3   OH2 2702   3.993   6.328   4.489
  920TIP3    H1 2703   3.931   6.388   4.531
  920TIP3    H2 2704   4.041   6.289   4.563
  921TIP3   OH2 2705   2.056   2.439   5.830
  921TIP3    H1 2706   2.098   2.433   5.744
  921TIP3    H2 2707   1.963   2.450   5.810
  922TIP3   OH2 2708   7.144   0.196   5.474
  922TIP3    H1 2709   7.118   0.207   5.383
  922TIP3    H2 2710   7.196   0.274   5.493
  923TIP3   OH2 2711   1.200   1.999   3.286
  923TIP3    H1 2712   1.176   2.076   3.338
  923TIP3    H2 2713   1.178   2.022   3.196
  924TIP3   OH2 2714   0.252   6.922   3.675
  924TIP3    H1 2715   0.299   6.855   3.724
  924TIP3    H2 2716   0.168   6.882   3.654
  925TIP3   OH2 2717   4.900   7.109   6.561
  925TIP3    H1 2718   4.981   7.142   6.599
  925TIP3    H2 2719   4.882   7.167   6.488
  926TIP3   OH2 2720   7.137   6.693   4.574
  926TIP3    H1 2721   7.179   6.607   4.570
  926TIP3    H2 2722   7.064   6.681   4.635
  927TIP3   OH2 2723   5.940   3.289   3.779
  927TIP3    H1 2724   5.970   3.380   3.784
  927TIP3    H2 2725   6.017   3.237   3.802
  928TIP3   OH2 2726   0.873   3.388   5.296
  928TIP3    H1 2727   0.783   3.371   5.267
  928TIP3    H2 2728   0.911   3.301   5.307
  929TIP3   OH2 2729   4.026   3.746   1.977
  929TIP3    H1 2730   4.030   3.722   1.885
  929TIP3    H2 2731   3.994   3.667   2.021
  930TIP3   OH2 2732   1.124   4.332   6.671
  930TIP3    H1 2733   1.191   4.334   6.740
  930TIP3    H2 2734   1.082   4.418   6.676
  931TIP3   OH2 2735   0.868   1.916   3.716
  931TIP3    H1 2736   0.795   1.970   3.686
  931TIP3    H2 2737   0.938   1.978   3.734
  932TIP3   OH2 2738   1.207   3.702   1.575
  932TIP3    H1 2739   1.299   3.728   1.571
  932TIP3    H2 2740   1.209   3.606   1.574
  933TIP3   OH2 2741   3.862   3.001   3.887
  933TIP3    H1 2742   3.770   2.980   3.902
  933TIP3    H2 2743   3.905   2.916   3.876
  934TIP3   OH2 2744   1.460   6.649   1.804
  934TIP3    H1 2745   1.553   6.644   1.785
  934TIP3    H2 2746   1.452   6.621   1.896
  935TIP3   OH2 2747   6.896   4.713   1.174
  935TIP3    H1 2748   6.915   4.801   1.142
  935TIP3    H2 2749   6.840   4.728   1.251
  936TIP3   OH2 2750   4.581   2.411   5.494
  936TIP3    H1 2751   4.510   2.447   5.441
  936TIP3    H2 2752   4.653   2.473   5.484
  937TIP3   OH2 2753   1.491   7.538   2.055
  937TIP3    H1 2754   1.541   7.491   1.989
  937TIP3    H2 2755   1.403   7.500   2.051
  938TIP3   OH2 2756   2.082   6.875   6.249
  938TIP3    H1 2757   2.114   6.958   6.214
  938TIP3    H2 2758   2.125   6.867   6.334
  939TIP3   OH2 2759   6.701   0.777   4.177
  939TIP3    H1 2760   6.741   0.727   4.106
  939TIP3    H2 2761   6.721   0.726   4.256
  940TIP3   OH2 2762   7.860   7.467   1.745
  940TIP3    H1 2763   7.764   7.458   1.742
  940TIP3    H2 2764   7.883   7.510   1.663
  941TIP3   OH2 2765   7.568   6.425   6.797
  941TIP3    H1 2766   7.477   6.407   6.774
  941TIP3    H2 2767   7.604   6.470   6.721
  942TIP3   OH2 2768   6.003   4.113   2.171
  942TIP3    H1 2769   6.048   4.030   2.157
  942TIP3    H2 2770   5.911   4.089   2.181
  943TIP3   OH2 2771   1.450   5.021   5.166
  943TIP3    H1 2772   1.529   5.074   5.157
  943TIP3    H2 2773   1.388   5.077   5.211
  944TIP3   OH2 2774   1.364   3.241   4.320
  944TIP3    H1 2775   1.381   3.160   4.369
  944TIP3    H2 2776   1.318   3.212   4.241
  945TIP3   OH2 2777   7.256   3.661   5.548
  945TIP3    H1 2778   7.340   3.700   5.571
  945TIP3    H2 2779   7.249   3.672   5.453
  946TIP3   OH2 2780   6.372   0.938   2.043
  946TIP3    H1 2781   6.362   0.964   2.134
  946TIP3    H2 2782   6.419   1.011   2.002
  947TIP3   OH2 2783   1.331   1.556   4.889
  947TIP3    H1 2784   1.312   1.617   4.818
  947TIP3    H2 2785   1.257   1.495   4.889
  948TIP3   OH2 2786   1.990   3.086   3.146
  948TIP3    H1 2787   1.980   3.063   3.239
  948TIP3    H2 2788   2.077   3.052   3.123
  949TIP3   OH2 2789   5.380   0.413   3.388
  949TIP3    H1 2790   5.285   0.405   3.380
  949TIP3    H2 2791   5.415   0.365   3.313
  950TIP3   OH2 2792   2.543   4.270   2.490
  950TIP3    H1 2793   2.604   4.230   2.427
  950TIP3    H2 2794   2.484   4.322   2.436
  951TIP3   OH2 2795   3.407   4.890   1.142
  951TIP3    H1 2796   3.428   4.970   1.191
  951TIP3    H2 2797   3.470   4.889   1.070
  952TIP3   OH2 2798   6.292   0.868   0.782
  952TIP3    H1 2799   6.361   0.804   0.761
  952TIP3    H2 2800   6.316   0.946   0.732
  953TIP3   OH2 2801   4.607   3.438   6.324
  953TIP3    H1 2802   4.627   3.373   6.256
  953TIP3    H2 2803   4.517   3.420   6.349
  954TIP3   OH2 2804   1.493   4.977   4.148
  954TIP3    H1 2805   1.561   4.915   4.122
  954TIP3    H2 2806   1.452   4.937   4.225
  955TIP3   OH2 2807   1.096   6.846   4.177
  955TIP3    H1 2808   1.126   6.756   4.167
  955TIP3    H2 2809   1.073   6.874   4.088
  956TIP3   OH2 2810   2.447   4.376   0.705
  956TIP3    H1 2811   2.440   4.288   0.667
  956TIP3    H2 2812   2.381   4.377   0.775
  957TIP3   OH2 2813   7.472   2.211   1.943
  957TIP3    H1 2814   7.459   2.272   1.871
  957TIP3    H2 2815   7.531   2.144   1.908
  958TIP3   OH2 2816   3.291   6.312   5.593
  958TIP3    H1 2817   3.297   6.252   5.667
  958TIP3    H2 2818   3.308   6.258   5.517
  959TIP3   OH2 2819   7.892   7.787   4.986
  959TIP3    H1 2820   7.978   7.755   4.959
  959TIP3    H2 2821   7.856   7.716   5.040
  960TIP3   OH2 2822   2.524   3.315   2.951
  960TIP3    H1 2823   2.434   3.300   2.922
  960TIP3    H2 2824   2.578   3.292   2.876
  961TIP3   OH2 2825   1.818   7.413   6.542
  961TIP3    H1 2826   1.731   7.453   6.546
  961TIP3    H2 2827   1.810   7.347   6.474
  962TIP3   OH2 2828   3.501   7.415   0.189
  962TIP3    H1 2829   3.537   7.332   0.221
  962TIP3    H2 2830   3.562   7.444   0.122
  963TIP3   OH2 2831   1.927   6.669   0.394
  963TIP3    H1 2832   1.902   6.578   0.409
  963TIP3    H2 2833   1.999   6.685   0.456
  964TIP3   OH2 2834   4.924   0.265   0.362
  964TIP3    H1 2835   4.916   0.179   0.320
  964TIP3    H2 2836   4.834   0.289   0.385
  965TIP3   OH2 2837   5.382   0.235   6.442
  965TIP3    H1 2838   5.327   0.201   6.372
  965TIP3    H2 2839   5.428   0.159   6.477
  966TIP3   OH2 2840   1.705   4.714   5.394
  966TIP3    H1 2841   1.652   4.642   5.359
  966TIP3    H2 2842   1.720   4.772   5.320
  967TIP3   OH2 2843   2.159   4.635   0.678
  967TIP3    H1 2844   2.233   4.586   0.641
  967TIP3    H2 2845   2.192   4.724   0.689
  968TIP3   OH2 2846   0.956   1.041   1.689
  968TIP3    H1 2847   0.994   1.128   1.701
  968TIP3    H2 2848   0.938   1.010   1.777
  969TIP3   OH2 2849   5.597   4.309   6.672
  969TIP3    H1 2850   5.627   4.386   6.625
  969TIP3    H2 2851   5.524   4.275   6.620
  970TIP3   OH2 2852   0.602   3.928   0.876
  970TIP3    H1 2853   0.520   3.974   0.859
  970TIP3    H2 2854   0.664   3.997   0.898
  971TIP3   OH2 2855   5.014   4.552   4.596
  971TIP3    H1 2856   5.051   4.614   4.658
  971TIP3    H2 2857   4.988   4.605   4.521
  972TIP3   OH2 2858   3.448   6.496   4.377
  972TIP3    H1 2859   3.354   6.497   4.398
  972TIP3    H2 2860   3.485   6.431   4.436
  973TIP3   OH2 2861   1.160   3.727   5.740
  973TIP3    H1 2862   1.083   3.679   5.708
  973TIP3    H2 2863   1.235   3.675   5.712
  974TIP3   OH2 2864   2.588   1.326   2.247
  974TIP3    H1 2865   2.635   1.273   2.182
  974TIP3    H2 2866   2.630   1.306   2.330
  975TIP3   OH2 2867   8.174   0.343   1.429
  975TIP3    H1 2868   8.249   0.292   1.458
  975TIP3    H2 2869   8.110   0.278   1.400
  976TIP3   OH2 2870   5.018   2.997   4.467
  976TIP3    H1 2871   4.983   2.960   4.548
  976TIP3    H2 2872   5.008   3.092   4.479
  977TIP3   OH2 2873   2.876   0.332   3.064
  977TIP3    H1 2874   2.878   0.249   3.016
  977TIP3    H2 2875   2.943   0.323   3.131
  978TIP3   OH2 2876   3.084   3.294   3.220
  978TIP3    H1 2877   3.035   3.372   3.193
  978TIP3    H2 2878   3.023   3.221   3.203
  979TIP3   OH2 2879   2.521   4.590   0.555
  979TIP3    H1 2880   2.495   4.518   0.614
  979TIP3    H2 2881   2.600   4.557   0.511
  980TIP3   OH2 2882   1.027   3.240   2.838
  980TIP3    H1 2883   1.018   3.154   2.797
  980TIP3    H2 2884   0.978   3.300   2.781
  981TIP3   OH2 2885   4.287   7.386   6.166
  981TIP3    H1 2886   4.212   7.416   6.217
  981TIP3    H2 2887   4.253   7.374   6.077
  982TIP3   OH2 2888   5.053   0.823   2.780
  982TIP3    H1 2889   5.137   0.812   2.826
  982TIP3    H2 2890   5.077   0.826   2.687
  983TIP3   OH2 2891   6.058   4.750   6.463
  983TIP3    H1 2892   6.007   4.681   6.421
  983TIP3    H2 2893   6.051   4.731   6.557
  984TIP3   OH2 2894   2.416   5.434   5.653
  984TIP3    H1 2895   2.481   5.497   5.623
  984TIP3    H2 2896   2.387   5.466   5.738
  985TIP3   OH2 2897   3.123   5.558   0.242
  985TIP3    H1 2898   3.105   5.598   0.157
  985TIP3    H2 2899   3.218   5.559   0.249
  986TIP3   OH2 2900   3.292   3.053   0.485
  986TIP3    H1 2901   3.247   2.985   0.434
  986TIP3    H2 2902   3.230   3.074   0.555
  987TIP3   OH2 2903   4.258   0.989   0.246
  987TIP3    H1 2904   4.304   0.993   0.330
  987TIP3    H2 2905   4.225   0.900   0.241
  988TIP3   OH2 2906   5.654   3.605   5.184
  988TIP3    H1 2907   5.566   3.584   5.153
  988TIP3    H2 2908   5.652   3.700   5.198
  989TIP3   OH2 2909   8.032   3.450   2.544
  989TIP3    H1 2910   7.950   3.499   2.539
  989TIP3    H2 2911   8.006   3.361   2.569
  990TIP3   OH2 2912   5.421   2.482   1.783
  990TIP3    H1 2913   5.493   2.526   1.738
  990TIP3    H2 2914   5.355   2.549   1.794
  991TIP3   OH2 2915   4.111   7.433   2.435
  991TIP3    H1 2916   4.118   7.419   2.529
  991TIP3    H2 2917   4.069   7.355   2.401
  992TIP3   OH2 2918   1.383   4.756   4.337
  992TIP3    H1 2919   1.352   4.694   4.404
  992TIP3    H2 2920   1.347   4.840   4.364
  993TIP3   OH2 2921   2.559   5.415   3.871
  993TIP3    H1 2922   2.635   5.419   3.814
  993TIP3    H2 2923   2.492   5.467   3.826
  994TIP3   OH2 2924   2.177   7.442   1.647
  994TIP3    H1 2925   2.158   7.476   1.560
  994TIP3    H2 2926   2.091   7.428   1.687
  995TIP3   OH2 2927   3.738   7.125   0.825
  995TIP3    H1 2928   3.722   7.033   0.802
  995TIP3    H2 2929   3.829   7.140   0.800
  996TIP3   OH2 2930   3.265   7.689   0.144
  996TIP3    H1 2931   3.318   7.679   0.223
  996TIP3    H2 2932   3.244   7.782   0.141
  997TIP3   OH2 2933   7.687   3.283   1.569
  997TIP3    H1 2934   7.605   3.333   1.580
  997TIP3    H2 2935   7.745   3.342   1.521
  998TIP3   OH2 2936   1.653   6.365   6.330
  998TIP3    H1 2937   1.690   6.345   6.245
  998TIP3    H2 2938   1.578   6.306   6.338
  999TIP3   OH2 2939   6.679   5.571   4.368
  999TIP3    H1 2940   6.615   5.598   4.433
  999TIP3    H2 2941   6.667   5.476   4.359
 1000TIP3   OH2 2942   2.134   5.823   0.070
 1000TIP3    H1 2943   2.210   5.832   0.127
 1000TIP3    H2 2944   2.071   5.772   0.121
 1001TIP3   OH2 2945   0.800   1.273   6.126
 1001TIP3    H1 2946   0.742   1.274   6.050
 1001TIP3    H2 2947   0.889   1.276   6.089
 1002TIP3   OH2 2948   7.233   5.860   1.255
 1002TIP3    H1 2949   7.150   5.857   1.302
 1002TIP3    H2 2950   7.259   5.952   1.259
 1003TIP3   OH2 2951   0.009   6.711   4.115
 1003TIP3    H1 2952   0.028   6.679   4.027
 1003TIP3    H2 2953  -0.067   6.661   4.143
 1004TIP3   OH2 2954   2.054   0.345   6.196
 1004TIP3    H1 2955   2.018   0.286   6.262
 1004TIP3    H2 2956   2.146   0.319   6.187
 1005TIP3   OH2 2957   4.790   7.198   2.273
 1005TIP3    H1 2958   4.745   7.135   2.329
 1005TIP3    H2 2959   4.727   7.268   2.259
 1006TIP3   OH2 2960   1.610   0.847   1.567
 1006TIP3    H1 2961   1.675   0.808   1.624
 1006TIP3    H2 2962   1.659   0.910   1.514
 1007TIP3   OH2 2963   6.806   7.119   2.086
 1007TIP3    H1 2964   6.803   7.089   1.996
 1007TIP3    H2 2965   6.736   7.072   2.130
 1008TIP3   OH2 2966   5.618   5.237   0.898
 1008TIP3    H1 2967   5.605   5.142   0.895
 1008TIP3    H2 2968   5.591   5.262   0.986
 1009TIP3   OH2 2969   2.886   2.591   0.986
 1009TIP3    H1 2970   2.962   2.574   0.930
 1009TIP3    H2 2971   2.892   2.525   1.055
 1010TIP3   OH2 2972   6.297   5.032   5.814
 1010TIP3    H1 2973   6.336   5.084   5.743
 1010TIP3    H2 2974   6.204   5.027   5.792
 1011TIP3   OH2 2975   3.136   0.835   5.127
 1011TIP3    H1 2976   3.138   0.771   5.199
 1011TIP3    H2 2977   3.150   0.783   5.048
 1012TIP3   OH2 2978   3.762   2.880   6.609
 1012TIP3    H1 2979   3.740   2.970   6.585
 1012TIP3    H2 2980   3.777   2.835   6.526
 1013TIP3   OH2 2981   6.511   4.261   0.034
 1013TIP3    H1 2982   6.443   4.298  -0.022
 1013TIP3    H2 2983   6.566   4.209  -0.025
 1014TIP3   OH2 2984   7.044   0.344   5.272
 1014TIP3    H1 2985   6.974   0.315   5.213
 1014TIP3    H2 2986   7.102   0.396   5.217
 1015TIP3   OH2 2987   4.809   1.297   5.702
 1015TIP3    H1 2988   4.819   1.221   5.645
 1015TIP3    H2 2989   4.895   1.309   5.742
 1016TIP3   OH2 2990   1.438   5.837   2.948
 1016TIP3    H1 2991   1.454   5.902   3.016
 1016TIP3    H2 2992   1.485   5.870   2.871
 1017TIP3   OH2 2993   3.972   6.786   1.088
 1017TIP3    H1 2994   4.036   6.715   1.089
 1017TIP3    H2 2995   4.025   6.866   1.086
 1018TIP3   OH2 2996   8.148   3.591   6.110
 1018TIP3    H1 2997   8.224   3.574   6.054
 1018TIP3    H2 2998   8.184   3.597   6.198
 1019TIP3   OH2 2999   2.429   2.714   0.100
 1019TIP3    H1 3000   2.362   2.662   0.143
 1019TIP3    H2 3001   2.381   2.787   0.061
 1020TIP3   OH2 3002   7.027   5.915   5.157
 1020TIP3    H1 3003   6.991   5.916   5.068
 1020TIP3    H2 3004   7.099   5.978   5.155
 1021TIP3   OH2 3005   1.871   2.429   6.638
 1021TIP3    H1 3006   1.966   2.436   6.645
 1021TIP3    H2 3007   1.845   2.372   6.710
 1022TIP3   OH2 3008   4.238   7.454   3.839
 1022TIP3    H1 3009   4.186   7.415   3.768
 1022TIP3    H2 3010   4.195   7.425   3.919
 1023TIP3   OH2 3011   4.964   3.126   0.462
 1023TIP3    H1 3012   4.888   3.116   0.405
 1023TIP3    H2 3013   4.987   3.036   0.486
 1024TIP3   OH2 3014   6.826   3.668   0.140
 1024TIP3    H1 3015   6.802   3.618   0.061
 1024TIP3    H2 3016   6.759   3.735   0.147
 1025TIP3   OH2 3017   1.300   2.833   2.970
 1025TIP3    H1 3018   1.326   2.818   2.879
 1025TIP3    H2 3019   1.204   2.825   2.969
 1026TIP3   OH2 3020   6.851   7.379   6.163
 1026TIP3    H1 3021   6.922   7.412   6.217
 1026TIP3    H2 3022   6.857   7.284   6.170
 1027TIP3   OH2 3023   4.205   0.542   6.038
 1027TIP3    H1 3024   4.248   0.538   6.124
 1027TIP3    H2 3025   4.239   0.621   5.997
 1028TIP3   OH2 3026   4.743   1.874   5.250
 1028TIP3    H1 3027   4.811   1.808   5.233
 1028TIP3    H2 3028   4.667   1.823   5.279
 1029TIP3   OH2 3029   3.975   7.330   4.250
 1029TIP3    H1 3030   3.963   7.308   4.158
 1029TIP3    H2 3031   3.891   7.308   4.291
 1030TIP3   OH2 3032   5.869   3.449   5.167
 1030TIP3    H1 3033   5.793   3.505   5.182
 1030TIP3    H2 3034   5.921   3.456   5.247
 1031TIP3   OH2 3035   2.813   0.792   1.338
 1031TIP3    H1 3036   2.785   0.704   1.311
 1031TIP3    H2 3037   2.794   0.795   1.432
 1032TIP3   OH2 3038   4.218   6.758   0.110
 1032TIP3    H1 3039   4.144   6.741   0.169
 1032TIP3    H2 3040   4.253   6.842   0.139
 1033TIP3   OH2 3041   5.628   0.896   3.544
 1033TIP3    H1 3042   5.717   0.882   3.577
 1033TIP3    H2 3043   5.584   0.813   3.557
 1034TIP3   OH2 3044   6.559   0.509   5.912
 1034TIP3    H1 3045   6.513   0.429   5.886
 1034TIP3    H2 3046   6.652   0.487   5.901
 1035TIP3   OH2 3047   5.504   2.610   2.425
 1035TIP3    H1 3048   5.440   2.682   2.415
 1035TIP3    H2 3049   5.482   2.571   2.509
 1036TIP3   OH2 3050   8.073   3.928   2.779
 1036TIP3    H1 3051   8.110   3.872   2.847
 1036TIP3    H2 3052   7.978   3.921   2.791
 1037TIP3   OH2 3053   4.973   3.723   2.914
 1037TIP3    H1 3054   4.979   3.677   2.830
 1037TIP3    H2 3055   4.886   3.763   2.913
 1038TIP3   OH2 3056   0.359   0.900   2.141
 1038TIP3    H1 3057   0.450   0.873   2.129
 1038TIP3    H2 3058   0.364   0.995   2.155
 1039TIP3   OH2 3059   6.876   2.398   0.187
 1039TIP3    H1 3060   6.844   2.488   0.198
 1039TIP3    H2 3061   6.830   2.366   0.109
 1040TIP3   OH2 3062   0.474   3.043   3.236
 1040TIP3    H1 3063   0.537   3.103   3.198
 1040TIP3    H2 3064   0.507   3.026   3.325
 1041TIP3   OH2 3065   4.234   5.901   6.670
 1041TIP3    H1 3066   4.250   5.852   6.751
 1041TIP3    H2 3067   4.236   5.834   6.602
 1042TIP3   OH2 3068   1.600   6.517   4.338
 1042TIP3    H1 3069   1.581   6.571   4.260
 1042TIP3    H2 3070   1.553   6.561   4.409
 1043TIP3   OH2 3071   5.029   2.051   3.284
 1043TIP3    H1 3072   5.117   2.079   3.310
 1043TIP3    H2 3073   4.989   2.020   3.365
 1044TIP3   OH2 3074   4.116   2.718   4.873
 1044TIP3    H1 3075   4.111   2.631   4.913
 1044TIP3    H2 3076   4.167   2.705   4.793
 1045TIP3   OH2 3077   3.247   4.187   5.321
 1045TIP3    H1 3078   3.279   4.189   5.230
 1045TIP3    H2 3079   3.283   4.106   5.357
 1046TIP3   OH2 3080   2.107   3.504   1.690
 1046TIP3    H1 3081   2.140   3.593   1.682
 1046TIP3    H2 3082   2.024   3.513   1.735
 1047TIP3   OH2 3083   4.721   0.668   1.284
 1047TIP3    H1 3084   4.728   0.736   1.351
 1047TIP3    H2 3085   4.709   0.716   1.202
 1048TIP3   OH2 3086   5.156   0.957   4.290
 1048TIP3    H1 3087   5.194   0.890   4.347
 1048TIP3    H2 3088   5.106   1.013   4.350
 1049TIP3   OH2 3089   6.816   7.418   2.100
 1049TIP3    H1 3090   6.735   7.437   2.053
 1049TIP3    H2 3091   6.822   7.323   2.101
 1050TIP3   OH2 3092   0.861   4.776   3.100
 1050TIP3    H1 3093   0.858   4.804   3.192
 1050TIP3    H2 3094   0.901   4.689   3.103
 1051TIP3   OH2 3095   5.463   1.033   0.082
 1051TIP3    H1 3096   5.529   1.071   0.025
 1051TIP3    H2 3097   5.491   0.943   0.097
 1052TIP3   OH2 3098   5.894   2.937   4.029
 1052TIP3    H1 3099   5.895   2.944   4.124
 1052TIP3    H2 3100   5.924   3.022   3.998
 1053TIP3   OH2 3101   8.101   2.758   5.745
 1053TIP3    H1 3102   8.068   2.691   5.805
 1053TIP3    H2 3103   8.091   2.719   5.658
 1054TIP3   OH2 3104   7.262   4.785   1.265
 1054TIP3    H1 3105   7.318   4.855   1.230
 1054TIP3    H2 3106   7.271   4.713   1.202
 1055TIP3   OH2 3107   1.497   3.497   4.862
 1055TIP3    H1 3108   1.430   3.480   4.928
 1055TIP3    H2 3109   1.459   3.564   4.806
 1056TIP3   OH2 3110   1.367   1.867   0.258
 1056TIP3    H1 3111   1.275   1.891   0.248
 1056TIP3    H2 3112   1.383   1.802   0.190
 1057TIP3   OH2 3113   3.683   1.933   6.657
 1057TIP3    H1 3114   3.686   1.885   6.740
 1057TIP3    H2 3115   3.643   1.871   6.595
 1058TIP3   OH2 3116   3.328   2.169   6.624
 1058TIP3    H1 3117   3.315   2.264   6.621
 1058TIP3    H2 3118   3.248   2.133   6.586
 1059TIP3   OH2 3119   6.311   2.776   1.420
 1059TIP3    H1 3120   6.321   2.827   1.500
 1059TIP3    H2 3121   6.242   2.820   1.371
 1060TIP3   OH2 3122   8.093   6.142   2.870
 1060TIP3    H1 3123   8.058   6.141   2.959
 1060TIP3    H2 3124   8.124   6.232   2.857
 1061TIP3   OH2 3125   6.289   5.049   1.880
 1061TIP3    H1 3126   6.261   5.098   1.958
 1061TIP3    H2 3127   6.225   4.978   1.873
 1062TIP3   OH2 3128   7.942   5.790   4.067
 1062TIP3    H1 3129   7.952   5.695   4.079
 1062TIP3    H2 3130   8.027   5.826   4.092
 1063TIP3   OH2 3131   3.237   1.763   4.661
 1063TIP3    H1 3132   3.215   1.757   4.568
 1063TIP3    H2 3133   3.283   1.682   4.680
 1064TIP3   OH2 3134   5.990   1.330   6.601
 1064TIP3    H1 3135   6.039   1.412   6.608
 1064TIP3    H2 3136   6.013   1.281   6.680
 1065TIP3   OH2 3137   3.173   5.070   4.852
 1065TIP3    H1 3138   3.090   5.043   4.891
 1065TIP3    H2 3139   3.228   5.092   4.928
 1066TIP3   OH2 3140   2.240   0.099   3.336
 1066TIP3    H1 3141   2.273   0.170   3.280
 1066TIP3    H2 3142   2.319   0.061   3.375
 1067TIP3   OH2 3143   2.747   2.740   2.096
 1067TIP3    H1 3144   2.779   2.666   2.045
 1067TIP3    H2 3145   2.749   2.814   2.036
 1068TIP3   OH2 3146   8.053   7.348   5.809
 1068TIP3    H1 3147   8.093   7.421   5.856
 1068TIP3    H2 3148   8.117   7.325   5.742
 1069TIP3   OH2 3149   1.683   6.302   3.439
 1069TIP3    H1 3150   1.744   6.284   3.510
 1069TIP3    H2 3151   1.606   6.338   3.482
 1070TIP3   OH2 3152   1.914   7.730   5.459
 1070TIP3    H1 3153   1.821   7.707   5.456
 1070TIP3    H2 3154   1.929   7.760   5.548
 1071TIP3   OH2 3155   6.263   7.021   0.891
 1071TIP3    H1 3156   6.332   6.955   0.889
 1071TIP3    H2 3157   6.300   7.095   0.842
 1072TIP3   OH2 3158   7.834   1.364   6.413
 1072TIP3    H1 3159   7.777   1.292   6.439
 1072TIP3    H2 3160   7.779   1.420   6.359
 1073TIP3   OH2 3161   6.047   2.342   6.786
 1073TIP3    H1 3162   5.977   2.397   6.753
 1073TIP3    H2 3163   6.126   2.375   6.743
 1074TIP3   OH2 3164   4.714   1.164   1.238
 1074TIP3    H1 3165   4.758   1.239   1.278
 1074TIP3    H2 3166   4.651   1.135   1.305
 1075TIP3   OH2 3167   7.226   4.406   2.550
 1075TIP3    H1 3168   7.136   4.397   2.518
 1075TIP3    H2 3169   7.239   4.331   2.607
 1076TIP3   OH2 3170   0.278   5.484   1.028
 1076TIP3    H1 3171   0.260   5.572   0.994
 1076TIP3    H2 3172   0.251   5.488   1.120
 1077TIP3   OH2 3173   8.090   1.071   5.310
 1077TIP3    H1 3174   8.110   1.086   5.218
 1077TIP3    H2 3175   8.162   1.017   5.342
 1078TIP3   OH2 3176   2.022   1.889   5.870
 1078TIP3    H1 3177   2.064   1.965   5.828
 1078TIP3    H2 3178   2.011   1.915   5.961
 1079TIP3   OH2 3179   4.004   4.053   2.194
 1079TIP3    H1 3180   3.919   4.082   2.230
 1079TIP3    H2 3181   4.056   4.030   2.271
 1080TIP3   OH2 3182   4.024   7.091   6.401
 1080TIP3    H1 3183   3.939   7.053   6.422
 1080TIP3    H2 3184   4.045   7.147   6.475
 1081TIP3   OH2 3185   6.648   0.703   0.495
 1081TIP3    H1 3186   6.579   0.732   0.435
 1081TIP3    H2 3187   6.728   0.710   0.443
 1082TIP3   OH2 3188   0.979   1.476   5.533
 1082TIP3    H1 3189   0.904   1.532   5.552
 1082TIP3    H2 3190   0.998   1.490   5.441
 1083TIP3   OH2 3191   5.162   0.045   0.163
 1083TIP3    H1 3192   5.216  -0.007   0.222
 1083TIP3    H2 3193   5.204   0.131   0.162
 1084TIP3   OH2 3194   3.604   0.169   1.220
 1084TIP3    H1 3195   3.601   0.175   1.125
 1084TIP3    H2 3196   3.525   0.216   1.249
 1085TIP3   OH2 3197   4.769   7.134   0.858
 1085TIP3    H1 3198   4.861   7.159   0.853
 1085TIP3    H2 3199   4.728   7.201   0.913
 1086TIP3   OH2 3200   2.272   5.076   5.328
 1086TIP3    H1 3201   2.214   5.044   5.397
 1086TIP3    H2 3202   2.231   5.157   5.299
 1087TIP3   OH2 3203   3.157   3.875   5.586
 1087TIP3    H1 3204   3.236   3.912   5.548
 1087TIP3    H2 3205   3.085   3.916   5.537
 1088TIP3   OH2 3206   6.084   0.267   3.039
 1088TIP3    H1 3207   6.037   0.200   2.990
 1088TIP3    H2 3208   6.051   0.350   3.004
 1089TIP3   OH2 3209   2.729   0.565   1.191
 1089TIP3    H1 3210   2.663   0.616   1.143
 1089TIP3    H2 3211   2.720   0.476   1.156
 1090TIP3   OH2 3212   0.389   5.176   0.645
 1090TIP3    H1 3213   0.316   5.115   0.635
 1090TIP3    H2 3214   0.350   5.258   0.674
 1091TIP3   OH2 3215   0.071   2.823   3.447
 1091TIP3    H1 3216   0.151   2.805   3.398
 1091TIP3    H2 3217   0.099   2.827   3.538
 1092TIP3   OH2 3218   7.094   3.753   3.608
 1092TIP3    H1 3219   7.145   3.742   3.688
 1092TIP3    H2 3220   7.120   3.839   3.574
 1093TIP3   OH2 3221   5.216   1.624   1.309
 1093TIP3    H1 3222   5.147   1.588   1.364
 1093TIP3    H2 3223   5.293   1.572   1.330
 1094TIP3   OH2 3224   7.190   7.606   4.421
 1094TIP3    H1 3225   7.203   7.513   4.438
 1094TIP3    H2 3226   7.268   7.633   4.373
 1095TIP3   OH2 3227   3.417   2.973   2.481
 1095TIP3    H1 3228   3.422   3.050   2.538
 1095TIP3    H2 3229   3.450   3.003   2.397
 1096TIP3   OH2 3230   3.148   4.505   2.668
 1096TIP3    H1 3231   3.123   4.417   2.695
 1096TIP3    H2 3232   3.209   4.492   2.595
 1097TIP3   OH2 3233   4.297   5.692   3.861
 1097TIP3    H1 3234   4.323   5.681   3.770
 1097TIP3    H2 3235   4.380   5.700   3.909
 1098TIP3   OH2 3236   5.232   5.517   6.269
 1098TIP3    H1 3237   5.259   5.578   6.201
 1098TIP3    H2 3238   5.221   5.571   6.347
 1099TIP3   OH2 3239   1.904   1.601   5.449
 1099TIP3    H1 3240   1.934   1.655   5.522
 1099TIP3    H2 3241   1.944   1.640   5.372
 1100TIP3   OH2 3242   7.157   0.387   1.067
 1100TIP3    H1 3243   7.167   0.310   1.123
 1100TIP3    H2 3244   7.246   0.412   1.044
 1101TIP3   OH2 3245   0.925   4.917   6.359
 1101TIP3    H1 3246   0.977   4.870   6.424
 1101TIP3    H2 3247   0.903   4.851   6.293
 1102TIP3   OH2 3248   4.361   6.907   6.486
 1102TIP3    H1 3249   4.316   6.843   6.430
 1102TIP3    H2 3250   4.452   6.876   6.488
 1103TIP3   OH2 3251   4.074   3.612   2.393
 1103TIP3    H1 3252   4.006   3.574   2.447
 1103TIP3    H2 3253   4.151   3.558   2.408
 1104TIP3   OH2 3254   5.218   3.786   3.582
 1104TIP3    H1 3255   5.194   3.863   3.634
 1104TIP3    H2 3256   5.236   3.821   3.495
 1105TIP3   OH2 3257   5.632   1.740   4.519
 1105TIP3    H1 3258   5.544   1.744   4.556
 1105TIP3    H2 3259   5.673   1.823   4.545
 1106TIP3   OH2 3260   6.588   4.763   1.000
 1106TIP3    H1 3261   6.628   4.768   0.914
 1106TIP3    H2 3262   6.621   4.682   1.038
 1107TIP3   OH2 3263   6.060   6.150   2.540
 1107TIP3    H1 3264   6.103   6.070   2.571
 1107TIP3    H2 3265   6.035   6.196   2.620
 1108TIP3   OH2 3266   8.169   1.683   0.197
 1108TIP3    H1 3267   8.220   1.697   0.276
 1108TIP3    H2 3268   8.081   1.715   0.219
 1109TIP3   OH2 3269   0.853   6.994   2.075
 1109TIP3    H1 3270   0.770   6.963   2.040
 1109TIP3    H2 3271   0.911   6.997   1.998
 1110TIP3   OH2 3272   1.529   1.110   6.598
 1110TIP3    H1 3273   1.556   1.022   6.570
 1110TIP3    H2 3274   1.542   1.110   6.693
 1111TIP3   OH2 3275   4.206   5.214   3.859
 1111TIP3    H1 3276   4.115   5.242   3.860
 1111TIP3    H2 3277   4.215   5.158   3.936
 1112TIP3   OH2 3278   6.058   6.386   6.369
 1112TIP3    H1 3279   6.101   6.325   6.429
 1112TIP3    H2 3280   5.965   6.376   6.385
 1113TIP3   OH2 3281   5.806   5.707   1.377
 1113TIP3    H1 3282   5.718   5.743   1.393
 1113TIP3    H2 3283   5.820   5.718   1.283
 1114TIP3   OH2 3284   4.712   4.526   6.718
 1114TIP3    H1 3285   4.712   4.621   6.705
 1114TIP3    H2 3286   4.639   4.511   6.778
 1115TIP3   OH2 3287   2.342   5.639   2.890
 1115TIP3    H1 3288   2.358   5.655   2.797
 1115TIP3    H2 3289   2.356   5.545   2.901
 1116TIP3   OH2 3290   6.513   3.629   6.047
 1116TIP3    H1 3291   6.474   3.716   6.060
 1116TIP3    H2 3292   6.606   3.641   6.070
 1117TIP3   OH2 3293   4.483   1.042   5.581
 1117TIP3    H1 3294   4.468   1.064   5.489
 1117TIP3    H2 3295   4.477   1.126   5.626
 1118TIP3   OH2 3296   6.405   3.747   2.844
 1118TIP3    H1 3297   6.402   3.815   2.912
 1118TIP3    H2 3298   6.317   3.745   2.808
 1119TIP3   OH2 3299   5.975   6.223   3.467
 1119TIP3    H1 3300   5.936   6.260   3.546
 1119TIP3    H2 3301   5.943   6.133   3.464
 1120TIP3   OH2 3302   7.820   5.171   5.856
 1120TIP3    H1 3303   7.863   5.103   5.908
 1120TIP3    H2 3304   7.791   5.126   5.776
 1121TIP3   OH2 3305   4.344   5.659   1.045
 1121TIP3    H1 3306   4.394   5.578   1.055
 1121TIP3    H2 3307   4.287   5.662   1.122
 1122TIP3   OH2 3308   0.400   7.746   0.382
 1122TIP3    H1 3309   0.416   7.654   0.361
 1122TIP3    H2 3310   0.471   7.793   0.339
 1123TIP3   OH2 3311   2.271   6.294   0.724
 1123TIP3    H1 3312   2.233   6.366   0.775
 1123TIP3    H2 3313   2.208   6.222   0.735
 1124TIP3   OH2 3314   3.491   2.343   5.864
 1124TIP3    H1 3315   3.469   2.281   5.795
 1124TIP3    H2 3316   3.471   2.429   5.825
 1125TIP3   OH2 3317   0.447   0.030   4.390
 1125TIP3    H1 3318   0.477   0.038   4.299
 1125TIP3    H2 3319   0.493   0.100   4.437
 1126TIP3   OH2 3320   4.665   6.867   4.158
 1126TIP3    H1 3321   4.677   6.946   4.106
 1126TIP3    H2 3322   4.588   6.824   4.120
 1127TIP3   OH2 3323   0.918   3.246   3.104
 1127TIP3    H1 3324   0.959   3.193   3.172
 1127TIP3    H2 3325   0.967   3.225   3.024
 1128TIP3   OH2 3326   5.416   7.684   4.760
 1128TIP3    H1 3327   5.417   7.610   4.820
 1128TIP3    H2 3328   5.395   7.759   4.816
 1129TIP3   OH2 3329   5.605   4.936   3.481
 1129TIP3    H1 3330   5.560   5.018   3.498
 1129TIP3    H2 3331   5.616   4.933   3.386
 1130TIP3   OH2 3332   3.301   6.249   2.623
 1130TIP3    H1 3333   3.351   6.193   2.564
 1130TIP3    H2 3334   3.297   6.199   2.705
 1131TIP3   OH2 3335   7.396   6.071   5.615
 1131TIP3    H1 3336   7.368   6.065   5.706
 1131TIP3    H2 3337   7.318   6.100   5.568
 1132TIP3   OH2 3338   4.940   5.857   2.111
 1132TIP3    H1 3339   4.961   5.781   2.057
 1132TIP3    H2 3340   4.944   5.823   2.201
 1133TIP3   OH2 3341   5.718   4.311   2.164
 1133TIP3    H1 3342   5.730   4.366   2.086
 1133TIP3    H2 3343   5.799   4.321   2.213
 1134TIP3   OH2 3344   5.206   7.223   0.414
 1134TIP3    H1 3345   5.272   7.285   0.444
 1134TIP3    H2 3346   5.122   7.263   0.440
 1135TIP3   OH2 3347   7.484   3.346   4.879
 1135TIP3    H1 3348   7.396   3.384   4.889
 1135TIP3    H2 3349   7.521   3.391   4.803
 1136TIP3   OH2 3350   7.526   6.855   4.268
 1136TIP3    H1 3351   7.560   6.894   4.187
 1136TIP3    H2 3352   7.591   6.790   4.293
 1137TIP3   OH2 3353   1.426   1.076   1.988
 1137TIP3    H1 3354   1.373   1.155   1.974
 1137TIP3    H2 3355   1.398   1.017   1.918
 1138TIP3   OH2 3356   7.084   0.749   6.391
 1138TIP3    H1 3357   7.127   0.757   6.306
 1138TIP3    H2 3358   6.991   0.755   6.372
 1139TIP3   OH2 3359   2.684   2.383   1.230
 1139TIP3    H1 3360   2.674   2.349   1.141
 1139TIP3    H2 3361   2.645   2.316   1.286
 1140TIP3   OH2 3362   3.183   7.195   2.606
 1140TIP3    H1 3363   3.220   7.281   2.626
 1140TIP3    H2 3364   3.163   7.157   2.691
 1141TIP3   OH2 3365   4.776   3.592   4.350
 1141TIP3    H1 3366   4.691   3.572   4.310
 1141TIP3    H2 3367   4.786   3.687   4.338
 1142TIP3   OH2 3368   3.420   6.511   4.040
 1142TIP3    H1 3369   3.377   6.500   3.956
 1142TIP3    H2 3370   3.354   6.551   4.097
 1143TIP3   OH2 3371   8.009   7.048   5.593
 1143TIP3    H1 3372   7.945   7.077   5.528
 1143TIP3    H2 3373   7.960   7.037   5.674
 1144TIP3   OH2 3374   4.372   3.850   6.155
 1144TIP3    H1 3375   4.465   3.829   6.148
 1144TIP3    H2 3376   4.333   3.817   6.074
 1145TIP3   OH2 3377   4.713   6.202   4.307
 1145TIP3    H1 3378   4.736   6.266   4.239
 1145TIP3    H2 3379   4.621   6.183   4.292
 1146TIP3   OH2 3380   3.894   2.582   4.682
 1146TIP3    H1 3381   3.965   2.604   4.741
 1146TIP3    H2 3382   3.926   2.507   4.632
 1147TIP3   OH2 3383   3.947   1.462   5.105
 1147TIP3    H1 3384   4.010   1.529   5.130
 1147TIP3    H2 3385   3.947   1.464   5.009
 1148TIP3   OH2 3386   1.434   2.174   0.642
 1148TIP3    H1 3387   1.474   2.166   0.555
 1148TIP3    H2 3388   1.350   2.216   0.626
 1149TIP3   OH2 3389   1.673   4.762   5.778
 1149TIP3    H1 3390   1.684   4.708   5.700
 1149TIP3    H2 3391   1.748   4.739   5.833
 1150TIP3   OH2 3392   6.244   7.779   2.858
 1150TIP3    H1 3393   6.221   7.790   2.766
 1150TIP3    H2 3394   6.336   7.753   2.857
 1151TIP3   OH2 3395   3.013   3.219   4.373
 1151TIP3    H1 3396   3.072   3.181   4.438
 1151TIP3    H2 3397   3.026   3.314   4.382
 1152TIP3   OH2 3398   6.716   3.668   5.607
 1152TIP3    H1 3399   6.662   3.591   5.623
 1152TIP3    H2 3400   6.732   3.667   5.512
 1153TIP3   OH2 3401   5.425   4.119   5.358
 1153TIP3    H1 3402   5.440   4.207   5.323
 1153TIP3    H2 3403   5.466   4.060   5.294
 1154TIP3   OH2 3404   0.815   7.652   2.038
 1154TIP3    H1 3405   0.807   7.627   2.130
 1154TIP3    H2 3406   0.904   7.688   2.031
 1155TIP3   OH2 3407   0.803   7.245   2.200
 1155TIP3    H1 3408   0.816   7.172   2.140
 1155TIP3    H2 3409   0.890   7.265   2.234
 1156TIP3   OH2 3410   7.122   6.002   4.328
 1156TIP3    H1 3411   7.107   5.988   4.234
 1156TIP3    H2 3412   7.095   5.920   4.369
 1157TIP3   OH2 3413   1.534   4.042   5.173
 1157TIP3    H1 3414   1.465   4.105   5.196
 1157TIP3    H2 3415   1.554   4.061   5.082
 1158TIP3   OH2 3416   7.956   4.622   2.338
 1158TIP3    H1 3417   7.973   4.529   2.322
 1158TIP3    H2 3418   7.955   4.631   2.433
 1159TIP3   OH2 3419   6.357   4.667   5.447
 1159TIP3    H1 3420   6.435   4.662   5.503
 1159TIP3    H2 3421   6.382   4.727   5.376
 1160TIP3   OH2 3422   7.476   3.483   1.574
 1160TIP3    H1 3423   7.529   3.488   1.654
 1160TIP3    H2 3424   7.387   3.501   1.603
 1161TIP3   OH2 3425   8.050   0.105   6.107
 1161TIP3    H1 3426   8.109   0.169   6.145
 1161TIP3    H2 3427   8.092   0.078   6.025
 1162TIP3   OH2 3428   1.022   0.428   1.154
 1162TIP3    H1 3429   1.068   0.508   1.128
 1162TIP3    H2 3430   1.091   0.370   1.185
 1163TIP3   OH2 3431   5.500   3.052   2.482
 1163TIP3    H1 3432   5.543   3.017   2.404
 1163TIP3    H2 3433   5.443   2.981   2.513
 1164TIP3   OH2 3434   5.652   4.193   1.077
 1164TIP3    H1 3435   5.602   4.116   1.049
 1164TIP3    H2 3436   5.597   4.267   1.050
 1165TIP3   OH2 3437   0.760   6.339   5.077
 1165TIP3    H1 3438   0.761   6.261   5.132
 1165TIP3    H2 3439   0.837   6.389   5.105
 1166TIP3   OH2 3440   5.743   0.804   4.496
 1166TIP3    H1 3441   5.780   0.823   4.583
 1166TIP3    H2 3442   5.684   0.730   4.511
 1167TIP3   OH2 3443   2.901   1.776   2.243
 1167TIP3    H1 3444   2.835   1.737   2.185
 1167TIP3    H2 3445   2.918   1.862   2.206
 1168TIP3   OH2 3446   3.200   3.852   1.260
 1168TIP3    H1 3447   3.108   3.831   1.272
 1168TIP3    H2 3448   3.246   3.768   1.262
 1169TIP3   OH2 3449   5.517   4.436   4.296
 1169TIP3    H1 3450   5.444   4.430   4.234
 1169TIP3    H2 3451   5.514   4.353   4.344
 1170TIP3   OH2 3452   1.302   2.998   1.045
 1170TIP3    H1 3453   1.349   3.006   0.961
 1170TIP3    H2 3454   1.360   2.944   1.099
 1171TIP3   OH2 3455   1.003   0.187   3.789
 1171TIP3    H1 3456   1.011   0.097   3.758
 1171TIP3    H2 3457   0.945   0.182   3.865
 1172TIP3   OH2 3458   6.514   7.581   3.321
 1172TIP3    H1 3459   6.492   7.584   3.414
 1172TIP3    H2 3460   6.448   7.524   3.282
 1173TIP3   OH2 3461   5.385   4.683   3.201
 1173TIP3    H1 3462   5.444   4.758   3.208
 1173TIP3    H2 3463   5.443   4.608   3.183
 1174TIP3   OH2 3464   3.839   7.199   1.120
 1174TIP3    H1 3465   3.823   7.105   1.115
 1174TIP3    H2 3466   3.934   7.208   1.109
 1175TIP3   OH2 3467   4.036   6.675   3.229
 1175TIP3    H1 3468   3.949   6.711   3.212
 1175TIP3    H2 3469   4.020   6.590   3.270
 1176TIP3   OH2 3470   6.632   5.453   2.293
 1176TIP3    H1 3471   6.550   5.423   2.332
 1176TIP3    H2 3472   6.611   5.471   2.202
 1177TIP3   OH2 3473   2.874   1.825   3.097
 1177TIP3    H1 3474   2.953   1.877   3.083
 1177TIP3    H2 3475   2.838   1.858   3.179
 1178TIP3   OH2 3476   1.305   4.995   3.543
 1178TIP3    H1 3477   1.323   4.941   3.620
 1178TIP3    H2 3478   1.391   5.028   3.516
 1179TIP3   OH2 3479   2.853   6.863   4.000
 1179TIP3    H1 3480   2.816   6.917   3.930
 1179TIP3    H2 3481   2.777   6.830   4.047
 1180TIP3   OH2 3482   6.083   3.524   3.466
 1180TIP3    H1 3483   6.147   3.595   3.474
 1180TIP3    H2 3484   6.091   3.496   3.375
 1181TIP3   OH2 3485   0.927   4.435   6.029
 1181TIP3    H1 3486   1.022   4.444   6.039
 1181TIP3    H2 3487   0.913   4.438   5.934
 1182TIP3   OH2 3488   3.802   2.360   4.400
 1182TIP3    H1 3489   3.721   2.330   4.359
 1182TIP3    H2 3490   3.846   2.280   4.428
 1183TIP3   OH2 3491   3.172   3.241   0.260
 1183TIP3    H1 3492   3.107   3.171   0.266
 1183TIP3    H2 3493   3.210   3.246   0.348
 1184TIP3   OH2 3494   5.246   0.742   1.414
 1184TIP3    H1 3495   5.202   0.827   1.416
 1184TIP3    H2 3496   5.181   0.682   1.378
 1185TIP3   OH2 3497   0.815   6.320   3.216
 1185TIP3    H1 3498   0.819   6.296   3.308
 1185TIP3    H2 3499   0.753   6.258   3.177
 1186TIP3   OH2 3500   3.181   1.659   3.734
 1186TIP3    H1 3501   3.237   1.610   3.673
 1186TIP3    H2 3502   3.228   1.741   3.748
 1187TIP3   OH2 3503   3.188   5.458   6.392
 1187TIP3    H1 3504   3.139   5.490   6.317
 1187TIP3    H2 3505   3.161   5.514   6.465
 1188TIP3   OH2 3506   5.703   3.465   3.348
 1188TIP3    H1 3507   5.626   3.433   3.303
 1188TIP3    H2 3508   5.771   3.400   3.330
 1189TIP3   OH2 3509   4.481   0.252   6.715
 1189TIP3    H1 3510   4.403   0.307   6.729
 1189TIP3    H2 3511   4.479   0.230   6.622
 1190TIP3   OH2 3512   3.787   6.502   4.584
 1190TIP3    H1 3513   3.720   6.449   4.629
 1190TIP3    H2 3514   3.797   6.579   4.639
 1191TIP3   OH2 3515   0.960   3.210   3.422
 1191TIP3    H1 3516   0.956   3.221   3.517
 1191TIP3    H2 3517   0.964   3.299   3.387
 1192TIP3   OH2 3518   6.165   7.308   1.782
 1192TIP3    H1 3519   6.153   7.387   1.729
 1192TIP3    H2 3520   6.156   7.236   1.719
 1193TIP3   OH2 3521   4.923   0.473   3.910
 1193TIP3    H1 3522   4.876   0.522   3.977
 1193TIP3    H2 3523   4.854   0.428   3.861
 1194TIP3   OH2 3524   5.708   0.048   6.255
 1194TIP3    H1 3525   5.619   0.017   6.270
 1194TIP3    H2 3526   5.716   0.127   6.307
 1195TIP3   OH2 3527   3.364   4.912   5.099
 1195TIP3    H1 3528   3.354   5.007   5.093
 1195TIP3    H2 3529   3.392   4.886   5.011
 1196TIP3   OH2 3530   0.376   7.141   4.062
 1196TIP3    H1 3531   0.436   7.075   4.095
 1196TIP3    H2 3532   0.289   7.106   4.079
 1197TIP3   OH2 3533   2.164   5.005   6.380
 1197TIP3    H1 3534   2.100   4.950   6.425
 1197TIP3    H2 3535   2.244   4.952   6.377
 1198TIP3   OH2 3536   6.431   7.302   3.411
 1198TIP3    H1 3537   6.490   7.280   3.338
 1198TIP3    H2 3538   6.402   7.216   3.444
 1199TIP3   OH2 3539   6.149   1.285   0.307
 1199TIP3    H1 3540   6.138   1.214   0.245
 1199TIP3    H2 3541   6.102   1.359   0.268
 1200TIP3   OH2 3542   5.508   7.413   3.970
 1200TIP3    H1 3543   5.510   7.448   3.881
 1200TIP3    H2 3544   5.597   7.382   3.986
 1201TIP3   OH2 3545   5.547   2.167   5.063
 1201TIP3    H1 3546   5.504   2.242   5.103
 1201TIP3    H2 3547   5.628   2.202   5.025
 1202TIP3   OH2 3548   2.711   1.031   2.988
 1202TIP3    H1 3549   2.666   1.110   3.020
 1202TIP3    H2 3550   2.752   0.994   3.066
 1203TIP3   OH2 3551   0.048   0.559   5.957
 1203TIP3    H1 3552   0.080   0.590   5.872
 1203TIP3    H2 3553   0.128   0.546   6.009
 1204TIP3   OH2 3554   0.478   6.603   4.356
 1204TIP3    H1 3555   0.429   6.547   4.296
 1204TIP3    H2 3556   0.565   6.610   4.317
 1205TIP3   OH2 3557   7.999   5.928   1.748
 1205TIP3    H1 3558   8.003   5.846   1.699
 1205TIP3    H2 3559   8.081   5.930   1.797
 1206TIP3   OH2 3560   4.339   1.044   6.243
 1206TIP3    H1 3561   4.424   1.054   6.201
 1206TIP3    H2 3562   4.329   1.122   6.297
 1207TIP3   OH2 3563   2.602   5.754   6.331
 1207TIP3    H1 3564   2.586   5.831   6.385
 1207TIP3    H2 3565   2.581   5.680   6.388
 1208TIP3   OH2 3566   6.263   0.266   6.689
 1208TIP3    H1 3567   6.261   0.219   6.773
 1208TIP3    H2 3568   6.262   0.197   6.623
 1209TIP3   OH2 3569   3.379   0.906   3.619
 1209TIP3    H1 3570   3.329   0.897   3.538
 1209TIP3    H2 3571   3.469   0.918   3.591
 1210TIP3   OH2 3572   0.852   3.375   2.688
 1210TIP3    H1 3573   0.849   3.454   2.741
 1210TIP3    H2 3574   0.766   3.373   2.644
 1211TIP3   OH2 3575   5.908   2.784   4.724
 1211TIP3    H1 3576   5.848   2.726   4.678
 1211TIP3    H2 3577   5.871   2.872   4.712
 1212TIP3   OH2 3578   6.847   0.873   3.914
 1212TIP3    H1 3579   6.916   0.812   3.939
 1212TIP3    H2 3580   6.829   0.924   3.993
 1213TIP3   OH2 3581   2.413   5.358   1.940
 1213TIP3    H1 3582   2.364   5.333   2.019
 1213TIP3    H2 3583   2.406   5.282   1.883
 1214TIP3   OH2 3584   7.304   3.819   4.711
 1214TIP3    H1 3585   7.308   3.817   4.616
 1214TIP3    H2 3586   7.394   3.838   4.738
 1215TIP3   OH2 3587   2.097   3.189   0.605
 1215TIP3    H1 3588   2.037   3.116   0.588
 1215TIP3    H2 3589   2.171   3.150   0.651
 1216TIP3   OH2 3590   3.941   2.540   0.412
 1216TIP3    H1 3591   3.885   2.563   0.338
 1216TIP3    H2 3592   3.880   2.517   0.482
 1217TIP3   OH2 3593   0.434   1.805   3.932
 1217TIP3    H1 3594   0.379   1.854   3.993
 1217TIP3    H2 3595   0.518   1.798   3.977
 1218TIP3   OH2 3596   6.479   5.665   0.095
 1218TIP3    H1 3597   6.463   5.581   0.053
 1218TIP3    H2 3598   6.439   5.658   0.181
 1219TIP3   OH2 3599   7.905   6.892   1.879
 1219TIP3    H1 3600   7.927   6.875   1.787
 1219TIP3    H2 3601   7.887   6.986   1.882
 1220TIP3   OH2 3602   2.158   7.338   3.407
 1220TIP3    H1 3603   2.195   7.345   3.495
 1220TIP3    H2 3604   2.095   7.410   3.402
 1221TIP3   OH2 3605   5.618   0.891   0.859
 1221TIP3    H1 3606   5.713   0.880   0.849
 1221TIP3    H2 3607   5.591   0.814   0.909
 1222TIP3   OH2 3608   2.008   3.441   1.359
 1222TIP3    H1 3609   1.990   3.525   1.401
 1222TIP3    H2 3610   1.967   3.376   1.416
 1223TIP3   OH2 3611   7.256   5.379   1.205
 1223TIP3    H1 3612   7.334   5.325   1.215
 1223TIP3    H2 3613   7.287   5.468   1.218
 1224TIP3   OH2 3614   7.598   6.362   2.700
 1224TIP3    H1 3615   7.550   6.411   2.633
 1224TIP3    H2 3616   7.529   6.320   2.752
 1225TIP3   OH2 3617   0.642   5.906   4.102
 1225TIP3    H1 3618   0.687   5.828   4.135
 1225TIP3    H2 3619   0.620   5.883   4.011
 1226TIP3   OH2 3620   3.983   5.583   4.442
 1226TIP3    H1 3621   3.917   5.641   4.480
 1226TIP3    H2 3622   3.936   5.503   4.419
 1227TIP3   OH2 3623   8.274   1.815   0.498
 1227TIP3    H1 3624   8.228   1.898   0.482
 1227TIP3    H2 3625   8.206   1.757   0.531
 1228TIP3   OH2 3626   6.773   4.906   2.403
 1228TIP3    H1 3627   6.795   4.815   2.424
 1228TIP3    H2 3628   6.825   4.958   2.465
 1229TIP3   OH2 3629   1.807   3.131   3.954
 1229TIP3    H1 3630   1.747   3.078   3.902
 1229TIP3    H2 3631   1.752   3.201   3.990
 1230TIP3   OH2 3632   1.402   4.477   0.175
 1230TIP3    H1 3633   1.390   4.567   0.204
 1230TIP3    H2 3634   1.319   4.454   0.132
 1231TIP3   OH2 3635   4.757   5.202   0.663
 1231TIP3    H1 3636   4.728   5.265   0.729
 1231TIP3    H2 3637   4.852   5.197   0.674
 1232TIP3   OH2 3638   2.695   1.880   0.060
 1232TIP3    H1 3639   2.617   1.899   0.112
 1232TIP3    H2 3640   2.765   1.931   0.102
 1233TIP3   OH2 3641   5.406   4.533   4.933
 1233TIP3    H1 3642   5.478   4.568   4.985
 1233TIP3    H2 3643   5.443   4.458   4.887
 1234TIP3   OH2 3644   6.828   2.601   6.170
 1234TIP3    H1 3645   6.863   2.590   6.081
 1234TIP3    H2 3646   6.736   2.626   6.157
 1235TIP3   OH2 3647   4.927   3.284   3.171
 1235TIP3    H1 3648   4.987   3.341   3.123
 1235TIP3    H2 3649   4.884   3.341   3.234
 1236TIP3   OH2 3650   0.479   7.595   2.405
 1236TIP3    H1 3651   0.509   7.510   2.372
 1236TIP3    H2 3652   0.488   7.654   2.330
 1237TIP3   OH2 3653   3.934   2.034   5.172
 1237TIP3    H1 3654   3.878   2.041   5.096
 1237TIP3    H2 3655   3.908   2.107   5.228
 1238TIP3   OH2 3656   3.021   6.196   5.394
 1238TIP3    H1 3657   3.047   6.128   5.332
 1238TIP3    H2 3658   2.987   6.149   5.470
 1239TIP3   OH2 3659   3.087   2.654   4.989
 1239TIP3    H1 3660   3.048   2.587   4.932
 1239TIP3    H2 3661   3.114   2.724   4.929
 1240TIP3   OH2 3662   4.049   5.096   0.135
 1240TIP3    H1 3663   4.076   5.064   0.221
 1240TIP3    H2 3664   3.969   5.047   0.115
 1241TIP3   OH2 3665   0.490   0.668   5.304
 1241TIP3    H1 3666   0.553   0.623   5.247
 1241TIP3    H2 3667   0.412   0.612   5.302
 1242TIP3   OH2 3668   1.267   5.940   6.223
 1242TIP3    H1 3669   1.345   5.949   6.277
 1242TIP3    H2 3670   1.283   5.997   6.147
 1243TIP3   OH2 3671   2.793   2.169   6.581
 1243TIP3    H1 3672   2.712   2.219   6.580
 1243TIP3    H2 3673   2.772   2.089   6.533
 1244TIP3   OH2 3674   6.484   0.264   5.805
 1244TIP3    H1 3675   6.540   0.199   5.761
 1244TIP3    H2 3676   6.417   0.285   5.740
 1245TIP3   OH2 3677   4.176   5.299   1.596
 1245TIP3    H1 3678   4.091   5.259   1.611
 1245TIP3    H2 3679   4.239   5.227   1.603
 1246TIP3   OH2 3680   2.678   0.285   5.250
 1246TIP3    H1 3681   2.768   0.257   5.232
 1246TIP3    H2 3682   2.628   0.251   5.176
 1247TIP3   OH2 3683   7.446   2.298   1.685
 1247TIP3    H1 3684   7.489   2.229   1.634
 1247TIP3    H2 3685   7.378   2.332   1.626
 1248TIP3   OH2 3686   6.228   7.454   3.577
 1248TIP3    H1 3687   6.299   7.423   3.521
 1248TIP3    H2 3688   6.149   7.441   3.525
 1249TIP3   OH2 3689   3.691   6.904   5.709
 1249TIP3    H1 3690   3.767   6.898   5.651
 1249TIP3    H2 3691   3.624   6.852   5.666
 1250TIP3   OH2 3692   3.314   5.978   4.482
 1250TIP3    H1 3693   3.400   6.015   4.463
 1250TIP3    H2 3694   3.326   5.884   4.471
 1251TIP3   OH2 3695   4.116   0.592   0.427
 1251TIP3    H1 3696   4.029   0.557   0.406
 1251TIP3    H2 3697   4.104   0.636   0.511
 1252TIP3   OH2 3698   4.892   3.601   6.424
 1252TIP3    H1 3699   4.904   3.571   6.334
 1252TIP3    H2 3700   4.872   3.694   6.416
 1253TIP3   OH2 3701   0.767   2.073   6.702
 1253TIP3    H1 3702   0.837   2.094   6.764
 1253TIP3    H2 3703   0.687   2.104   6.744
 1254TIP3   OH2 3704   7.600   4.511   6.252
 1254TIP3    H1 3705   7.514   4.553   6.248
 1254TIP3    H2 3706   7.662   4.583   6.249
 1255TIP3   OH2 3707   2.527   6.582   3.229
 1255TIP3    H1 3708   2.561   6.494   3.218
 1255TIP3    H2 3709   2.524   6.595   3.324
 1256TIP3   OH2 3710   4.381   2.171   0.555
 1256TIP3    H1 3711   4.380   2.173   0.459
 1256TIP3    H2 3712   4.304   2.221   0.580
 1257TIP3   OH2 3713   3.097   5.994   0.917
 1257TIP3    H1 3714   3.131   6.037   0.838
 1257TIP3    H2 3715   3.059   6.065   0.968
 1258TIP3   OH2 3716   7.115   0.349   6.718
 1258TIP3    H1 3717   7.174   0.397   6.776
 1258TIP3    H2 3718   7.055   0.304   6.778
 1259TIP3   OH2 3719   4.406   2.401   6.651
 1259TIP3    H1 3720   4.336   2.338   6.637
 1259TIP3    H2 3721   4.449   2.373   6.731
 1260TIP3   OH2 3722   5.588   2.088   0.822
 1260TIP3    H1 3723   5.515   2.150   0.813
 1260TIP3    H2 3724   5.556   2.007   0.783
 1261TIP3   OH2 3725   0.500   3.242   6.493
 1261TIP3    H1 3726   0.412   3.211   6.471
 1261TIP3    H2 3727   0.517   3.209   6.581
 1262TIP3   OH2 3728   5.977   5.757   6.609
 1262TIP3    H1 3729   5.908   5.724   6.666
 1262TIP3    H2 3730   6.045   5.691   6.612
 1263TIP3   OH2 3731   2.074   4.418   5.767
 1263TIP3    H1 3732   2.100   4.328   5.747
 1263TIP3    H2 3733   2.014   4.410   5.841
 1264TIP3   OH2 3734   7.658   6.576   4.254
 1264TIP3    H1 3735   7.704   6.494   4.274
 1264TIP3    H2 3736   7.661   6.582   4.158
 1265TIP3   OH2 3737   7.557   5.876   0.819
 1265TIP3    H1 3738   7.504   5.889   0.898
 1265TIP3    H2 3739   7.634   5.931   0.832
 1266TIP3   OH2 3740   7.973   1.334   4.035
 1266TIP3    H1 3741   8.059   1.311   3.998
 1266TIP3    H2 3742   7.930   1.384   3.965
 1267TIP3   OH2 3743   5.573   5.142   3.928
 1267TIP3    H1 3744   5.600   5.064   3.881
 1267TIP3    H2 3745   5.498   5.175   3.879
 1268TIP3   OH2 3746   1.107   4.373   4.518
 1268TIP3    H1 3747   1.035   4.321   4.552
 1268TIP3    H2 3748   1.137   4.325   4.441
 1269TIP3   OH2 3749   7.325   0.051   4.682
 1269TIP3    H1 3750   7.261  -0.020   4.674
 1269TIP3    H2 3751   7.371   0.033   4.764
 1270TIP3   OH2 3752   3.013   6.464   4.185
 1270TIP3    H1 3753   2.940   6.470   4.246
 1270TIP3    H2 3754   2.985   6.515   4.109
 1271TIP3   OH2 3755   7.642   2.674   2.104
 1271TIP3    H1 3756   7.655   2.748   2.045
 1271TIP3    H2 3757   7.550   2.649   2.091
 1272TIP3   OH2 3758   4.972   1.885   6.435
 1272TIP3    H1 3759   4.918   1.875   6.357
 1272TIP3    H2 3760   5.022   1.965   6.421
 1273TIP3   OH2 3761   0.325   1.028   3.883
 1273TIP3    H1 3762   0.376   1.106   3.904
 1273TIP3    H2 3763   0.390   0.958   3.873
 1274TIP3   OH2 3764   3.409   0.489   4.174
 1274TIP3    H1 3765   3.386   0.416   4.116
 1274TIP3    H2 3766   3.347   0.483   4.247
 1275TIP3   OH2 3767   3.799   4.186   6.446
 1275TIP3    H1 3768   3.749   4.161   6.368
 1275TIP3    H2 3769   3.752   4.262   6.480
 1276TIP3   OH2 3770   8.144   0.443   6.751
 1276TIP3    H1 3771   8.236   0.435   6.774
 1276TIP3    H2 3772   8.142   0.514   6.686
 1277TIP3   OH2 3773   7.221   1.409   4.857
 1277TIP3    H1 3774   7.303   1.431   4.901
 1277TIP3    H2 3775   7.153   1.452   4.909
 1278TIP3   OH2 3776   4.553   4.055   1.261
 1278TIP3    H1 3777   4.603   3.983   1.300
 1278TIP3    H2 3778   4.496   4.011   1.197
 1279TIP3   OH2 3779   2.804   5.987   1.744
 1279TIP3    H1 3780   2.770   5.915   1.691
 1279TIP3    H2 3781   2.815   5.950   1.831
 1280TIP3   OH2 3782   7.125   3.967   3.181
 1280TIP3    H1 3783   7.081   3.913   3.246
 1280TIP3    H2 3784   7.191   3.909   3.143
 1281TIP3   OH2 3785   0.800   1.755   6.291
 1281TIP3    H1 3786   0.844   1.782   6.372
 1281TIP3    H2 3787   0.789   1.660   6.301
 1282TIP3   OH2 3788   5.353   6.173   1.026
 1282TIP3    H1 3789   5.393   6.097   0.984
 1282TIP3    H2 3790   5.272   6.139   1.064
 1283TIP3   OH2 3791   2.722   6.869   0.953
 1283TIP3    H1 3792   2.693   6.953   0.917
 1283TIP3    H2 3793   2.699   6.805   0.886
 1284TIP3   OH2 3794   0.698   5.833   1.199
 1284TIP3    H1 3795   0.769   5.851   1.138
 1284TIP3    H2 3796   0.690   5.912   1.251
 1285TIP3   OH2 3797   2.634   3.060   5.989
 1285TIP3    H1 3798   2.697   3.115   6.036
 1285TIP3    H2 3799   2.643   2.974   6.029
 1286TIP3   OH2 3800   4.132   0.807   2.867
 1286TIP3    H1 3801   4.093   0.893   2.880
 1286TIP3    H2 3802   4.221   0.825   2.838
 1287TIP3   OH2 3803   6.852   2.898   2.727
 1287TIP3    H1 3804   6.767   2.893   2.684
 1287TIP3    H2 3805   6.838   2.863   2.814
 1288TIP3   OH2 3806   1.896   3.251   2.463
 1288TIP3    H1 3807   1.847   3.196   2.401
 1288TIP3    H2 3808   1.985   3.251   2.429
 1289TIP3   OH2 3809   2.811   5.331   2.043
 1289TIP3    H1 3810   2.900   5.334   2.008
 1289TIP3    H2 3811   2.762   5.282   1.977
 1290TIP3   OH2 3812   6.577   1.497   3.805
 1290TIP3    H1 3813   6.543   1.554   3.875
 1290TIP3    H2 3814   6.631   1.433   3.851
 1291TIP3   OH2 3815   6.709   1.774   1.240
 1291TIP3    H1 3816   6.619   1.751   1.263
 1291TIP3    H2 3817   6.760   1.753   1.319
 1292TIP3   OH2 3818   6.661   0.414   1.921
 1292TIP3    H1 3819   6.741   0.421   1.870
 1292TIP3    H2 3820   6.655   0.321   1.944
 1293TIP3   OH2 3821   5.272   7.025   4.922
 1293TIP3    H1 3822   5.276   7.102   4.978
 1293TIP3    H2 3823   5.348   6.973   4.948
 1294TIP3   OH2 3824   5.317   0.822   2.900
 1294TIP3    H1 3825   5.322   0.917   2.890
 1294TIP3    H2 3826   5.406   0.791   2.885
 1295TIP3   OH2 3827   2.491   2.316   4.881
 1295TIP3    H1 3828   2.478   2.248   4.948
 1295TIP3    H2 3829   2.404   2.332   4.846
 1296TIP3   OH2 3830   1.316   5.349   2.581
 1296TIP3    H1 3831   1.401   5.353   2.624
 1296TIP3    H2 3832   1.267   5.283   2.630
 1297TIP3   OH2 3833   0.506   5.276   2.014
 1297TIP3    H1 3834   0.599   5.262   2.034
 1297TIP3    H2 3835   0.507   5.322   1.930
 1298TIP3   OH2 3836   4.278   5.338   4.621
 1298TIP3    H1 3837   4.285   5.321   4.715
 1298TIP3    H2 3838   4.365   5.317   4.587
 1299TIP3   OH2 3839   3.077   2.541   3.809
 1299TIP3    H1 3840   3.113   2.525   3.896
 1299TIP3    H2 3841   3.127   2.484   3.751
 1300TIP3   OH2 3842   4.673   2.191   3.406
 1300TIP3    H1 3843   4.642   2.170   3.318
 1300TIP3    H2 3844   4.744   2.129   3.423
 1301TIP3   OH2 3845   3.603   3.965   5.316
 1301TIP3    H1 3846   3.590   3.975   5.222
 1301TIP3    H2 3847   3.666   4.033   5.339
 1302TIP3   OH2 3848   1.954   5.752   5.325
 1302TIP3    H1 3849   1.863   5.751   5.356
 1302TIP3    H2 3850   1.948   5.781   5.234
 1303TIP3   OH2 3851   0.000   4.191   5.117
 1303TIP3    H1 3852  -0.001   4.286   5.127
 1303TIP3    H2 3853  -0.009   4.177   5.023
 1304TIP3   OH2 3854   2.966   1.443   3.615
 1304TIP3    H1 3855   2.987   1.429   3.707
 1304TIP3    H2 3856   3.000   1.530   3.595
 1305TIP3   OH2 3857   3.866   4.082   4.246
 1305TIP3    H1 3858   3.806   4.068   4.173
 1305TIP3    H2 3859   3.833   4.025   4.316
 1306TIP3   OH2 3860   6.786   6.167   5.031
 1306TIP3    H1 3861   6.699   6.206   5.042
 1306TIP3    H2 3862   6.842   6.241   5.009
 1307TIP3   OH2 3863   3.476   4.860   4.837
 1307TIP3    H1 3864   3.425   4.917   4.780
 1307TIP3    H2 3865   3.557   4.844   4.789
 1308TIP3   OH2 3866   6.998   3.871   0.587
 1308TIP3    H1 3867   7.013   3.860   0.681
 1308TIP3    H2 3868   7.063   3.813   0.546
 1309TIP3   OH2 3869   1.440   1.643   4.436
 1309TIP3    H1 3870   1.471   1.649   4.345
 1309TIP3    H2 3871   1.484   1.715   4.481
 1310TIP3   OH2 3872   3.752   6.717   0.943
 1310TIP3    H1 3873   3.677   6.711   1.003
 1310TIP3    H2 3874   3.824   6.746   0.998
 1311TIP3   OH2 3875   6.624   4.201   1.822
 1311TIP3    H1 3876   6.584   4.157   1.896
 1311TIP3    H2 3877   6.567   4.181   1.748
 1312TIP3   OH2 3878   3.746   3.016   5.701
 1312TIP3    H1 3879   3.663   2.970   5.708
 1312TIP3    H2 3880   3.762   3.051   5.789
 1313TIP3   OH2 3881   1.042   1.788   2.463
 1313TIP3    H1 3882   1.013   1.829   2.382
 1313TIP3    H2 3883   1.015   1.696   2.455
 1314TIP3   OH2 3884   1.673   7.180   6.388
 1314TIP3    H1 3885   1.706   7.098   6.425
 1314TIP3    H2 3886   1.579   7.165   6.377
 1315TIP3   OH2 3887   3.596   6.635   1.419
 1315TIP3    H1 3888   3.652   6.683   1.358
 1315TIP3    H2 3889   3.639   6.644   1.504
 1316TIP3   OH2 3890   6.117   2.777   6.206
 1316TIP3    H1 3891   6.029   2.791   6.240
 1316TIP3    H2 3892   6.121   2.830   6.126
 1317TIP3   OH2 3893   1.415   7.129   1.964
 1317TIP3    H1 3894   1.440   7.052   1.913
 1317TIP3    H2 3895   1.477   7.197   1.936
 1318TIP3   OH2 3896   1.270   4.710   5.834
 1318TIP3    H1 3897   1.285   4.623   5.872
 1318TIP3    H2 3898   1.175   4.717   5.826
 1319TIP3   OH2 3899   3.696   5.553   5.787
 1319TIP3    H1 3900   3.695   5.648   5.773
 1319TIP3    H2 3901   3.783   5.534   5.821
 1320TIP3   OH2 3902   2.711   6.722   6.714
 1320TIP3    H1 3903   2.788   6.777   6.724
 1320TIP3    H2 3904   2.744   6.641   6.675
 1321TIP3   OH2 3905   4.512   6.262   4.803
 1321TIP3    H1 3906   4.472   6.210   4.733
 1321TIP3    H2 3907   4.591   6.213   4.827
 1322TIP3   OH2 3908   7.214   3.207   4.422
 1322TIP3    H1 3909   7.240   3.118   4.446
 1322TIP3    H2 3910   7.122   3.199   4.398
 1323TIP3   OH2 3911   1.042   6.366   2.688
 1323TIP3    H1 3912   1.136   6.384   2.688
 1323TIP3    H2 3913   1.003   6.439   2.640
 1324TIP3   OH2 3914   7.013   3.092   6.372
 1324TIP3    H1 3915   6.980   3.139   6.296
 1324TIP3    H2 3916   6.967   3.008   6.370
 1325TIP3   OH2 3917   3.436   5.968   0.663
 1325TIP3    H1 3918   3.457   5.911   0.589
 1325TIP3    H2 3919   3.501   5.946   0.729
 1326TIP3   OH2 3920   7.579   7.385   3.417
 1326TIP3    H1 3921   7.559   7.343   3.500
 1326TIP3    H2 3922   7.534   7.332   3.352
 1327TIP3   OH2 3923   4.799   0.285   6.085
 1327TIP3    H1 3924   4.803   0.312   6.177
 1327TIP3    H2 3925   4.709   0.302   6.059
 1328TIP3   OH2 3926   2.070   7.437   6.348
 1328TIP3    H1 3927   1.983   7.453   6.311
 1328TIP3    H2 3928   2.074   7.491   6.426
 1329TIP3   OH2 3929   7.688   0.052   2.283
 1329TIP3    H1 3930   7.620   0.000   2.325
 1329TIP3    H2 3931   7.707   0.122   2.345
 1330TIP3   OH2 3932   4.339   5.320   0.666
 1330TIP3    H1 3933   4.373   5.409   0.653
 1330TIP3    H2 3934   4.417   5.267   0.681
 1331TIP3   OH2 3935   6.153   1.179   4.467
 1331TIP3    H1 3936   6.221   1.156   4.404
 1331TIP3    H2 3937   6.183   1.141   4.550
 1332TIP3   OH2 3938   3.328   0.232   3.773
 1332TIP3    H1 3939   3.263   0.267   3.834
 1332TIP3    H2 3940   3.343   0.142   3.802
 1333TIP3   OH2 3941   7.354   4.112   1.482
 1333TIP3    H1 3942   7.410   4.062   1.542
 1333TIP3    H2 3943   7.372   4.203   1.503
 1334TIP3   OH2 3944   0.506   2.962   3.904
 1334TIP3    H1 3945   0.597   2.937   3.889
 1334TIP3    H2 3946   0.510   3.056   3.921
 1335TIP3   OH2 3947   4.782   2.716   4.868
 1335TIP3    H1 3948   4.848   2.651   4.891
 1335TIP3    H2 3949   4.785   2.780   4.940
 1336TIP3   OH2 3950   5.296   1.299   4.369
 1336TIP3    H1 3951   5.246   1.263   4.296
 1336TIP3    H2 3952   5.231   1.313   4.438
 1337TIP3   OH2 3953   0.706   1.914   0.222
 1337TIP3    H1 3954   0.788   1.910   0.271
 1337TIP3    H2 3955   0.648   1.853   0.266
 1338TIP3   OH2 3956   4.517   5.309   6.533
 1338TIP3    H1 3957   4.591   5.277   6.585
 1338TIP3    H2 3958   4.540   5.399   6.510
 1339TIP3   OH2 3959   1.980   0.675   5.356
 1339TIP3    H1 3960   1.984   0.639   5.444
 1339TIP3    H2 3961   2.068   0.707   5.339
 1340TIP3   OH2 3962   8.153   6.893   2.984
 1340TIP3    H1 3963   8.122   6.912   3.073
 1340TIP3    H2 3964   8.235   6.941   2.977
 1341TIP3   OH2 3965   3.914   3.331   5.290
 1341TIP3    H1 3966   3.916   3.286   5.205
 1341TIP3    H2 3967   4.006   3.339   5.315
 1342TIP3   OH2 3968   7.853   1.091   1.857
 1342TIP3    H1 3969   7.923   1.059   1.799
 1342TIP3    H2 3970   7.896   1.104   1.941
 1343TIP3   OH2 3971   4.929   1.508   6.313
 1343TIP3    H1 3972   4.993   1.515   6.384
 1343TIP3    H2 3973   4.981   1.516   6.233
 1344TIP3   OH2 3974   7.189   3.381   5.623
 1344TIP3    H1 3975   7.120   3.386   5.688
 1344TIP3    H2 3976   7.187   3.466   5.579
 1345TIP3   OH2 3977   3.530   0.479   6.664
 1345TIP3    H1 3978   3.507   0.565   6.629
 1345TIP3    H2 3979   3.452   0.425   6.648
 1346TIP3   OH2 3980   2.294   4.759   1.806
 1346TIP3    H1 3981   2.286   4.844   1.848
 1346TIP3    H2 3982   2.334   4.702   1.871
 1347TIP3   OH2 3983   8.304   6.369   5.966
 1347TIP3    H1 3984   8.343   6.295   6.013
 1347TIP3    H2 3985   8.281   6.431   6.035
 1348TIP3   OH2 3986   5.466   3.008   3.683
 1348TIP3    H1 3987   5.405   2.969   3.620
 1348TIP3    H2 3988   5.477   2.941   3.751
 1349TIP3   OH2 3989   2.075   4.076   2.628
 1349TIP3    H1 3990   2.072   4.035   2.714
 1349TIP3    H2 3991   2.156   4.128   2.630
 1350TIP3   OH2 3992   7.519   6.832   2.614
 1350TIP3    H1 3993   7.455   6.761   2.613
 1350TIP3    H2 3994   7.466   6.912   2.617
 1351TIP3   OH2 3995   1.998   6.263   4.671
 1351TIP3    H1 3996   1.905   6.280   4.659
 1351TIP3    H2 3997   2.035   6.272   4.583
 1352TIP3   OH2 3998   6.399   1.596   1.779
 1352TIP3    H1 3999   6.352   1.626   1.857
 1352TIP3    H2 4000   6.488   1.630   1.790
 1353TIP3   OH2 4001   6.577   1.910   1.016
 1353TIP3    H1 4002   6.657   1.883   1.062
 1353TIP3    H2 4003   6.512   1.919   1.085
 1354TIP3   OH2 4004   7.323   2.665   6.054
 1354TIP3    H1 4005   7.353   2.577   6.075
 1354TIP3    H2 4006   7.380   2.723   6.104
 1355TIP3   OH2 4007   7.564   4.533   5.539
 1355TIP3    H1 4008   7.524   4.568   5.619
 1355TIP3    H2 4009   7.537   4.441   5.537
 1356TIP3   OH2 4010   6.005   6.731   0.104
 1356TIP3    H1 4011   5.916   6.698   0.097
 1356TIP3    H2 4012   6.007   6.777   0.188
 1357TIP3   OH2 4013   7.466   2.849   6.178
 1357TIP3    H1 4014   7.535   2.914   6.188
 1357TIP3    H2 4015   7.440   2.828   6.267
 1358TIP3   OH2 4016   0.274   2.125   3.904
 1358TIP3    H1 4017   0.232   2.175   3.973
 1358TIP3    H2 4018   0.366   2.152   3.906
 1359TIP3   OH2 4019   7.802   5.082   5.583
 1359TIP3    H1 4020   7.834   5.152   5.526
 1359TIP3    H2 4021   7.881   5.033   5.608
 1360TIP3   OH2 4022   6.365   3.643   1.092
 1360TIP3    H1 4023   6.309   3.684   1.158
 1360TIP3    H2 4024   6.450   3.632   1.136
 1361TIP3   OH2 4025   2.619   2.717   3.309
 1361TIP3    H1 4026   2.594   2.625   3.320
 1361TIP3    H2 4027   2.712   2.715   3.288
 1362TIP3   OH2 4028   0.164   3.727   4.768
 1362TIP3    H1 4029   0.175   3.663   4.698
 1362TIP3    H2 4030   0.202   3.684   4.845
 1363TIP3   OH2 4031   3.823   5.180   4.050
 1363TIP3    H1 4032   3.872   5.106   4.013
 1363TIP3    H2 4033   3.890   5.237   4.088
 1364TIP3   OH2 4034   3.421   6.159   3.180
 1364TIP3    H1 4035   3.334   6.196   3.199
 1364TIP3    H2 4036   3.438   6.100   3.254
 1365TIP3   OH2 4037   5.563   1.494   3.849
 1365TIP3    H1 4038   5.508   1.417   3.867
 1365TIP3    H2 4039   5.595   1.521   3.935
 1366TIP3   OH2 4040   1.873   3.546   4.054
 1366TIP3    H1 4041   1.946   3.486   4.070
 1366TIP3    H2 4042   1.906   3.605   3.986
 1367TIP3   OH2 4043   0.922   0.153   3.081
 1367TIP3    H1 4044   0.952   0.066   3.054
 1367TIP3    H2 4045   0.830   0.141   3.102
 1368TIP3   OH2 4046   3.674   2.555   6.148
 1368TIP3    H1 4047   3.712   2.492   6.086
 1368TIP3    H2 4048   3.605   2.506   6.192
 1369TIP3   OH2 4049   1.212   2.553   4.064
 1369TIP3    H1 4050   1.135   2.547   4.122
 1369TIP3    H2 4051   1.285   2.525   4.119
 1370TIP3   OH2 4052   7.467   1.627   1.889
 1370TIP3    H1 4053   7.416   1.546   1.882
 1370TIP3    H2 4054   7.538   1.615   1.826
 1371TIP3   OH2 4055   0.770   6.791   2.829
 1371TIP3    H1 4056   0.792   6.700   2.809
 1371TIP3    H2 4057   0.682   6.803   2.794
 1372TIP3   OH2 4058   8.089   3.412   0.739
 1372TIP3    H1 4059   8.098   3.331   0.788
 1372TIP3    H2 4060   8.154   3.471   0.778
 1373TIP3   OH2 4061   7.247   6.894   3.963
 1373TIP3    H1 4062   7.218   6.888   3.872
 1373TIP3    H2 4063   7.174   6.937   4.008
 1374TIP3   OH2 4064   0.100   0.175   1.428
 1374TIP3    H1 4065   0.089   0.102   1.367
 1374TIP3    H2 4066   0.112   0.133   1.513
 1375TIP3   OH2 4067   7.889   1.751   5.598
 1375TIP3    H1 4068   7.905   1.799   5.680
 1375TIP3    H2 4069   7.930   1.666   5.612
 1376TIP3   OH2 4070   3.925   4.979   4.760
 1376TIP3    H1 4071   4.008   4.965   4.715
 1376TIP3    H2 4072   3.949   4.988   4.853
 1377TIP3   OH2 4073   7.317   3.396   1.920
 1377TIP3    H1 4074   7.277   3.390   1.833
 1377TIP3    H2 4075   7.408   3.371   1.905
 1378TIP3   OH2 4076   7.484   2.080   3.931
 1378TIP3    H1 4077   7.553   2.046   3.874
 1378TIP3    H2 4078   7.441   2.003   3.967
 1379TIP3   OH2 4079   0.920   1.022   1.986
 1379TIP3    H1 4080   0.960   0.940   2.016
 1379TIP3    H2 4081   0.894   1.066   2.067
 1380TIP3   OH2 4082   5.754   1.644   0.898
 1380TIP3    H1 4083   5.832   1.688   0.931
 1380TIP3    H2 4084   5.771   1.551   0.913
 1381TIP3   OH2 4085   5.443   0.387   1.206
 1381TIP3    H1 4086   5.395   0.335   1.271
 1381TIP3    H2 4087   5.488   0.454   1.258
 1382TIP3   OH2 4088   3.157   4.128   2.517
 1382TIP3    H1 4089   3.124   4.044   2.483
 1382TIP3    H2 4090   3.100   4.194   2.478
 1383TIP3   OH2 4091   3.292   5.415   4.419
 1383TIP3    H1 4092   3.311   5.322   4.433
 1383TIP3    H2 4093   3.212   5.432   4.469
 1384TIP3   OH2 4094   6.949   2.640   5.922
 1384TIP3    H1 4095   7.028   2.682   5.955
 1384TIP3    H2 4096   6.911   2.704   5.862
 1385TIP3   OH2 4097   4.205   1.326   4.169
 1385TIP3    H1 4098   4.238   1.344   4.081
 1385TIP3    H2 4099   4.230   1.236   4.186
 1386TIP3   OH2 4100   0.875   3.567   1.107
 1386TIP3    H1 4101   0.837   3.498   1.052
 1386TIP3    H2 4102   0.807   3.585   1.172
 1387TIP3   OH2 4103   1.080   1.167   2.605
 1387TIP3    H1 4104   1.112   1.200   2.689
 1387TIP3    H2 4105   1.139   1.204   2.540
 1388TIP3   OH2 4106   5.679   5.129   2.548
 1388TIP3    H1 4107   5.749   5.114   2.485
 1388TIP3    H2 4108   5.652   5.219   2.533
 1389TIP3   OH2 4109   8.259   3.592   4.911
 1389TIP3    H1 4110   8.325   3.646   4.869
 1389TIP3    H2 4111   8.182   3.649   4.920
 1390TIP3   OH2 4112   4.432   2.544   2.186
 1390TIP3    H1 4113   4.485   2.565   2.109
 1390TIP3    H2 4114   4.479   2.583   2.260
 1391TIP3   OH2 4115   8.159   5.325   5.372
 1391TIP3    H1 4116   8.125   5.396   5.318
 1391TIP3    H2 4117   8.202   5.369   5.445
 1392TIP3   OH2 4118   5.082   0.272   6.031
 1392TIP3    H1 4119   5.092   0.205   5.964
 1392TIP3    H2 4120   4.987   0.280   6.043
 1393TIP3   OH2 4121   0.834   2.968   6.689
 1393TIP3    H1 4122   0.834   2.991   6.596
 1393TIP3    H2 4123   0.921   2.994   6.721
 1394TIP3   OH2 4124   8.273   7.558   4.768
 1394TIP3    H1 4125   8.198   7.517   4.724
 1394TIP3    H2 4126   8.331   7.485   4.788
 1395TIP3   OH2 4127   0.111   7.298   6.329
 1395TIP3    H1 4128   0.114   7.369   6.393
 1395TIP3    H2 4129   0.049   7.328   6.262
 1396TIP3   OH2 4130   4.810   3.880   1.016
 1396TIP3    H1 4131   4.717   3.861   0.999
 1396TIP3    H2 4132   4.816   3.885   1.111
 1397TIP3   OH2 4133   4.313   6.623   2.869
 1397TIP3    H1 4134   4.325   6.543   2.920
 1397TIP3    H2 4135   4.219   6.636   2.867
 1398TIP3   OH2 4136   4.238   2.049   4.398
 1398TIP3    H1 4137   4.296   1.979   4.427
 1398TIP3    H2 4138   4.180   2.007   4.334
 1399TIP3   OH2 4139   5.643   7.243   4.444
 1399TIP3    H1 4140   5.552   7.215   4.439
 1399TIP3    H2 4141   5.641   7.336   4.418
 1400TIP3   OH2 4142   7.419   1.893   3.390
 1400TIP3    H1 4143   7.376   1.829   3.447
 1400TIP3    H2 4144   7.390   1.871   3.302
 1401TIP3   OH2 4145   3.259   7.057   1.142
 1401TIP3    H1 4146   3.262   7.152   1.158
 1401TIP3    H2 4147   3.330   7.040   1.080
 1402TIP3   OH2 4148   5.866   6.124   1.977
 1402TIP3    H1 4149   5.877   6.036   1.942
 1402TIP3    H2 4150   5.950   6.145   2.017
 1403TIP3   OH2 4151   3.588   2.153   6.530
 1403TIP3    H1 4152   3.496   2.165   6.553
 1403TIP3    H2 4153   3.617   2.080   6.585
 1404TIP3   OH2 4154   3.377   1.300   6.653
 1404TIP3    H1 4155   3.432   1.350   6.593
 1404TIP3    H2 4156   3.299   1.355   6.665
 1405TIP3   OH2 4157   3.117   5.554   6.703
 1405TIP3    H1 4158   3.058   5.582   6.773
 1405TIP3    H2 4159   3.201   5.595   6.724
 1406TIP3   OH2 4160   3.137   7.814   0.701
 1406TIP3    H1 4161   3.227   7.847   0.707
 1406TIP3    H2 4162   3.141   7.727   0.742
 1407TIP3   OH2 4163   1.631   7.683   5.880
 1407TIP3    H1 4164   1.599   7.722   5.798
 1407TIP3    H2 4165   1.556   7.688   5.939
 1408TIP3   OH2 4166   7.199   7.338   4.410
 1408TIP3    H1 4167   7.131   7.280   4.444
 1408TIP3    H2 4168   7.205   7.317   4.317
 1409TIP3   OH2 4169   3.568   7.422   3.080
 1409TIP3    H1 4170   3.646   7.386   3.123
 1409TIP3    H2 4171   3.585   7.412   2.987
 1410TIP3   OH2 4172   6.910   2.190   4.535
 1410TIP3    H1 4173   6.845   2.126   4.506
 1410TIP3    H2 4174   6.889   2.204   4.627
 1411TIP3   OH2 4175   5.406   5.919   2.632
 1411TIP3    H1 4176   5.368   5.914   2.720
 1411TIP3    H2 4177   5.498   5.897   2.645
 1412TIP3   OH2 4178   4.778   6.482   0.176
 1412TIP3    H1 4179   4.744   6.395   0.153
 1412TIP3    H2 4180   4.831   6.507   0.100
 1413TIP3   OH2 4181   0.523   4.748   3.855
 1413TIP3    H1 4182   0.608   4.711   3.876
 1413TIP3    H2 4183   0.523   4.835   3.896
 1414TIP3   OH2 4184   3.128   2.022   5.392
 1414TIP3    H1 4185   3.054   1.967   5.417
 1414TIP3    H2 4186   3.117   2.037   5.298
 1415TIP3   OH2 4187   5.765   4.361   5.378
 1415TIP3    H1 4188   5.799   4.445   5.346
 1415TIP3    H2 4189   5.687   4.346   5.326
 1416TIP3   OH2 4190   0.782   7.330   2.522
 1416TIP3    H1 4191   0.812   7.244   2.492
 1416TIP3    H2 4192   0.688   7.329   2.504
 1417TIP3   OH2 4193   0.924   2.352   0.746
 1417TIP3    H1 4194   0.902   2.336   0.837
 1417TIP3    H2 4195   0.840   2.362   0.702
 1418TIP3   OH2 4196   2.201   2.328   1.944
 1418TIP3    H1 4197   2.290   2.343   1.914
 1418TIP3    H2 4198   2.173   2.413   1.979
 1419TIP3   OH2 4199   5.437   3.439   0.586
 1419TIP3    H1 4200   5.442   3.534   0.602
 1419TIP3    H2 4201   5.349   3.425   0.553
 1420TIP3   OH2 4202   5.679   4.884   3.833
 1420TIP3    H1 4203   5.639   4.808   3.875
 1420TIP3    H2 4204   5.676   4.864   3.739
 1421TIP3   OH2 4205   7.543   5.890   5.453
 1421TIP3    H1 4206   7.615   5.940   5.414
 1421TIP3    H2 4207   7.509   5.947   5.522
 1422TIP3   OH2 4208   5.530   0.830   3.235
 1422TIP3    H1 4209   5.441   0.796   3.230
 1422TIP3    H2 4210   5.575   0.772   3.296
 1423TIP3   OH2 4211   4.755   5.677   2.507
 1423TIP3    H1 4212   4.682   5.714   2.557
 1423TIP3    H2 4213   4.722   5.594   2.473
 1424TIP3   OH2 4214   1.170   3.435   6.286
 1424TIP3    H1 4215   1.120   3.511   6.316
 1424TIP3    H2 4216   1.169   3.442   6.190
 1425TIP3   OH2 4217   5.071   0.664   3.464
 1425TIP3    H1 4218   5.115   0.586   3.499
 1425TIP3    H2 4219   5.041   0.638   3.377
 1426TIP3   OH2 4220   6.663   0.446   2.452
 1426TIP3    H1 4221   6.677   0.476   2.363
 1426TIP3    H2 4222   6.569   0.452   2.465
 1427TIP3   OH2 4223   7.256   1.247   2.699
 1427TIP3    H1 4224   7.307   1.167   2.691
 1427TIP3    H2 4225   7.166   1.220   2.681
 1428TIP3   OH2 4226   0.647   6.098   6.287
 1428TIP3    H1 4227   0.684   6.136   6.367
 1428TIP3    H2 4228   0.554   6.088   6.306
 1429TIP3   OH2 4229   2.059   4.472   1.366
 1429TIP3    H1 4230   2.133   4.419   1.337
 1429TIP3    H2 4231   2.078   4.560   1.333
 1430TIP3   OH2 4232   0.486   2.839   4.185
 1430TIP3    H1 4233   0.525   2.896   4.252
 1430TIP3    H2 4234   0.400   2.878   4.168
 1431TIP3   OH2 4235   0.413   5.393   1.579
 1431TIP3    H1 4236   0.367   5.309   1.580
 1431TIP3    H2 4237   0.446   5.401   1.489
 1432TIP3   OH2 4238   1.610   5.203   5.449
 1432TIP3    H1 4239   1.653   5.196   5.364
 1432TIP3    H2 4240   1.649   5.133   5.502
 1433TIP3   OH2 4241   2.112   6.394   4.919
 1433TIP3    H1 4242   2.073   6.367   4.836
 1433TIP3    H2 4243   2.038   6.424   4.972
 1434TIP3   OH2 4244   8.007   0.041   3.955
 1434TIP3    H1 4245   8.083  -0.013   3.976
 1434TIP3    H2 4246   7.941  -0.022   3.924
 1435TIP3   OH2 4247   4.944   0.577   4.653
 1435TIP3    H1 4248   4.946   0.484   4.631
 1435TIP3    H2 4249   5.009   0.587   4.723
 1436TIP3   OH2 4250   6.356   6.558   0.351
 1436TIP3    H1 4251   6.407   6.529   0.426
 1436TIP3    H2 4252   6.394   6.510   0.277
 1437TIP3   OH2 4253   5.244   1.388   3.808
 1437TIP3    H1 4254   5.164   1.347   3.843
 1437TIP3    H2 4255   5.312   1.323   3.822
 1438TIP3   OH2 4256   1.613   3.882   3.600
 1438TIP3    H1 4257   1.682   3.903   3.662
 1438TIP3    H2 4258   1.652   3.899   3.514
 1439TIP3   OH2 4259   0.209   4.416   3.083
 1439TIP3    H1 4260   0.114   4.409   3.090
 1439TIP3    H2 4261   0.238   4.440   3.171
 1440TIP3   OH2 4262   0.982   7.403   0.036
 1440TIP3    H1 4263   0.944   7.323   0.073
 1440TIP3    H2 4264   0.920   7.472   0.060
 1441TIP3   OH2 4265   0.736   5.395   4.144
 1441TIP3    H1 4266   0.774   5.338   4.211
 1441TIP3    H2 4267   0.775   5.365   4.062
 1442TIP3   OH2 4268   4.903   3.600   2.101
 1442TIP3    H1 4269   4.835   3.661   2.073
 1442TIP3    H2 4270   4.882   3.519   2.055
 1443TIP3   OH2 4271   6.501   7.632   6.608
 1443TIP3    H1 4272   6.580   7.668   6.568
 1443TIP3    H2 4273   6.478   7.558   6.553
 1444TIP3   OH2 4274   7.718   1.757   4.235
 1444TIP3    H1 4275   7.702   1.685   4.174
 1444TIP3    H2 4276   7.632   1.780   4.269
 1445TIP3   OH2 4277   6.531   3.789   5.802
 1445TIP3    H1 4278   6.493   3.718   5.854
 1445TIP3    H2 4279   6.592   3.745   5.743
 1446TIP3   OH2 4280   0.330   4.390   1.700
 1446TIP3    H1 4281   0.363   4.306   1.731
 1446TIP3    H2 4282   0.264   4.367   1.634
 1447TIP3   OH2 4283   7.858   7.699   3.686
 1447TIP3    H1 4284   7.918   7.713   3.760
 1447TIP3    H2 4285   7.808   7.781   3.680
 1448TIP3   OH2 4286   6.840   5.029   0.272
 1448TIP3    H1 4287   6.772   4.988   0.219
 1448TIP3    H2 4288   6.870   4.960   0.331
 1449TIP3   OH2 4289   0.263   1.958   0.068
 1449TIP3    H1 4290   0.212   2.039   0.060
 1449TIP3    H2 4291   0.331   1.966   0.001
 1450TIP3   OH2 4292   2.460   3.537   3.897
 1450TIP3    H1 4293   2.370   3.504   3.893
 1450TIP3    H2 4294   2.451   3.627   3.929
 1451TIP3   OH2 4295   7.208   7.703   6.718
 1451TIP3    H1 4296   7.162   7.778   6.679
 1451TIP3    H2 4297   7.184   7.706   6.811
 1452TIP3   OH2 4298   3.557   0.142   4.296
 1452TIP3    H1 4299   3.650   0.141   4.272
 1452TIP3    H2 4300   3.512   0.113   4.217
 1453TIP3   OH2 4301   0.529   2.489   5.761
 1453TIP3    H1 4302   0.565   2.566   5.805
 1453TIP3    H2 4303   0.577   2.415   5.799
 1454TIP3   OH2 4304   6.652   5.843   6.609
 1454TIP3    H1 4305   6.578   5.856   6.669
 1454TIP3    H2 4306   6.728   5.834   6.666
 1455TIP3   OH2 4307   1.617   5.727   6.358
 1455TIP3    H1 4308   1.684   5.706   6.293
 1455TIP3    H2 4309   1.535   5.720   6.310
 1456TIP3   OH2 4310   3.590   0.540   1.194
 1456TIP3    H1 4311   3.583   0.585   1.278
 1456TIP3    H2 4312   3.521   0.472   1.197
 1457TIP3   OH2 4313   1.414   3.559   2.980
 1457TIP3    H1 4314   1.364   3.497   2.927
 1457TIP3    H2 4315   1.489   3.508   3.011
 1458TIP3   OH2 4316   6.369   4.731   3.780
 1458TIP3    H1 4317   6.388   4.646   3.820
 1458TIP3    H2 4318   6.402   4.723   3.690
 1459TIP3   OH2 4319   3.148   4.074   5.794
 1459TIP3    H1 4320   3.139   3.994   5.743
 1459TIP3    H2 4321   3.174   4.140   5.731
 1460TIP3   OH2 4322   1.309   4.125   1.478
 1460TIP3    H1 4323   1.254   4.191   1.435
 1460TIP3    H2 4324   1.271   4.041   1.450
 1461TIP3   OH2 4325   4.836   3.450   0.784
 1461TIP3    H1 4326   4.864   3.541   0.789
 1461TIP3    H2 4327   4.882   3.414   0.708
 1462TIP3   OH2 4328   5.573   6.874   1.790
 1462TIP3    H1 4329   5.668   6.871   1.782
 1462TIP3    H2 4330   5.557   6.930   1.867
 1463TIP3   OH2 4331   1.290   0.036   0.009
 1463TIP3    H1 4332   1.302   0.040  -0.086
 1463TIP3    H2 4333   1.241   0.116   0.031
 1464TIP3   OH2 4334   4.680   2.385   4.246
 1464TIP3    H1 4335   4.690   2.412   4.338
 1464TIP3    H2 4336   4.589   2.407   4.225
 1465TIP3   OH2 4337   4.720   0.738   4.720
 1465TIP3    H1 4338   4.797   0.690   4.692
 1465TIP3    H2 4339   4.751   0.795   4.790
 1466TIP3   OH2 4340   7.573   2.906   4.532
 1466TIP3    H1 4341   7.526   2.972   4.583
 1466TIP3    H2 4342   7.576   2.941   4.444
 1467TIP3   OH2 4343   6.415   1.502   3.590
 1467TIP3    H1 4344   6.485   1.516   3.654
 1467TIP3    H2 4345   6.355   1.441   3.633
 1468TIP3   OH2 4346   7.572   6.367   5.959
 1468TIP3    H1 4347   7.596   6.280   5.991
 1468TIP3    H2 4348   7.478   6.363   5.944
 1469TIP3   OH2 4349   2.668   7.485   5.806
 1469TIP3    H1 4350   2.666   7.390   5.818
 1469TIP3    H2 4351   2.637   7.498   5.717
 1470TIP3   OH2 4352   7.766   2.152   4.211
 1470TIP3    H1 4353   7.796   2.236   4.176
 1470TIP3    H2 4354   7.758   2.096   4.134
 1471TIP3   OH2 4355   5.214   3.280   0.420
 1471TIP3    H1 4356   5.293   3.245   0.380
 1471TIP3    H2 4357   5.159   3.203   0.436
 1472TIP3   OH2 4358   0.877   3.886   5.825
 1472TIP3    H1 4359   0.955   3.831   5.822
 1472TIP3    H2 4360   0.819   3.843   5.888
 1473TIP3   OH2 4361   2.519   1.442   6.667
 1473TIP3    H1 4362   2.592   1.401   6.712
 1473TIP3    H2 4363   2.466   1.480   6.737
 1474TIP3   OH2 4364   6.634   6.787   6.423
 1474TIP3    H1 4365   6.659   6.862   6.477
 1474TIP3    H2 4366   6.616   6.825   6.337
 1475TIP3   OH2 4367   4.211   2.087   6.064
 1475TIP3    H1 4368   4.184   2.062   6.152
 1475TIP3    H2 4369   4.153   2.160   6.041
 1476TIP3   OH2 4370   3.683   4.399   3.450
 1476TIP3    H1 4371   3.642   4.485   3.442
 1476TIP3    H2 4372   3.650   4.364   3.533
 1477TIP3   OH2 4373   4.593   0.586   5.368
 1477TIP3    H1 4374   4.503   0.601   5.398
 1477TIP3    H2 4375   4.636   0.671   5.377
 1478TIP3   OH2 4376   5.012   6.853   0.119
 1478TIP3    H1 4377   5.000   6.814   0.032
 1478TIP3    H2 4378   5.013   6.778   0.179
 1479TIP3   OH2 4379   0.148   5.621   1.773
 1479TIP3    H1 4380   0.191   5.670   1.702
 1479TIP3    H2 4381   0.209   5.549   1.791
 1480TIP3   OH2 4382   4.790   1.634   2.247
 1480TIP3    H1 4383   4.785   1.553   2.298
 1480TIP3    H2 4384   4.707   1.638   2.201
 1481TIP3   OH2 4385   6.587   3.177   5.567
 1481TIP3    H1 4386   6.603   3.211   5.655
 1481TIP3    H2 4387   6.663   3.205   5.516
 1482TIP3   OH2 4388   1.367   6.048   3.998
 1482TIP3    H1 4389   1.390   5.980   3.934
 1482TIP3    H2 4390   1.283   6.082   3.966
 1483TIP3   OH2 4391   1.558   3.237   4.748
 1483TIP3    H1 4392   1.538   3.325   4.778
 1483TIP3    H2 4393   1.474   3.199   4.723
 1484TIP3   OH2 4394   7.029   7.207   3.761
 1484TIP3    H1 4395   6.958   7.255   3.804
 1484TIP3    H2 4396   7.105   7.223   3.816
 1485TIP3   OH2 4397   0.613   0.549   5.829
 1485TIP3    H1 4398   0.591   0.590   5.745
 1485TIP3    H2 4399   0.607   0.455   5.812
 1486TIP3   OH2 4400   1.119   3.806   4.510
 1486TIP3    H1 4401   1.104   3.815   4.415
 1486TIP3    H2 4402   1.153   3.890   4.537
 1487TIP3   OH2 4403   3.055   4.091   0.028
 1487TIP3    H1 4404   3.114   4.071  -0.045
 1487TIP3    H2 4405   2.974   4.045   0.007
 1488TIP3   OH2 4406   6.280   6.314   4.130
 1488TIP3    H1 4407   6.191   6.279   4.125
 1488TIP3    H2 4408   6.283   6.358   4.215
 1489TIP3   OH2 4409   7.196   1.958   2.457
 1489TIP3    H1 4410   7.220   1.993   2.543
 1489TIP3    H2 4411   7.186   2.036   2.402
 1490TIP3   OH2 4412   4.008   0.589   1.311
 1490TIP3    H1 4413   3.932   0.545   1.272
 1490TIP3    H2 4414   4.009   0.675   1.270
 1491TIP3   OH2 4415   6.343   7.092   2.343
 1491TIP3    H1 4416   6.264   7.124   2.387
 1491TIP3    H2 4417   6.379   7.026   2.403
 1492TIP3   OH2 4418   3.663   6.917   1.331
 1492TIP3    H1 4419   3.658   6.975   1.407
 1492TIP3    H2 4420   3.733   6.855   1.354
 1493TIP3   OH2 4421   6.214   2.322   5.580
 1493TIP3    H1 4422   6.142   2.267   5.610
 1493TIP3    H2 4423   6.253   2.273   5.507
 1494TIP3   OH2 4424   0.986   4.766   1.746
 1494TIP3    H1 4425   0.967   4.855   1.717
 1494TIP3    H2 4426   0.903   4.719   1.740
 1495TIP3   OH2 4427   0.953   6.911   0.872
 1495TIP3    H1 4428   0.953   7.006   0.861
 1495TIP3    H2 4429   0.942   6.876   0.784
 1496TIP3   OH2 4430   5.602   3.509   4.376
 1496TIP3    H1 4431   5.638   3.577   4.433
 1496TIP3    H2 4432   5.651   3.519   4.294
 1497TIP3   OH2 4433   0.921   2.551   2.287
 1497TIP3    H1 4434   0.866   2.537   2.364
 1497TIP3    H2 4435   0.867   2.523   2.214
 1498TIP3   OH2 4436   4.961   7.516   5.299
 1498TIP3    H1 4437   5.017   7.499   5.375
 1498TIP3    H2 4438   4.986   7.449   5.235
 1499TIP3   OH2 4439   6.173   6.342   5.868
 1499TIP3    H1 4440   6.101   6.279   5.877
 1499TIP3    H2 4441   6.220   6.337   5.951
 1500TIP3   OH2 4442   3.480   2.301   1.331
 1500TIP3    H1 4443   3.435   2.307   1.247
 1500TIP3    H2 4444   3.444   2.223   1.373
 1501TIP3   OH2 4445   2.320   5.838   1.804
 1501TIP3    H1 4446   2.348   5.765   1.748
 1501TIP3    H2 4447   2.360   5.915   1.764
 1502TIP3   OH2 4448   0.038   0.706   1.644
 1502TIP3    H1 4449   0.074   0.763   1.576
 1502TIP3    H2 4450  -0.039   0.667   1.603
 1503TIP3   OH2 4451   1.883   7.713   5.740
 1503TIP3    H1 4452   1.953   7.705   5.805
 1503TIP3    H2 4453   1.811   7.754   5.788
 1504TIP3   OH2 4454   4.855   5.971   0.232
 1504TIP3    H1 4455   4.922   6.003   0.292
 1504TIP3    H2 4456   4.900   5.905   0.179
 1505TIP3   OH2 4457   2.879   3.645   0.519
 1505TIP3    H1 4458   2.869   3.650   0.424
 1505TIP3    H2 4459   2.935   3.569   0.534
 1506TIP3   OH2 4460   1.960   4.157   1.329
 1506TIP3    H1 4461   1.902   4.232   1.339
 1506TIP3    H2 4462   1.984   4.156   1.236
 1507TIP3   OH2 4463   8.057   6.978   4.696
 1507TIP3    H1 4464   7.962   6.979   4.683
 1507TIP3    H2 4465   8.092   7.034   4.626
 1508TIP3   OH2 4466   3.902   2.559   3.160
 1508TIP3    H1 4467   3.982   2.542   3.210
 1508TIP3    H2 4468   3.864   2.636   3.202
 1509TIP3   OH2 4469   6.862   1.004   1.241
 1509TIP3    H1 4470   6.923   0.936   1.269
 1509TIP3    H2 4471   6.850   1.059   1.319
 1510TIP3   OH2 4472   0.611   0.127   0.186
 1510TIP3    H1 4473   0.544   0.195   0.189
 1510TIP3    H2 4474   0.693   0.174   0.201
 1511TIP3   OH2 4475   1.591   7.579   1.577
 1511TIP3    H1 4476   1.574   7.503   1.523
 1511TIP3    H2 4477   1.509   7.628   1.576
 1512TIP3   OH2 4478   7.482   5.427   6.188
 1512TIP3    H1 4479   7.396   5.386   6.200
 1512TIP3    H2 4480   7.534   5.395   6.262
 1513TIP3   OH2 4481   3.417   1.223   6.106
 1513TIP3    H1 4482   3.488   1.211   6.169
 1513TIP3    H2 4483   3.401   1.136   6.070
 1514TIP3   OH2 4484   0.631   3.707   6.238
 1514TIP3    H1 4485   0.573   3.763   6.290
 1514TIP3    H2 4486   0.630   3.623   6.283
 1515TIP3   OH2 4487   6.693   3.011   0.602
 1515TIP3    H1 4488   6.698   2.980   0.693
 1515TIP3    H2 4489   6.687   2.931   0.550
 1516TIP3   OH2 4490   0.587   6.470   3.547
 1516TIP3    H1 4491   0.548   6.416   3.615
 1516TIP3    H2 4492   0.628   6.408   3.487
 1517TIP3   OH2 4493   3.392   5.042   5.615
 1517TIP3    H1 4494   3.339   5.121   5.628
 1517TIP3    H2 4495   3.418   5.047   5.523
 1518TIP3   OH2 4496   3.590   0.254   2.528
 1518TIP3    H1 4497   3.614   0.170   2.489
 1518TIP3    H2 4498   3.577   0.312   2.453
 1519TIP3   OH2 4499   1.444   5.693   6.141
 1519TIP3    H1 4500   1.457   5.759   6.073
 1519TIP3    H2 4501   1.350   5.691   6.155
 1520TIP3   OH2 4502   0.537   7.558   6.447
 1520TIP3    H1 4503   0.539   7.471   6.406
 1520TIP3    H2 4504   0.630   7.583   6.453
 1521TIP3   OH2 4505   6.112   1.110   0.491
 1521TIP3    H1 4506   6.117   1.187   0.433
 1521TIP3    H2 4507   6.186   1.120   0.551
 1522TIP3   OH2 4508   4.859   4.849   6.548
 1522TIP3    H1 4509   4.792   4.798   6.503
 1522TIP3    H2 4510   4.852   4.937   6.510
 1523TIP3   OH2 4511   1.314   7.306   0.417
 1523TIP3    H1 4512   1.352   7.221   0.438
 1523TIP3    H2 4513   1.222   7.298   0.444
 1524TIP3   OH2 4514   6.465   0.613   5.170
 1524TIP3    H1 4515   6.457   0.591   5.263
 1524TIP3    H2 4516   6.380   0.650   5.147
 1525TIP3   OH2 4517   0.963   1.870   1.915
 1525TIP3    H1 4518   1.015   1.836   1.988
 1525TIP3    H2 4519   0.972   1.803   1.847
 1526TIP3   OH2 4520   3.881   0.761   2.768
 1526TIP3    H1 4521   3.856   0.853   2.756
 1526TIP3    H2 4522   3.976   0.763   2.778
 1527TIP3   OH2 4523   5.693   4.842   6.582
 1527TIP3    H1 4524   5.608   4.802   6.602
 1527TIP3    H2 4525   5.718   4.886   6.663
 1528TIP3   OH2 4526   2.854   1.162   5.713
 1528TIP3    H1 4527   2.805   1.243   5.701
 1528TIP3    H2 4528   2.788   1.097   5.738
 1529TIP3   OH2 4529   3.643   1.331   6.514
 1529TIP3    H1 4530   3.645   1.236   6.501
 1529TIP3    H2 4531   3.700   1.366   6.445
 1530TIP3   OH2 4532   0.502   7.361   1.790
 1530TIP3    H1 4533   0.591   7.351   1.823
 1530TIP3    H2 4534   0.498   7.306   1.712
 1531TIP3   OH2 4535   1.544   6.940   0.173
 1531TIP3    H1 4536   1.629   6.933   0.130
 1531TIP3    H2 4537   1.486   6.975   0.105
 1532TIP3   OH2 4538   5.012   5.698   3.742
 1532TIP3    H1 4539   5.065   5.765   3.699
 1532TIP3    H2 4540   4.947   5.748   3.792
 1533TIP3   OH2 4541   4.441   3.494   5.227
 1533TIP3    H1 4542   4.499   3.570   5.227
 1533TIP3    H2 4543   4.488   3.428   5.177
 1534TIP3   OH2 4544   0.284   0.457   4.079
 1534TIP3    H1 4545   0.270   0.485   3.988
 1534TIP3    H2 4546   0.334   0.528   4.118
 1535TIP3   OH2 4547   0.802   7.163   3.884
 1535TIP3    H1 4548   0.838   7.165   3.972
 1535TIP3    H2 4549   0.751   7.083   3.880
 1536TIP3   OH2 4550   1.941   3.140   3.469
 1536TIP3    H1 4551   1.856   3.109   3.438
 1536TIP3    H2 4552   1.945   3.112   3.561
 1537TIP3   OH2 4553   0.821   5.837   3.664
 1537TIP3    H1 4554   0.903   5.878   3.692
 1537TIP3    H2 4555   0.824   5.840   3.568
 1538TIP3   OH2 4556   4.458   2.414   1.276
 1538TIP3    H1 4557   4.492   2.386   1.191
 1538TIP3    H2 4558   4.463   2.510   1.273
 1539TIP3   OH2 4559   1.238   2.914   0.669
 1539TIP3    H1 4560   1.185   2.979   0.623
 1539TIP3    H2 4561   1.320   2.960   0.689
 1540TIP3   OH2 4562   8.205   5.015   0.704
 1540TIP3    H1 4563   8.146   5.068   0.758
 1540TIP3    H2 4564   8.189   4.925   0.731
 1541TIP3   OH2 4565   5.447   0.586  -0.001
 1541TIP3    H1 4566   5.514   0.539   0.048
 1541TIP3    H2 4567   5.428   0.664   0.051
 1542TIP3   OH2 4568   2.538   2.627   4.339
 1542TIP3    H1 4569   2.521   2.591   4.252
 1542TIP3    H2 4570   2.560   2.551   4.393
 1543TIP3   OH2 4571   1.073   0.588   2.959
 1543TIP3    H1 4572   1.148   0.570   2.902
 1543TIP3    H2 4573   0.997   0.571   2.903
 1544TIP3   OH2 4574   1.414   6.924   2.311
 1544TIP3    H1 4575   1.372   7.000   2.350
 1544TIP3    H2 4576   1.342   6.862   2.295
 1545TIP3   OH2 4577   8.007   4.095   5.480
 1545TIP3    H1 4578   8.069   4.106   5.552
 1545TIP3    H2 4579   8.061   4.067   5.406
 1546TIP3   OH2 4580   3.416   6.259   1.912
 1546TIP3    H1 4581   3.452   6.214   1.836
 1546TIP3    H2 4582   3.333   6.295   1.882
 1547TIP3   OH2 4583   6.454   4.429   2.534
 1547TIP3    H1 4584   6.407   4.351   2.565
 1547TIP3    H2 4585   6.540   4.396   2.510
 1548TIP3   OH2 4586   0.149   5.720   3.064
 1548TIP3    H1 4587   0.176   5.659   3.133
 1548TIP3    H2 4588   0.207   5.700   2.991
 1549TIP3   OH2 4589   3.165   6.395   5.187
 1549TIP3    H1 4590   3.127   6.335   5.122
 1549TIP3    H2 4591   3.115   6.379   5.266
 1550TIP3   OH2 4592   2.157   3.872   5.370
 1550TIP3    H1 4593   2.158   3.967   5.355
 1550TIP3    H2 4594   2.221   3.859   5.440
 1551TIP3   OH2 4595   8.008   4.763   0.411
 1551TIP3    H1 4596   7.998   4.857   0.395
 1551TIP3    H2 4597   7.919   4.729   0.411
 1552TIP3   OH2 4598   3.586   4.955   0.051
 1552TIP3    H1 4599   3.675   4.985   0.068
 1552TIP3    H2 4600   3.566   4.896   0.124
 1553TIP3   OH2 4601   5.453   5.194   0.063
 1553TIP3    H1 4602   5.525   5.199   0.000
 1553TIP3    H2 4603   5.489   5.144   0.136
 1554TIP3   OH2 4604   7.807   6.531   3.029
 1554TIP3    H1 4605   7.789   6.440   3.051
 1554TIP3    H2 4606   7.767   6.582   3.100
 1555TIP3   OH2 4607   3.143   6.947   4.753
 1555TIP3    H1 4608   3.102   6.903   4.678
 1555TIP3    H2 4609   3.212   6.886   4.781
 1556TIP3   OH2 4610   7.380   5.644   1.011
 1556TIP3    H1 4611   7.462   5.633   0.963
 1556TIP3    H2 4612   7.320   5.683   0.948
 1557TIP3   OH2 4613   2.909   1.973   0.492
 1557TIP3    H1 4614   2.953   1.921   0.425
 1557TIP3    H2 4615   2.978   1.991   0.556
 1558TIP3   OH2 4616   6.333   5.316   4.952
 1558TIP3    H1 4617   6.373   5.367   5.023
 1558TIP3    H2 4618   6.402   5.256   4.924
 1559TIP3   OH2 4619   0.715   4.537   0.403
 1559TIP3    H1 4620   0.795   4.562   0.357
 1559TIP3    H2 4621   0.670   4.620   0.421
 1560TIP3   OH2 4622   6.408   3.270   2.190
 1560TIP3    H1 4623   6.392   3.346   2.135
 1560TIP3    H2 4624   6.438   3.202   2.129
 1561TIP3   OH2 4625   6.554   6.783   3.238
 1561TIP3    H1 4626   6.539   6.691   3.260
 1561TIP3    H2 4627   6.620   6.812   3.300
 1562TIP3   OH2 4628   6.353   5.560   2.709
 1562TIP3    H1 4629   6.321   5.473   2.732
 1562TIP3    H2 4630   6.285   5.619   2.741
 1563TIP3   OH2 4631   5.815   2.384   0.309
 1563TIP3    H1 4632   5.862   2.331   0.244
 1563TIP3    H2 4633   5.759   2.321   0.354
 1564TIP3   OH2 4634   8.194   3.051   4.218
 1564TIP3    H1 4635   8.274   3.102   4.208
 1564TIP3    H2 4636   8.124   3.116   4.216
 1565TIP3   OH2 4637   7.926   0.700   0.233
 1565TIP3    H1 4638   7.973   0.783   0.227
 1565TIP3    H2 4639   7.919   0.670   0.143
 1566TIP3   OH2 4640   7.777   2.008   1.399
 1566TIP3    H1 4641   7.808   2.074   1.336
 1566TIP3    H2 4642   7.856   1.966   1.431
 1567TIP3   OH2 4643   2.597   6.318   3.146
 1567TIP3    H1 4644   2.659   6.276   3.086
 1567TIP3    H2 4645   2.581   6.252   3.214
 1568TIP3   OH2 4646   8.223   0.320   2.120
 1568TIP3    H1 4647   8.202   0.251   2.058
 1568TIP3    H2 4648   8.305   0.358   2.086
 1569TIP3   OH2 4649   7.021   1.223   0.874
 1569TIP3    H1 4650   6.992   1.143   0.830
 1569TIP3    H2 4651   7.105   1.199   0.914
 1570TIP3   OH2 4652   1.381   1.006   2.434
 1570TIP3    H1 4653   1.294   1.043   2.424
 1570TIP3    H2 4654   1.417   1.049   2.512
 1571TIP3   OH2 4655   2.955   4.694   2.730
 1571TIP3    H1 4656   2.996   4.763   2.784
 1571TIP3    H2 4657   3.027   4.660   2.677
 1572TIP3   OH2 4658   2.280   0.004   4.506
 1572TIP3    H1 4659   2.347   0.025   4.570
 1572TIP3    H2 4660   2.201   0.047   4.539
 1573TIP3   OH2 4661   4.251   5.416   0.920
 1573TIP3    H1 4662   4.273   5.506   0.943
 1573TIP3    H2 4663   4.259   5.413   0.825
 1574TIP3   OH2 4664   3.196   0.507   5.666
 1574TIP3    H1 4665   3.268   0.470   5.615
 1574TIP3    H2 4666   3.223   0.597   5.683
 1575TIP3   OH2 4667   5.387   2.913   2.778
 1575TIP3    H1 4668   5.320   2.869   2.829
 1575TIP3    H2 4669   5.366   2.891   2.687
 1576TIP3   OH2 4670   7.046   0.650   3.670
 1576TIP3    H1 4671   7.073   0.633   3.580
 1576TIP3    H2 4672   6.950   0.647   3.667
 1577TIP3   OH2 4673   3.079   0.804   0.324
 1577TIP3    H1 4674   3.132   0.817   0.403
 1577TIP3    H2 4675   2.994   0.841   0.346
 1578TIP3   OH2 4676   4.494   5.379   3.470
 1578TIP3    H1 4677   4.580   5.343   3.492
 1578TIP3    H2 4678   4.512   5.449   3.407
 1579TIP3   OH2 4679   4.691   1.501   3.704
 1579TIP3    H1 4680   4.692   1.450   3.623
 1579TIP3    H2 4681   4.619   1.464   3.755
 1580TIP3   OH2 4682   1.328   6.758   0.004
 1580TIP3    H1 4683   1.288   6.674  -0.017
 1580TIP3    H2 4684   1.421   6.738   0.015
 1581TIP3   OH2 4685   7.284   6.558   2.983
 1581TIP3    H1 4686   7.223   6.626   3.010
 1581TIP3    H2 4687   7.367   6.603   2.972
 1582TIP3   OH2 4688   2.475   2.775   5.244
 1582TIP3    H1 4689   2.476   2.710   5.314
 1582TIP3    H2 4690   2.383   2.799   5.234
 1583TIP3   OH2 4691   2.384   5.382   2.256
 1583TIP3    H1 4692   2.397   5.477   2.250
 1583TIP3    H2 4693   2.438   5.355   2.330
 1584TIP3   OH2 4694   0.594   6.963   0.099
 1584TIP3    H1 4695   0.687   6.976   0.120
 1584TIP3    H2 4696   0.552   7.045   0.127
 1585TIP3   OH2 4697   5.173   0.349   4.001
 1585TIP3    H1 4698   5.157   0.318   4.090
 1585TIP3    H2 4699   5.086   0.368   3.966
 1586TIP3   OH2 4700   6.040   4.902   4.448
 1586TIP3    H1 4701   6.126   4.904   4.405
 1586TIP3    H2 4702   6.029   4.810   4.474
 1587TIP3   OH2 4703   2.869   6.438   0.550
 1587TIP3    H1 4704   2.908   6.440   0.462
 1587TIP3    H2 4705   2.877   6.346   0.577
 1588TIP3   OH2 4706   0.491   1.640   4.805
 1588TIP3    H1 4707   0.428   1.669   4.738
 1588TIP3    H2 4708   0.529   1.721   4.839
 1589TIP3   OH2 4709   2.436   0.797   6.137
 1589TIP3    H1 4710   2.506   0.829   6.080
 1589TIP3    H2 4711   2.481   0.757   6.211
 1590TIP3   OH2 4712   5.986   7.643   4.570
 1590TIP3    H1 4713   5.990   7.712   4.504
 1590TIP3    H2 4714   6.031   7.569   4.531
 1591TIP3   OH2 4715   7.288   7.772   2.431
 1591TIP3    H1 4716   7.240   7.854   2.447
 1591TIP3    H2 4717   7.340   7.791   2.352
 1592TIP3   OH2 4718   6.337   6.733   3.561
 1592TIP3    H1 4719   6.270   6.741   3.494
 1592TIP3    H2 4720   6.291   6.751   3.643
 1593TIP3   OH2 4721   3.310   2.385   4.936
 1593TIP3    H1 4722   3.311   2.295   4.905
 1593TIP3    H2 4723   3.242   2.428   4.884
 1594TIP3   OH2 4724   0.820   7.297   2.991
 1594TIP3    H1 4725   0.904   7.315   3.032
 1594TIP3    H2 4726   0.816   7.360   2.918
 1595TIP3   OH2 4727   3.461   1.003   2.125
 1595TIP3    H1 4728   3.391   1.007   2.189
 1595TIP3    H2 4729   3.454   1.085   2.076
 1596TIP3   OH2 4730   6.166   0.954   1.877
 1596TIP3    H1 4731   6.248   0.931   1.921
 1596TIP3    H2 4732   6.190   0.958   1.784
 1597TIP3   OH2 4733   3.992   6.563   1.640
 1597TIP3    H1 4734   4.063   6.504   1.668
 1597TIP3    H2 4735   4.038   6.641   1.607
 1598TIP3   OH2 4736   0.638   1.904   5.345
 1598TIP3    H1 4737   0.655   1.872   5.434
 1598TIP3    H2 4738   0.689   1.847   5.288
 1599TIP3   OH2 4739   1.299   1.348   3.278
 1599TIP3    H1 4740   1.236   1.374   3.345
 1599TIP3    H2 4741   1.323   1.258   3.302
 1600TIP3   OH2 4742   3.247   2.721   5.329
 1600TIP3    H1 4743   3.298   2.758   5.256
 1600TIP3    H2 4744   3.166   2.691   5.289
 1601TIP3   OH2 4745   1.913   2.016   3.019
 1601TIP3    H1 4746   1.909   2.108   3.044
 1601TIP3    H2 4747   1.848   2.007   2.949
 1602TIP3   OH2 4748   6.597   0.200   6.441
 1602TIP3    H1 4749   6.546   0.272   6.403
 1602TIP3    H2 4750   6.673   0.191   6.384
 1603TIP3   OH2 4751   1.876   7.395   1.469
 1603TIP3    H1 4752   1.888   7.463   1.403
 1603TIP3    H2 4753   1.957   7.344   1.466
 1604TIP3   OH2 4754   7.560   1.907   6.256
 1604TIP3    H1 4755   7.482   1.896   6.201
 1604TIP3    H2 4756   7.532   1.967   6.325
 1605TIP3   OH2 4757   3.872   3.584   4.179
 1605TIP3    H1 4758   3.916   3.578   4.264
 1605TIP3    H2 4759   3.781   3.604   4.201
 1606TIP3   OH2 4760   2.033   2.152   6.602
 1606TIP3    H1 4761   2.046   2.130   6.509
 1606TIP3    H2 4762   2.040   2.068   6.647
 1607TIP3   OH2 4763   1.169   0.780   6.275
 1607TIP3    H1 4764   1.257   0.806   6.303
 1607TIP3    H2 4765   1.132   0.734   6.350
 1608TIP3   OH2 4766   6.733   6.923   5.572
 1608TIP3    H1 4767   6.671   6.991   5.544
 1608TIP3    H2 4768   6.680   6.861   5.621
 1609TIP3   OH2 4769   0.371   0.035   5.457
 1609TIP3    H1 4770   0.458  -0.005   5.451
 1609TIP3    H2 4771   0.344   0.048   5.367
 1610TIP3   OH2 4772   0.372   5.807   1.894
 1610TIP3    H1 4773   0.321   5.749   1.950
 1610TIP3    H2 4774   0.365   5.769   1.807
 1611TIP3   OH2 4775   8.151   4.298   4.291
 1611TIP3    H1 4776   8.184   4.387   4.299
 1611TIP3    H2 4777   8.077   4.294   4.351
 1612TIP3   OH2 4778   1.460   1.915   1.044
 1612TIP3    H1 4779   1.414   1.831   1.050
 1612TIP3    H2 4780   1.455   1.940   0.952
 1613TIP3   OH2 4781   1.392   4.015   4.762
 1613TIP3    H1 4782   1.328   4.048   4.824
 1613TIP3    H2 4783   1.469   4.070   4.775
 1614TIP3   OH2 4784   5.233   1.240   5.491
 1614TIP3    H1 4785   5.301   1.270   5.431
 1614TIP3    H2 4786   5.273   1.247   5.578
 1615TIP3   OH2 4787   5.940   2.046   2.168
 1615TIP3    H1 4788   5.915   2.131   2.204
 1615TIP3    H2 4789   5.926   2.056   2.073
 1616TIP3   OH2 4790   5.397   5.769   5.086
 1616TIP3    H1 4791   5.318   5.772   5.139
 1616TIP3    H2 4792   5.469   5.777   5.149
 1617TIP3   OH2 4793   3.163   6.993   5.432
 1617TIP3    H1 4794   3.104   6.935   5.480
 1617TIP3    H2 4795   3.191   7.058   5.496
 1618TIP3   OH2 4796   3.836   6.512   0.086
 1618TIP3    H1 4797   3.747   6.546   0.086
 1618TIP3    H2 4798   3.845   6.468   0.002
 1619TIP3   OH2 4799   3.478   2.084   2.498
 1619TIP3    H1 4800   3.427   2.017   2.452
 1619TIP3    H2 4801   3.540   2.035   2.552
 1620TIP3   OH2 4802   1.332   1.327   2.529
 1620TIP3    H1 4803   1.307   1.296   2.442
 1620TIP3    H2 4804   1.403   1.269   2.556
 1621TIP3   OH2 4805   4.769   1.581   0.894
 1621TIP3    H1 4806   4.834   1.612   0.957
 1621TIP3    H2 4807   4.764   1.487   0.910
 1622TIP3   OH2 4808   5.233   3.187   6.612
 1622TIP3    H1 4809   5.313   3.238   6.622
 1622TIP3    H2 4810   5.183   3.234   6.545
 1623TIP3   OH2 4811   0.571   2.356   3.021
 1623TIP3    H1 4812   0.581   2.280   2.964
 1623TIP3    H2 4813   0.477   2.374   3.022
 1624TIP3   OH2 4814   8.114   6.412   6.498
 1624TIP3    H1 4815   8.147   6.486   6.548
 1624TIP3    H2 4816   8.034   6.386   6.543
 1625TIP3   OH2 4817   1.747   4.423   0.779
 1625TIP3    H1 4818   1.789   4.477   0.713
 1625TIP3    H2 4819   1.757   4.472   0.860
 1626TIP3   OH2 4820   7.414   2.235   4.604
 1626TIP3    H1 4821   7.458   2.195   4.529
 1626TIP3    H2 4822   7.476   2.223   4.677
 1627TIP3   OH2 4823   3.630   7.051   3.193
 1627TIP3    H1 4824   3.655   7.053   3.286
 1627TIP3    H2 4825   3.618   6.958   3.173
 1628TIP3   OH2 4826   7.484   2.050   6.471
 1628TIP3    H1 4827   7.415   2.035   6.535
 1628TIP3    H2 4828   7.565   2.044   6.521
 1629TIP3   OH2 4829   7.251   3.276   3.799
 1629TIP3    H1 4830   7.310   3.342   3.763
 1629TIP3    H2 4831   7.300   3.236   3.871
 1630TIP3   OH2 4832   0.820   6.681   0.043
 1630TIP3    H1 4833   0.883   6.655   0.111
 1630TIP3    H2 4834   0.736   6.685   0.089
 1631TIP3   OH2 4835   0.517   1.288   3.238
 1631TIP3    H1 4836   0.570   1.364   3.259
 1631TIP3    H2 4837   0.449   1.287   3.305
 1632TIP3   OH2 4838   4.675   3.151   5.846
 1632TIP3    H1 4839   4.595   3.202   5.837
 1632TIP3    H2 4840   4.733   3.185   5.777
 1633TIP3   OH2 4841   5.558   2.820   2.044
 1633TIP3    H1 4842   5.645   2.796   2.012
 1633TIP3    H2 4843   5.508   2.739   2.040
 1634TIP3   OH2 4844   7.512   4.588   4.341
 1634TIP3    H1 4845   7.530   4.584   4.435
 1634TIP3    H2 4846   7.472   4.504   4.320
 1635TIP3   OH2 4847   1.183   0.920   1.594
 1635TIP3    H1 4848   1.101   0.959   1.622
 1635TIP3    H2 4849   1.231   0.905   1.676
 1636TIP3   OH2 4850   5.734   4.621   2.657
 1636TIP3    H1 4851   5.754   4.652   2.745
 1636TIP3    H2 4852   5.728   4.526   2.665
 1637TIP3   OH2 4853   7.083   5.195   2.983
 1637TIP3    H1 4854   7.137   5.143   2.924
 1637TIP3    H2 4855   7.125   5.281   2.984
 1638TIP3   OH2 4856   7.986   2.511   5.827
 1638TIP3    H1 4857   8.001   2.456   5.904
 1638TIP3    H2 4858   7.896   2.542   5.836
 1639TIP3   OH2 4859   5.993   0.206   1.683
 1639TIP3    H1 4860   6.031   0.278   1.633
 1639TIP3    H2 4861   6.064   0.143   1.694
 1640TIP3   OH2 4862   1.923   3.708   2.006
 1640TIP3    H1 4863   1.917   3.630   2.059
 1640TIP3    H2 4864   1.961   3.774   2.064
 1641TIP3   OH2 4865   6.089   2.907   6.493
 1641TIP3    H1 4866   6.035   2.837   6.529
 1641TIP3    H2 4867   6.057   2.986   6.536
 1642TIP3   OH2 4868   0.685   0.189   1.363
 1642TIP3    H1 4869   0.694   0.279   1.394
 1642TIP3    H2 4870   0.756   0.142   1.407
 1643TIP3   OH2 4871   2.358   6.399   0.086
 1643TIP3    H1 4872   2.284   6.406   0.026
 1643TIP3    H2 4873   2.410   6.327   0.052
 1644TIP3   OH2 4874   0.770   0.870   2.348
 1644TIP3    H1 4875   0.806   0.820   2.275
 1644TIP3    H2 4876   0.686   0.829   2.366
 1645TIP3   OH2 4877   3.473   4.460   5.967
 1645TIP3    H1 4878   3.485   4.549   5.934
 1645TIP3    H2 4879   3.384   4.459   6.002
 1646TIP3   OH2 4880   7.073   3.321   4.691
 1646TIP3    H1 4881   7.073   3.400   4.745
 1646TIP3    H2 4882   7.144   3.335   4.628
 1647TIP3   OH2 4883   6.095   1.605   3.193
 1647TIP3    H1 4884   6.037   1.658   3.139
 1647TIP3    H2 4885   6.183   1.637   3.172
 1648TIP3   OH2 4886   0.878   5.366  -0.013
 1648TIP3    H1 4887   0.921   5.444   0.019
 1648TIP3    H2 4888   0.941   5.296   0.001
 1649TIP3   OH2 4889   1.920   6.819   2.575
 1649TIP3    H1 4890   1.868   6.898   2.590
 1649TIP3    H2 4891   1.911   6.802   2.481
 1650TIP3   OH2 4892   1.586   7.583   3.568
 1650TIP3    H1 4893   1.662   7.526   3.580
 1650TIP3    H2 4894   1.511   7.526   3.585
 1651TIP3   OH2 4895   1.088   5.096   6.220
 1651TIP3    H1 4896   1.155   5.082   6.287
 1651TIP3    H2 4897   1.007   5.063   6.260
 1652TIP3   OH2 4898   3.366   0.068   5.354
 1652TIP3    H1 4899   3.451   0.029   5.334
 1652TIP3    H2 4900   3.306   0.025   5.293
 1653TIP3   OH2 4901   1.108   5.957   5.892
 1653TIP3    H1 4902   1.083   6.049   5.889
 1653TIP3    H2 4903   1.144   5.945   5.980
 1654TIP3   OH2 4904   0.109   2.659   5.309
 1654TIP3    H1 4905   0.115   2.724   5.378
 1654TIP3    H2 4906   0.156   2.583   5.344
 1655TIP3   OH2 4907   5.606   3.523   0.811
 1655TIP3    H1 4908   5.554   3.460   0.762
 1655TIP3    H2 4909   5.640   3.583   0.745
 1656TIP3   OH2 4910   3.026   2.300   3.548
 1656TIP3    H1 4911   3.120   2.287   3.537
 1656TIP3    H2 4912   2.996   2.335   3.464
 1657TIP3   OH2 4913   7.303   4.526   1.896
 1657TIP3    H1 4914   7.213   4.558   1.902
 1657TIP3    H2 4915   7.356   4.597   1.932
 1658TIP3   OH2 4916   0.460   4.624   1.632
 1658TIP3    H1 4917   0.423   4.545   1.670
 1658TIP3    H2 4918   0.397   4.693   1.652
 1659TIP3   OH2 4919   5.633   2.288   6.288
 1659TIP3    H1 4920   5.658   2.251   6.203
 1659TIP3    H2 4921   5.576   2.362   6.266
 1660TIP3   OH2 4922   0.440   6.864   3.144
 1660TIP3    H1 4923   0.482   6.902   3.221
 1660TIP3    H2 4924   0.432   6.938   3.083
 1661TIP3   OH2 4925   0.021   4.495   1.351
 1661TIP3    H1 4926   0.081   4.468   1.421
 1661TIP3    H2 4927   0.033   4.429   1.282
 1662TIP3   OH2 4928   1.050   7.832   3.509
 1662TIP3    H1 4929   1.134   7.794   3.483
 1662TIP3    H2 4930   1.021   7.779   3.583
 1663TIP3   OH2 4931   4.351   1.224   2.541
 1663TIP3    H1 4932   4.410   1.151   2.523
 1663TIP3    H2 4933   4.276   1.209   2.482
 1664TIP3   OH2 4934   5.670   0.034   3.267
 1664TIP3    H1 4935   5.668  -0.044   3.323
 1664TIP3    H2 4936   5.754   0.075   3.285
 1665TIP3   OH2 4937   0.396   2.525   0.142
 1665TIP3    H1 4938   0.404   2.583   0.067
 1665TIP3    H2 4939   0.480   2.534   0.188
 1666TIP3   OH2 4940   2.826   2.254   3.742
 1666TIP3    H1 4941   2.912   2.272   3.703
 1666TIP3    H2 4942   2.768   2.243   3.667
 1667TIP3   OH2 4943   1.841   3.236   1.536
 1667TIP3    H1 4944   1.813   3.316   1.581
 1667TIP3    H2 4945   1.835   3.168   1.603
 1668TIP3   OH2 4946   3.182   2.886   4.864
 1668TIP3    H1 4947   3.278   2.894   4.866
 1668TIP3    H2 4948   3.163   2.858   4.775
 1669TIP3   OH2 4949   7.483   3.147   4.586
 1669TIP3    H1 4950   7.434   3.200   4.522
 1669TIP3    H2 4951   7.549   3.207   4.621
 1670TIP3   OH2 4952   1.795   2.267   2.075
 1670TIP3    H1 4953   1.749   2.198   2.123
 1670TIP3    H2 4954   1.879   2.228   2.052
 1671TIP3   OH2 4955   2.319   3.473   3.346
 1671TIP3    H1 4956   2.266   3.460   3.267
 1671TIP3    H2 4957   2.371   3.552   3.327
 1672TIP3   OH2 4958   0.929   1.792   2.967
 1672TIP3    H1 4959   0.895   1.788   2.878
 1672TIP3    H2 4960   0.948   1.884   2.981
 1673TIP3   OH2 4961   6.751   4.912   1.340
 1673TIP3    H1 4962   6.781   4.928   1.430
 1673TIP3    H2 4963   6.726   4.998   1.307
 1674TIP3   OH2 4964   3.768   0.524   0.872
 1674TIP3    H1 4965   3.848   0.493   0.830
 1674TIP3    H2 4966   3.718   0.566   0.802
 1675TIP3   OH2 4967   5.206   7.061   3.156
 1675TIP3    H1 4968   5.157   7.037   3.236
 1675TIP3    H2 4969   5.239   6.978   3.123
 1676TIP3   OH2 4970   6.297   6.078   2.368
 1676TIP3    H1 4971   6.330   6.078   2.279
 1676TIP3    H2 4972   6.349   6.012   2.414
 1677TIP3   OH2 4973   5.512   2.472   5.926
 1677TIP3    H1 4974   5.449   2.539   5.952
 1677TIP3    H2 4975   5.586   2.485   5.986
 1678TIP3   OH2 4976   2.613   1.234   2.733
 1678TIP3    H1 4977   2.612   1.328   2.715
 1678TIP3    H2 4978   2.658   1.196   2.658
 1679TIP3   OH2 4979   0.647   5.750   6.319
 1679TIP3    H1 4980   0.721   5.699   6.284
 1679TIP3    H2 4981   0.683   5.793   6.396
 1680TIP3   OH2 4982   7.307   1.182   4.734
 1680TIP3    H1 4983   7.306   1.112   4.799
 1680TIP3    H2 4984   7.256   1.252   4.774
 1681TIP3   OH2 4985   5.661   1.003   0.565
 1681TIP3    H1 4986   5.745   0.979   0.526
 1681TIP3    H2 4987   5.664   0.967   0.653
 1682TIP3   OH2 4988   5.430   2.843   6.059
 1682TIP3    H1 4989   5.486   2.888   5.996
 1682TIP3    H2 4990   5.490   2.793   6.114
 1683TIP3   OH2 4991   0.371   0.395   0.492
 1683TIP3    H1 4992   0.325   0.337   0.553
 1683TIP3    H2 4993   0.327   0.479   0.503
 1684TIP3   OH2 4994   2.413   6.257   6.406
 1684TIP3    H1 4995   2.349   6.322   6.376
 1684TIP3    H2 4996   2.441   6.289   6.491
 1685TIP3   OH2 4997   1.087   7.627   0.285
 1685TIP3    H1 4998   1.086   7.677   0.366
 1685TIP3    H2 4999   1.141   7.679   0.225
 1686TIP3   OH2 5000   6.567   7.717   2.984
 1686TIP3    H1 5001   6.533   7.630   3.009
 1686TIP3    H2 5002   6.544   7.726   2.892
 1687TIP3   OH2 5003   4.000   6.693   0.239
 1687TIP3    H1 5004   3.959   6.692   0.326
 1687TIP3    H2 5005   3.944   6.636   0.186
 1688TIP3   OH2 5006   5.636   0.587   6.496
 1688TIP3    H1 5007   5.628   0.637   6.577
 1688TIP3    H2 5008   5.658   0.652   6.430
 1689TIP3   OH2 5009   4.458   4.580   0.897
 1689TIP3    H1 5010   4.455   4.514   0.828
 1689TIP3    H2 5011   4.513   4.650   0.861
 1690TIP3   OH2 5012   6.435   6.797   6.132
 1690TIP3    H1 5013   6.405   6.706   6.129
 1690TIP3    H2 5014   6.383   6.841   6.065
 1691TIP3   OH2 5015   7.451   3.162   0.265
 1691TIP3    H1 5016   7.388   3.113   0.318
 1691TIP3    H2 5017   7.487   3.227   0.325
 1692TIP3   OH2 5018   7.813   3.422   1.391
 1692TIP3    H1 5019   7.770   3.474   1.323
 1692TIP3    H2 5020   7.831   3.338   1.349
 1693TIP3   OH2 5021   5.123   0.413   3.583
 1693TIP3    H1 5022   5.121   0.349   3.512
 1693TIP3    H2 5023   5.066   0.375   3.650
 1694TIP3   OH2 5024   3.432   0.169   4.932
 1694TIP3    H1 5025   3.342   0.166   4.964
 1694TIP3    H2 5026   3.426   0.215   4.848
 1695TIP3   OH2 5027   6.142   4.322   0.457
 1695TIP3    H1 5028   6.204   4.314   0.530
 1695TIP3    H2 5029   6.198   4.337   0.380
 1696TIP3   OH2 5030   0.369   1.324   0.891
 1696TIP3    H1 5031   0.423   1.354   0.964
 1696TIP3    H2 5032   0.323   1.247   0.925
 1697TIP3   OH2 5033   1.518   3.661   6.593
 1697TIP3    H1 5034   1.513   3.613   6.510
 1697TIP3    H2 5035   1.433   3.645   6.634
 1698TIP3   OH2 5036   1.213   3.544   2.366
 1698TIP3    H1 5037   1.240   3.525   2.455
 1698TIP3    H2 5038   1.294   3.566   2.320
 1699TIP3   OH2 5039   5.605   7.792   1.258
 1699TIP3    H1 5040   5.531   7.825   1.209
 1699TIP3    H2 5041   5.650   7.733   1.198
 1700TIP3   OH2 5042   1.838   2.704   6.023
 1700TIP3    H1 5043   1.861   2.728   6.113
 1700TIP3    H2 5044   1.779   2.629   6.033
 1701TIP3   OH2 5045   7.062   7.492   3.561
 1701TIP3    H1 5046   7.063   7.527   3.472
 1701TIP3    H2 5047   6.991   7.428   3.562
 1702TIP3   OH2 5048   5.456   2.342   3.018
 1702TIP3    H1 5049   5.505   2.343   3.100
 1702TIP3    H2 5050   5.446   2.249   2.998
 1703TIP3   OH2 5051   5.675   3.302   6.281
 1703TIP3    H1 5052   5.690   3.344   6.366
 1703TIP3    H2 5053   5.759   3.260   6.260
 1704TIP3   OH2 5054   7.455   1.411   3.502
 1704TIP3    H1 5055   7.426   1.356   3.429
 1704TIP3    H2 5056   7.421   1.368   3.580
 1705TIP3   OH2 5057   0.782   5.755   2.534
 1705TIP3    H1 5058   0.691   5.765   2.505
 1705TIP3    H2 5059   0.794   5.823   2.600
 1706TIP3   OH2 5060   1.462   5.183   5.901
 1706TIP3    H1 5061   1.473   5.096   5.861
 1706TIP3    H2 5062   1.464   5.244   5.827
 1707TIP3   OH2 5063   2.393   7.214   2.755
 1707TIP3    H1 5064   2.302   7.241   2.766
 1707TIP3    H2 5065   2.411   7.158   2.830
 1708TIP3   OH2 5066   6.848   1.658   6.353
 1708TIP3    H1 5067   6.768   1.691   6.395
 1708TIP3    H2 5068   6.898   1.619   6.424
 1709TIP3   OH2 5069   0.450   2.006   2.190
 1709TIP3    H1 5070   0.371   2.038   2.233
 1709TIP3    H2 5071   0.520   2.021   2.254
 1710TIP3   OH2 5072   6.459   7.468   2.952
 1710TIP3    H1 5073   6.388   7.432   2.898
 1710TIP3    H2 5074   6.524   7.398   2.955
 1711TIP3   OH2 5075   1.926   1.239   1.551
 1711TIP3    H1 5076   1.950   1.183   1.625
 1711TIP3    H2 5077   1.945   1.328   1.581
 1712TIP3   OH2 5078   1.881   2.523   2.324
 1712TIP3    H1 5079   1.870   2.552   2.233
 1712TIP3    H2 5080   1.798   2.481   2.345
 1713TIP3   OH2 5081   5.040   3.408   2.650
 1713TIP3    H1 5082   5.098   3.362   2.710
 1713TIP3    H2 5083   5.098   3.457   2.592
 1714TIP3   OH2 5084   2.620   4.844   3.968
 1714TIP3    H1 5085   2.665   4.928   3.957
 1714TIP3    H2 5086   2.663   4.804   4.044
 1715TIP3   OH2 5087   4.995   3.162   1.540
 1715TIP3    H1 5088   4.930   3.110   1.588
 1715TIP3    H2 5089   5.071   3.105   1.534
 1716TIP3   OH2 5090   3.994   6.965   2.154
 1716TIP3    H1 5091   4.055   6.903   2.115
 1716TIP3    H2 5092   3.927   6.911   2.196
 1717TIP3   OH2 5093   0.027   2.193   3.520
 1717TIP3    H1 5094   0.048   2.286   3.531
 1717TIP3    H2 5095   0.021   2.160   3.609
 1718TIP3   OH2 5096   6.820   1.342   1.689
 1718TIP3    H1 5097   6.742   1.324   1.741
 1718TIP3    H2 5098   6.809   1.432   1.659
 1719TIP3   OH2 5099   3.357   1.245   0.910
 1719TIP3    H1 5100   3.387   1.253   1.000
 1719TIP3    H2 5101   3.354   1.336   0.879
 1720TIP3   OH2 5102   6.954   1.487   0.617
 1720TIP3    H1 5103   6.902   1.409   0.635
 1720TIP3    H2 5104   6.899   1.560   0.642
 1721TIP3   OH2 5105   5.486   0.454   5.136
 1721TIP3    H1 5106   5.487   0.544   5.105
 1721TIP3    H2 5107   5.578   0.436   5.159
 1722TIP3   OH2 5108   0.307   6.135   2.350
 1722TIP3    H1 5109   0.383   6.128   2.292
 1722TIP3    H2 5110   0.266   6.048   2.344
 1723TIP3   OH2 5111   6.569   2.872   6.459
 1723TIP3    H1 5112   6.483   2.882   6.418
 1723TIP3    H2 5113   6.559   2.911   6.546
 1724TIP3   OH2 5114   7.230   4.174   3.750
 1724TIP3    H1 5115   7.146   4.197   3.789
 1724TIP3    H2 5116   7.282   4.141   3.824
 1725TIP3   OH2 5117   0.561   7.262   4.455
 1725TIP3    H1 5118   0.491   7.299   4.400
 1725TIP3    H2 5119   0.609   7.339   4.486
 1726TIP3   OH2 5120   5.771   1.648   4.859
 1726TIP3    H1 5121   5.764   1.736   4.895
 1726TIP3    H2 5122   5.853   1.614   4.893
 1727TIP3   OH2 5123   5.065   2.416   3.115
 1727TIP3    H1 5124   5.100   2.364   3.188
 1727TIP3    H2 5125   4.971   2.399   3.117
 1728TIP3   OH2 5126   6.257   2.840   2.955
 1728TIP3    H1 5127   6.254   2.777   2.884
 1728TIP3    H2 5128   6.192   2.907   2.931
 1729TIP3   OH2 5129   0.765   5.215   2.121
 1729TIP3    H1 5130   0.855   5.246   2.109
 1729TIP3    H2 5131   0.760   5.190   2.213
 1730TIP3   OH2 5132   8.281   7.550   3.222
 1730TIP3    H1 5133   8.269   7.479   3.159
 1730TIP3    H2 5134   8.198   7.553   3.270
 1731TIP3   OH2 5135   1.138   6.103   2.518
 1731TIP3    H1 5136   1.172   6.190   2.501
 1731TIP3    H2 5137   1.089   6.112   2.600
 1732TIP3   OH2 5138   7.394   7.065   2.703
 1732TIP3    H1 5139   7.424   7.135   2.761
 1732TIP3    H2 5140   7.301   7.055   2.723
 1733TIP3   OH2 5141   4.435   0.577   4.227
 1733TIP3    H1 5142   4.463   0.485   4.226
 1733TIP3    H2 5143   4.357   0.579   4.172
 1734TIP3   OH2 5144   1.082   2.910   4.659
 1734TIP3    H1 5145   1.097   2.894   4.752
 1734TIP3    H2 5146   1.038   2.995   4.655
 1735TIP3   OH2 5147   7.175   2.895   2.324
 1735TIP3    H1 5148   7.243   2.861   2.266
 1735TIP3    H2 5149   7.138   2.818   2.366
 1736TIP3   OH2 5150   6.677   6.399   2.041
 1736TIP3    H1 5151   6.765   6.433   2.060
 1736TIP3    H2 5152   6.627   6.475   2.012
 1737TIP3   OH2 5153   4.172   4.910   1.780
 1737TIP3    H1 5154   4.107   4.866   1.725
 1737TIP3    H2 5155   4.173   4.860   1.862
 1738TIP3   OH2 5156   7.162   0.891   4.236
 1738TIP3    H1 5157   7.236   0.840   4.268
 1738TIP3    H2 5158   7.133   0.846   4.156
 1739TIP3   OH2 5159   4.037   0.026   4.039
 1739TIP3    H1 5160   4.100  -0.029   4.086
 1739TIP3    H2 5161   4.090   0.087   3.988
 1740TIP3   OH2 5162   2.216   4.038   2.935
 1740TIP3    H1 5163   2.155   3.970   2.908
 1740TIP3    H2 5164   2.292   3.991   2.970
 1741TIP3   OH2 5165   3.248   5.368   2.374
 1741TIP3    H1 5166   3.185   5.426   2.331
 1741TIP3    H2 5167   3.220   5.279   2.349
 1742TIP3   OH2 5168   0.475   7.813   6.520
 1742TIP3    H1 5169   0.494   7.720   6.509
 1742TIP3    H2 5170   0.554   7.850   6.559
 1743TIP3   OH2 5171   5.136   3.586   3.423
 1743TIP3    H1 5172   5.158   3.643   3.497
 1743TIP3    H2 5173   5.219   3.576   3.375
 1744TIP3   OH2 5174   2.404   0.381   2.233
 1744TIP3    H1 5175   2.440   0.421   2.153
 1744TIP3    H2 5176   2.366   0.454   2.282
 1745TIP3   OH2 5177   5.920   6.520   2.655
 1745TIP3    H1 5178   5.862   6.463   2.605
 1745TIP3    H2 5179   5.926   6.479   2.741
 1746TIP3   OH2 5180   8.098   0.710   5.123
 1746TIP3    H1 5181   8.186   0.709   5.159
 1746TIP3    H2 5182   8.085   0.621   5.089
 1747TIP3   OH2 5183   1.526   0.387   3.423
 1747TIP3    H1 5184   1.485   0.328   3.359
 1747TIP3    H2 5185   1.487   0.472   3.406
 1748TIP3   OH2 5186   3.136   7.571   4.563
 1748TIP3    H1 5187   3.211   7.515   4.579
 1748TIP3    H2 5188   3.132   7.579   4.467
 1749TIP3   OH2 5189   4.980   2.762   1.753
 1749TIP3    H1 5190   5.074   2.751   1.765
 1749TIP3    H2 5191   4.941   2.685   1.794
 1750TIP3   OH2 5192   2.342   2.069   6.522
 1750TIP3    H1 5193   2.384   2.001   6.575
 1750TIP3    H2 5194   2.317   2.024   6.442
 1751TIP3   OH2 5195   2.326   4.320   6.490
 1751TIP3    H1 5196   2.404   4.369   6.463
 1751TIP3    H2 5197   2.259   4.346   6.427
 1752TIP3   OH2 5198   4.559   1.611   4.969
 1752TIP3    H1 5199   4.560   1.567   4.885
 1752TIP3    H2 5200   4.651   1.618   4.995
 1753TIP3   OH2 5201   3.609   6.925   2.821
 1753TIP3    H1 5202   3.700   6.953   2.816
 1753TIP3    H2 5203   3.580   6.922   2.729
 1754TIP3   OH2 5204   4.769   0.616   5.906
 1754TIP3    H1 5205   4.707   0.566   5.853
 1754TIP3    H2 5206   4.844   0.631   5.848
 1755TIP3   OH2 5207   0.237   7.178   3.181
 1755TIP3    H1 5208   0.250   7.263   3.222
 1755TIP3    H2 5209   0.323   7.154   3.148
 1756TIP3   OH2 5210   6.268   6.817   0.169
 1756TIP3    H1 5211   6.228   6.813   0.083
 1756TIP3    H2 5212   6.196   6.805   0.231
 1757TIP3   OH2 5213   3.849   0.811   5.945
 1757TIP3    H1 5214   3.786   0.763   5.892
 1757TIP3    H2 5215   3.922   0.830   5.886
 1758TIP3   OH2 5216   1.280   7.496   4.143
 1758TIP3    H1 5217   1.251   7.554   4.213
 1758TIP3    H2 5218   1.329   7.552   4.083
 1759TIP3   OH2 5219   2.811   5.805   1.975
 1759TIP3    H1 5220   2.747   5.734   1.977
 1759TIP3    H2 5221   2.824   5.827   2.067
 1760TIP3   OH2 5222   1.868   0.383   2.010
 1760TIP3    H1 5223   1.964   0.385   2.005
 1760TIP3    H2 5224   1.841   0.336   1.931
 1761TIP3   OH2 5225   6.253   2.681   6.430
 1761TIP3    H1 5226   6.219   2.710   6.345
 1761TIP3    H2 5227   6.284   2.762   6.472
 1762TIP3   OH2 5228   2.644   5.798   2.966
 1762TIP3    H1 5229   2.683   5.852   2.897
 1762TIP3    H2 5230   2.552   5.826   2.969
 1763TIP3   OH2 5231   5.471   5.552   1.373
 1763TIP3    H1 5232   5.427   5.629   1.409
 1763TIP3    H2 5233   5.418   5.478   1.401
 1764TIP3   OH2 5234   5.425   7.216   1.120
 1764TIP3    H1 5235   5.479   7.269   1.179
 1764TIP3    H2 5236   5.390   7.147   1.176
 1765TIP3   OH2 5237   7.975   1.647   5.106
 1765TIP3    H1 5238   7.935   1.705   5.170
 1765TIP3    H2 5239   7.972   1.695   5.023
 1766TIP3   OH2 5240   6.007   6.096   4.338
 1766TIP3    H1 5241   5.912   6.091   4.350
 1766TIP3    H2 5242   6.041   6.118   4.425
 1767TIP3   OH2 5243   6.335   0.777   3.747
 1767TIP3    H1 5244   6.316   0.745   3.835
 1767TIP3    H2 5245   6.431   0.783   3.744
 1768TIP3   OH2 5246   2.455   0.747   4.832
 1768TIP3    H1 5247   2.512   0.772   4.759
 1768TIP3    H2 5248   2.367   0.748   4.795
 1769TIP3   OH2 5249   0.011   6.202   6.528
 1769TIP3    H1 5250  -0.042   6.249   6.592
 1769TIP3    H2 5251  -0.047   6.189   6.453
 1770TIP3   OH2 5252   4.895   7.573   6.615
 1770TIP3    H1 5253   4.987   7.599   6.625
 1770TIP3    H2 5254   4.899   7.486   6.576
 1771TIP3   OH2 5255   2.130   3.683   5.174
 1771TIP3    H1 5256   2.215   3.646   5.196
 1771TIP3    H2 5257   2.119   3.755   5.236
 1772TIP3   OH2 5258   2.163   0.156   5.905
 1772TIP3    H1 5259   2.251   0.178   5.936
 1772TIP3    H2 5260   2.133   0.087   5.965
 1773TIP3   OH2 5261   6.637   0.166   1.509
 1773TIP3    H1 5262   6.578   0.191   1.580
 1773TIP3    H2 5263   6.631   0.071   1.505
 1774TIP3   OH2 5264   5.706   3.393   5.627
 1774TIP3    H1 5265   5.678   3.371   5.538
 1774TIP3    H2 5266   5.653   3.338   5.684
 1775TIP3   OH2 5267   0.277   0.221   3.284
 1775TIP3    H1 5268   0.241   0.148   3.233
 1775TIP3    H2 5269   0.326   0.273   3.220
 1776TIP3   OH2 5270   6.824   2.450   2.060
 1776TIP3    H1 5271   6.729   2.452   2.067
 1776TIP3    H2 5272   6.855   2.464   2.149
 1777TIP3   OH2 5273   2.611   1.190   5.254
 1777TIP3    H1 5274   2.583   1.113   5.303
 1777TIP3    H2 5275   2.535   1.248   5.253
 1778TIP3   OH2 5276   2.309   0.652   6.411
 1778TIP3    H1 5277   2.401   0.677   6.420
 1778TIP3    H2 5278   2.310   0.574   6.355
 1779TIP3   OH2 5279   1.849   7.534   0.983
 1779TIP3    H1 5280   1.810   7.490   0.908
 1779TIP3    H2 5281   1.938   7.500   0.988
 1780TIP3   OH2 5282   0.851   6.111   3.964
 1780TIP3    H1 5283   0.834   6.043   4.029
 1780TIP3    H2 5284   0.940   6.094   3.934
 1781TIP3   OH2 5285   2.109   4.157   5.692
 1781TIP3    H1 5286   2.114   4.066   5.722
 1781TIP3    H2 5287   2.016   4.169   5.671
 1782TIP3   OH2 5288   5.391   7.039   6.738
 1782TIP3    H1 5289   5.323   7.001   6.794
 1782TIP3    H2 5290   5.434   6.964   6.698
 1783TIP3   OH2 5291   7.638   5.665   2.602
 1783TIP3    H1 5292   7.682   5.675   2.686
 1783TIP3    H2 5293   7.579   5.590   2.614
 1784TIP3   OH2 5294   4.658   2.285   3.841
 1784TIP3    H1 5295   4.591   2.224   3.873
 1784TIP3    H2 5296   4.711   2.304   3.918
 1785TIP3   OH2 5297   4.759   3.069   3.118
 1785TIP3    H1 5298   4.784   3.014   3.044
 1785TIP3    H2 5299   4.831   3.133   3.125
 1786TIP3   OH2 5300   4.492   0.558   2.636
 1786TIP3    H1 5301   4.409   0.574   2.589
 1786TIP3    H2 5302   4.494   0.627   2.703
 1787TIP3   OH2 5303   3.229   7.380   1.703
 1787TIP3    H1 5304   3.168   7.354   1.771
 1787TIP3    H2 5305   3.193   7.462   1.668
 1788TIP3   OH2 5306   0.677   4.030   2.608
 1788TIP3    H1 5307   0.642   4.116   2.630
 1788TIP3    H2 5308   0.600   3.975   2.596
 1789TIP3   OH2 5309   1.201   6.766   0.820
 1789TIP3    H1 5310   1.117   6.808   0.839
 1789TIP3    H2 5311   1.238   6.818   0.749
 1790TIP3   OH2 5312   4.379   3.598   3.304
 1790TIP3    H1 5313   4.361   3.658   3.231
 1790TIP3    H2 5314   4.331   3.518   3.282
 1791TIP3   OH2 5315   5.533   2.555   5.466
 1791TIP3    H1 5316   5.618   2.586   5.435
 1791TIP3    H2 5317   5.554   2.490   5.533
 1792TIP3   OH2 5318   5.877   0.306   4.314
 1792TIP3    H1 5319   5.892   0.245   4.242
 1792TIP3    H2 5320   5.788   0.337   4.301
 1793TIP3   OH2 5321   1.784   2.377   1.307
 1793TIP3    H1 5322   1.821   2.296   1.272
 1793TIP3    H2 5323   1.783   2.363   1.402
 1794TIP3   OH2 5324   2.865   1.118   4.335
 1794TIP3    H1 5325   2.932   1.166   4.386
 1794TIP3    H2 5326   2.901   1.030   4.326
 1795TIP3   OH2 5327   4.696   3.472   4.608
 1795TIP3    H1 5328   4.765   3.513   4.557
 1795TIP3    H2 5329   4.616   3.490   4.560
 1796TIP3   OH2 5330   0.404   5.329   4.741
 1796TIP3    H1 5331   0.434   5.268   4.808
 1796TIP3    H2 5332   0.390   5.274   4.663
 1797TIP3   OH2 5333   5.542   6.369   0.838
 1797TIP3    H1 5334   5.517   6.307   0.907
 1797TIP3    H2 5335   5.627   6.403   0.867
 1798TIP3   OH2 5336   7.912   3.854   5.238
 1798TIP3    H1 5337   7.986   3.913   5.225
 1798TIP3    H2 5338   7.936   3.803   5.316
 1799TIP3   OH2 5339   1.666   7.068   6.062
 1799TIP3    H1 5340   1.731   7.035   6.124
 1799TIP3    H2 5341   1.591   7.010   6.073
 1800TIP3   OH2 5342   5.843   1.606   5.541
 1800TIP3    H1 5343   5.791   1.669   5.590
 1800TIP3    H2 5344   5.928   1.605   5.585
 1801TIP3   OH2 5345   1.456   6.083   2.258
 1801TIP3    H1 5346   1.446   5.994   2.224
 1801TIP3    H2 5347   1.443   6.074   2.353
 1802TIP3   OH2 5348   2.768   2.017   1.117
 1802TIP3    H1 5349   2.697   2.022   1.181
 1802TIP3    H2 5350   2.737   1.957   1.050
 1803TIP3   OH2 5351   5.608   2.122   6.525
 1803TIP3    H1 5352   5.605   2.193   6.461
 1803TIP3    H2 5353   5.637   2.046   6.475
 1804TIP3   OH2 5354   4.521   4.879   3.332
 1804TIP3    H1 5355   4.523   4.929   3.413
 1804TIP3    H2 5356   4.465   4.930   3.273
 1805TIP3   OH2 5357   2.932   3.616   2.388
 1805TIP3    H1 5358   2.988   3.619   2.466
 1805TIP3    H2 5359   2.851   3.659   2.415
 1806TIP3   OH2 5360   7.382   5.263   0.949
 1806TIP3    H1 5361   7.322   5.330   0.982
 1806TIP3    H2 5362   7.325   5.199   0.906
 1807TIP3   OH2 5363   6.173   4.694   0.279
 1807TIP3    H1 5364   6.204   4.720   0.192
 1807TIP3    H2 5365   6.242   4.722   0.338
 1808TIP3   OH2 5366   1.657   0.881   3.537
 1808TIP3    H1 5367   1.641   0.952   3.474
 1808TIP3    H2 5368   1.673   0.926   3.620
 1809TIP3   OH2 5369   2.643   5.547   2.603
 1809TIP3    H1 5370   2.689   5.628   2.581
 1809TIP3    H2 5371   2.632   5.552   2.698
 1810TIP3   OH2 5372   6.753   1.203   5.619
 1810TIP3    H1 5373   6.828   1.219   5.677
 1810TIP3    H2 5374   6.699   1.281   5.629
 1811TIP3   OH2 5375   6.394   1.090   2.575
 1811TIP3    H1 5376   6.347   1.078   2.658
 1811TIP3    H2 5377   6.486   1.095   2.601
 1812TIP3   OH2 5378   3.209   1.026   4.084
 1812TIP3    H1 5379   3.268   1.030   4.009
 1812TIP3    H2 5380   3.187   0.933   4.093
 1813TIP3   OH2 5381   5.010   3.863   2.681
 1813TIP3    H1 5382   4.950   3.857   2.607
 1813TIP3    H2 5383   5.087   3.813   2.654
 1814TIP3   OH2 5384   5.025   4.870   5.353
 1814TIP3    H1 5385   5.111   4.870   5.394
 1814TIP3    H2 5386   5.040   4.830   5.267
 1815TIP3   OH2 5387   2.439   5.378   6.256
 1815TIP3    H1 5388   2.362   5.344   6.302
 1815TIP3    H2 5389   2.480   5.437   6.319
 1816TIP3   OH2 5390   6.922   0.133   0.468
 1816TIP3    H1 5391   6.895   0.041   0.471
 1816TIP3    H2 5392   6.935   0.158   0.559
 1817TIP3   OH2 5393   2.047   6.452   3.738
 1817TIP3    H1 5394   2.133   6.492   3.752
 1817TIP3    H2 5395   2.012   6.496   3.661
 1818TIP3   OH2 5396   5.464   1.929   5.313
 1818TIP3    H1 5397   5.494   2.018   5.334
 1818TIP3    H2 5398   5.537   1.891   5.264
 1819TIP3   OH2 5399   7.610   0.508   4.907
 1819TIP3    H1 5400   7.522   0.536   4.932
 1819TIP3    H2 5401   7.648   0.585   4.865
 1820TIP3   OH2 5402   7.494   2.392   3.961
 1820TIP3    H1 5403   7.502   2.299   3.944
 1820TIP3    H2 5404   7.561   2.411   4.027
 1821TIP3   OH2 5405   4.110   2.646   5.803
 1821TIP3    H1 5406   4.185   2.649   5.743
 1821TIP3    H2 5407   4.039   2.689   5.756
 1822TIP3   OH2 5408   3.332   7.149   3.792
 1822TIP3    H1 5409   3.350   7.232   3.747
 1822TIP3    H2 5410   3.282   7.174   3.870
 1823TIP3   OH2 5411   3.005   2.658   2.265
 1823TIP3    H1 5412   3.076   2.711   2.301
 1823TIP3    H2 5413   2.933   2.720   2.251
 1824TIP3   OH2 5414   6.006   4.121   4.199
 1824TIP3    H1 5415   5.982   4.057   4.132
 1824TIP3    H2 5416   6.083   4.083   4.242
 1825TIP3   OH2 5417   1.110   6.652   2.723
 1825TIP3    H1 5418   1.138   6.744   2.723
 1825TIP3    H2 5419   1.053   6.644   2.647
 1826TIP3   OH2 5420   3.382   5.933   1.912
 1826TIP3    H1 5421   3.371   6.008   1.854
 1826TIP3    H2 5422   3.297   5.889   1.910
 1827TIP3   OH2 5423   6.956   2.087   2.785
 1827TIP3    H1 5424   6.870   2.099   2.745
 1827TIP3    H2 5425   6.963   2.158   2.849
 1828TIP3   OH2 5426   1.503   3.118   1.744
 1828TIP3    H1 5427   1.480   3.137   1.653
 1828TIP3    H2 5428   1.599   3.112   1.743
 1829TIP3   OH2 5429   6.656   0.198   0.519
 1829TIP3    H1 5430   6.725   0.181   0.455
 1829TIP3    H2 5431   6.673   0.287   0.549
 1830TIP3   OH2 5432   1.445   5.049   4.890
 1830TIP3    H1 5433   1.453   5.013   4.978
 1830TIP3    H2 5434   1.479   5.139   4.897
 1831TIP3   OH2 5435   1.778   0.577   2.412
 1831TIP3    H1 5436   1.760   0.523   2.489
 1831TIP3    H2 5437   1.859   0.542   2.376
 1832TIP3   OH2 5438   1.128   3.425   0.817
 1832TIP3    H1 5439   1.106   3.509   0.858
 1832TIP3    H2 5440   1.176   3.377   0.884
 1833TIP3   OH2 5441   2.067   1.181   1.789
 1833TIP3    H1 5442   2.101   1.267   1.814
 1833TIP3    H2 5443   2.110   1.120   1.850
 1834TIP3   OH2 5444   0.703   6.090   5.163
 1834TIP3    H1 5445   0.711   6.033   5.086
 1834TIP3    H2 5446   0.751   6.045   5.232
 1835TIP3   OH2 5447   6.875   0.395   2.616
 1835TIP3    H1 5448   6.942   0.460   2.596
 1835TIP3    H2 5449   6.803   0.416   2.557
 1836TIP3   OH2 5450   5.600   2.638   6.181
 1836TIP3    H1 5451   5.599   2.679   6.267
 1836TIP3    H2 5452   5.685   2.662   6.144
 1837TIP3   OH2 5453   1.286   3.328   2.867
 1837TIP3    H1 5454   1.194   3.306   2.880
 1837TIP3    H2 5455   1.328   3.246   2.842
 1838TIP3   OH2 5456   6.087   7.318   5.668
 1838TIP3    H1 5457   5.998   7.313   5.703
 1838TIP3    H2 5458   6.081   7.275   5.583
 1839TIP3   OH2 5459   0.893   1.008   6.569
 1839TIP3    H1 5460   0.876   1.025   6.662
 1839TIP3    H2 5461   0.943   0.927   6.569
 1840TIP3   OH2 5462   6.799   3.592   4.210
 1840TIP3    H1 5463   6.795   3.655   4.282
 1840TIP3    H2 5464   6.852   3.634   4.143
 1841TIP3   OH2 5465   0.470   1.179   3.498
 1841TIP3    H1 5466   0.564   1.180   3.516
 1841TIP3    H2 5467   0.431   1.212   3.579
 1842TIP3   OH2 5468   2.362   4.790   4.885
 1842TIP3    H1 5469   2.444   4.763   4.843
 1842TIP3    H2 5470   2.326   4.709   4.919
 1843TIP3   OH2 5471   1.391   7.646   2.843
 1843TIP3    H1 5472   1.427   7.559   2.860
 1843TIP3    H2 5473   1.303   7.643   2.882
 1844TIP3   OH2 5474   5.503   2.849   5.495
 1844TIP3    H1 5475   5.557   2.905   5.439
 1844TIP3    H2 5476   5.506   2.763   5.452
 1845TIP3   OH2 5477   2.349   2.117   0.683
 1845TIP3    H1 5478   2.397   2.089   0.605
 1845TIP3    H2 5479   2.260   2.085   0.670
 1846TIP3   OH2 5480   4.343   3.967   5.571
 1846TIP3    H1 5481   4.266   3.920   5.603
 1846TIP3    H2 5482   4.308   4.026   5.504
 1847TIP3   OH2 5483   0.920   4.676   5.089
 1847TIP3    H1 5484   0.867   4.652   5.165
 1847TIP3    H2 5485   0.906   4.605   5.027
 1848TIP3   OH2 5486   0.043   4.369   4.062
 1848TIP3    H1 5487   0.047   4.435   3.992
 1848TIP3    H2 5488  -0.048   4.373   4.093
 1849TIP3   OH2 5489   6.106   4.680   0.931
 1849TIP3    H1 5490   6.089   4.596   0.973
 1849TIP3    H2 5491   6.024   4.729   0.943
 1850TIP3   OH2 5492   3.891   0.558   4.925
 1850TIP3    H1 5493   3.909   0.464   4.924
 1850TIP3    H2 5494   3.798   0.564   4.943
 1851TIP3   OH2 5495   5.807   0.846   3.872
 1851TIP3    H1 5496   5.763   0.911   3.927
 1851TIP3    H2 5497   5.872   0.806   3.929
 1852TIP3   OH2 5498   4.145   6.834   0.465
 1852TIP3    H1 5499   4.065   6.781   0.458
 1852TIP3    H2 5500   4.131   6.905   0.402
 1853TIP3   OH2 5501   8.063   3.041   1.642
 1853TIP3    H1 5502   8.139   3.048   1.701
 1853TIP3    H2 5503   8.000   3.103   1.679
 1854TIP3   OH2 5504   4.432   4.584   1.176
 1854TIP3    H1 5505   4.442   4.569   1.082
 1854TIP3    H2 5506   4.337   4.578   1.191
 1855TIP3   OH2 5507   8.137   4.955   1.992
 1855TIP3    H1 5508   8.070   4.987   2.052
 1855TIP3    H2 5509   8.121   5.004   1.911
 1856TIP3   OH2 5510   3.894   5.076   2.828
 1856TIP3    H1 5511   3.956   5.026   2.881
 1856TIP3    H2 5512   3.920   5.167   2.840
 1857TIP3   OH2 5513   1.453   6.517   4.565
 1857TIP3    H1 5514   1.469   6.433   4.522
 1857TIP3    H2 5515   1.358   6.526   4.566
 1858TIP3   OH2 5516   7.730   4.488   0.672
 1858TIP3    H1 5517   7.678   4.530   0.604
 1858TIP3    H2 5518   7.794   4.435   0.624
 1859TIP3   OH2 5519   2.946   0.871   5.604
 1859TIP3    H1 5520   2.987   0.856   5.518
 1859TIP3    H2 5521   2.963   0.963   5.623
 1860TIP3   OH2 5522   4.414   0.104   0.973
 1860TIP3    H1 5523   4.393   0.090   1.066
 1860TIP3    H2 5524   4.340   0.154   0.939
 1861TIP3   OH2 5525   1.539   4.352   5.467
 1861TIP3    H1 5526   1.537   4.307   5.552
 1861TIP3    H2 5527   1.531   4.282   5.402
 1862TIP3   OH2 5528   3.941   6.936   5.597
 1862TIP3    H1 5529   3.992   6.955   5.518
 1862TIP3    H2 5530   3.966   6.846   5.621
 1863TIP3   OH2 5531   8.018   2.743   4.983
 1863TIP3    H1 5532   7.952   2.811   4.996
 1863TIP3    H2 5533   8.017   2.726   4.889
 1864TIP3   OH2 5534   3.251   0.982   5.323
 1864TIP3    H1 5535   3.188   0.952   5.257
 1864TIP3    H2 5536   3.304   0.904   5.342
 1865TIP3   OH2 5537   1.016   5.906   1.733
 1865TIP3    H1 5538   1.068   5.915   1.813
 1865TIP3    H2 5539   0.994   5.996   1.708
 1866TIP3   OH2 5540   2.703   4.275   6.045
 1866TIP3    H1 5541   2.778   4.270   5.986
 1866TIP3    H2 5542   2.640   4.330   5.999
 1867TIP3   OH2 5543   5.327   4.505   1.493
 1867TIP3    H1 5544   5.334   4.506   1.588
 1867TIP3    H2 5545   5.396   4.563   1.463
 1868TIP3   OH2 5546   0.335   1.617   5.857
 1868TIP3    H1 5547   0.395   1.586   5.925
 1868TIP3    H2 5548   0.387   1.676   5.803
 1869TIP3   OH2 5549   7.842   3.436   5.501
 1869TIP3    H1 5550   7.760   3.430   5.550
 1869TIP3    H2 5551   7.910   3.438   5.569
 1870TIP3   OH2 5552   0.479   2.721   6.496
 1870TIP3    H1 5553   0.566   2.716   6.456
 1870TIP3    H2 5554   0.424   2.666   6.441
 1871TIP3   OH2 5555   0.652   0.078   2.397
 1871TIP3    H1 5556   0.588   0.093   2.328
 1871TIP3    H2 5557   0.670  -0.017   2.394
 1872TIP3   OH2 5558   3.445   0.222   6.390
 1872TIP3    H1 5559   3.474   0.160   6.324
 1872TIP3    H2 5560   3.481   0.306   6.362
 1873TIP3   OH2 5561   2.467   5.514   4.301
 1873TIP3    H1 5562   2.519   5.456   4.246
 1873TIP3    H2 5563   2.462   5.597   4.253
 1874TIP3   OH2 5564   0.508   0.056   4.136
 1874TIP3    H1 5565   0.576   0.120   4.118
 1874TIP3    H2 5566   0.484   0.021   4.050
 1875TIP3   OH2 5567   6.826   0.769   0.258
 1875TIP3    H1 5568   6.830   0.700   0.192
 1875TIP3    H2 5569   6.775   0.838   0.216
 1876TIP3   OH2 5570   5.705   1.106   1.012
 1876TIP3    H1 5571   5.715   1.048   0.936
 1876TIP3    H2 5572   5.795   1.124   1.040
 1877TIP3   OH2 5573   7.186   4.695   3.865
 1877TIP3    H1 5574   7.112   4.753   3.848
 1877TIP3    H2 5575   7.199   4.647   3.783
 1878TIP3   OH2 5576   0.036   4.520   3.839
 1878TIP3    H1 5577   0.070   4.541   3.752
 1878TIP3    H2 5578  -0.031   4.587   3.855
 1879TIP3   OH2 5579   6.449   3.358   0.845
 1879TIP3    H1 5580   6.413   3.335   0.930
 1879TIP3    H2 5581   6.536   3.319   0.844
 1880TIP3   OH2 5582   7.551   2.355   0.981
 1880TIP3    H1 5583   7.646   2.340   0.978
 1880TIP3    H2 5584   7.519   2.325   0.896
 1881TIP3   OH2 5585   1.254   7.263   2.939
 1881TIP3    H1 5586   1.294   7.176   2.949
 1881TIP3    H2 5587   1.317   7.312   2.887
 1882TIP3   OH2 5588   1.989   4.479   2.176
 1882TIP3    H1 5589   1.976   4.451   2.085
 1882TIP3    H2 5590   1.904   4.514   2.202
 1883TIP3   OH2 5591   5.967   0.502   6.369
 1883TIP3    H1 5592   6.036   0.560   6.398
 1883TIP3    H2 5593   5.922   0.551   6.300
 1884TIP3   OH2 5594   1.336   6.105   0.447
 1884TIP3    H1 5595   1.385   6.024   0.463
 1884TIP3    H2 5596   1.257   6.096   0.501
 1885TIP3   OH2 5597   5.469   3.204   5.593
 1885TIP3    H1 5598   5.414   3.170   5.664
 1885TIP3    H2 5599   5.454   3.144   5.520
 1886TIP3   OH2 5600   7.197   1.785   5.449
 1886TIP3    H1 5601   7.160   1.852   5.505
 1886TIP3    H2 5602   7.257   1.736   5.506
 1887TIP3   OH2 5603   5.199   3.707   3.088
 1887TIP3    H1 5604   5.123   3.731   3.034
 1887TIP3    H2 5605   5.167   3.637   3.144
 1888TIP3   OH2 5606   7.366   2.843   0.246
 1888TIP3    H1 5607   7.298   2.792   0.289
 1888TIP3    H2 5608   7.319   2.893   0.178
 1889TIP3   OH2 5609   1.651   3.042   0.495
 1889TIP3    H1 5610   1.646   2.947   0.492
 1889TIP3    H2 5611   1.560   3.070   0.510
 1890TIP3   OH2 5612   0.437   2.325   5.575
 1890TIP3    H1 5613   0.514   2.297   5.526
 1890TIP3    H2 5614   0.470   2.386   5.640
 1891TIP3   OH2 5615   6.325   6.804   6.416
 1891TIP3    H1 5616   6.377   6.811   6.336
 1891TIP3    H2 5617   6.246   6.854   6.397
 1892TIP3   OH2 5618   2.149   5.998   5.921
 1892TIP3    H1 5619   2.099   5.999   5.839
 1892TIP3    H2 5620   2.208   6.074   5.914
 1893TIP3   OH2 5621   6.221   2.593   5.749
 1893TIP3    H1 5622   6.214   2.590   5.845
 1893TIP3    H2 5623   6.169   2.669   5.724
 1894TIP3   OH2 5624   6.411   7.630   5.432
 1894TIP3    H1 5625   6.433   7.684   5.508
 1894TIP3    H2 5626   6.495   7.613   5.389
 1895TIP3   OH2 5627   5.099   1.993   1.382
 1895TIP3    H1 5628   5.023   1.996   1.440
 1895TIP3    H2 5629   5.172   2.018   1.438
 1896TIP3   OH2 5630   2.625   5.555   1.929
 1896TIP3    H1 5631   2.533   5.545   1.955
 1896TIP3    H2 5632   2.653   5.467   1.904
 1897TIP3   OH2 5633   2.277   7.512   0.236
 1897TIP3    H1 5634   2.216   7.508   0.162
 1897TIP3    H2 5635   2.222   7.539   0.310
 1898TIP3   OH2 5636   3.050   6.706   5.067
 1898TIP3    H1 5637   2.970   6.675   5.111
 1898TIP3    H2 5638   3.042   6.673   4.978
 1899TIP3   OH2 5639   2.220   4.892   0.770
 1899TIP3    H1 5640   2.165   4.966   0.744
 1899TIP3    H2 5641   2.294   4.932   0.815
 1900TIP3   OH2 5642   6.253   2.360   5.098
 1900TIP3    H1 5643   6.157   2.354   5.091
 1900TIP3    H2 5644   6.279   2.411   5.021
 1901TIP3   OH2 5645   1.314   6.195   3.617
 1901TIP3    H1 5646   1.325   6.139   3.540
 1901TIP3    H2 5647   1.397   6.186   3.665
 1902TIP3   OH2 5648   5.790   4.039   6.643
 1902TIP3    H1 5649   5.713   4.004   6.688
 1902TIP3    H2 5650   5.755   4.089   6.569
 1903TIP3   OH2 5651   6.117   1.323   3.439
 1903TIP3    H1 5652   6.114   1.271   3.520
 1903TIP3    H2 5653   6.075   1.406   3.462
 1904TIP3   OH2 5654   5.136   0.580   4.267
 1904TIP3    H1 5655   5.152   0.602   4.175
 1904TIP3    H2 5656   5.198   0.634   4.315
 1905TIP3   OH2 5657   2.250   1.117   5.505
 1905TIP3    H1 5658   2.156   1.112   5.522
 1905TIP3    H2 5659   2.271   1.210   5.512
 1906TIP3   OH2 5660   2.991   0.449   1.784
 1906TIP3    H1 5661   2.913   0.394   1.782
 1906TIP3    H2 5662   2.970   0.518   1.847
 1907TIP3   OH2 5663   4.998   1.735   1.738
 1907TIP3    H1 5664   4.921   1.716   1.791
 1907TIP3    H2 5665   5.072   1.719   1.796
 1908TIP3   OH2 5666   7.348   5.183   4.274
 1908TIP3    H1 5667   7.346   5.227   4.189
 1908TIP3    H2 5668   7.330   5.091   4.254
 1909TIP3   OH2 5669   7.982   2.295   6.004
 1909TIP3    H1 5670   7.973   2.243   6.084
 1909TIP3    H2 5671   7.922   2.253   5.942
 1910TIP3   OH2 5672   6.897   3.160   0.321
 1910TIP3    H1 5673   6.950   3.090   0.283
 1910TIP3    H2 5674   6.924   3.162   0.413
 1911TIP3   OH2 5675   4.765   3.334   2.530
 1911TIP3    H1 5676   4.768   3.412   2.475
 1911TIP3    H2 5677   4.852   3.296   2.523
 1912TIP3   OH2 5678   5.868   0.802   0.732
 1912TIP3    H1 5679   5.937   0.789   0.797
 1912TIP3    H2 5680   5.860   0.717   0.689
 1913TIP3   OH2 5681   7.611   0.499   4.423
 1913TIP3    H1 5682   7.619   0.589   4.392
 1913TIP3    H2 5683   7.695   0.480   4.463
 1914TIP3   OH2 5684   1.403   5.782   3.399
 1914TIP3    H1 5685   1.453   5.765   3.319
 1914TIP3    H2 5686   1.375   5.695   3.429
 1915TIP3   OH2 5687   7.271   7.721   3.286
 1915TIP3    H1 5688   7.232   7.701   3.371
 1915TIP3    H2 5689   7.203   7.771   3.240
 1916TIP3   OH2 5690   6.014   7.152   4.038
 1916TIP3    H1 5691   6.033   7.245   4.033
 1916TIP3    H2 5692   5.919   7.146   4.037
 1917TIP3   OH2 5693   2.903   0.535   4.327
 1917TIP3    H1 5694   2.869   0.613   4.370
 1917TIP3    H2 5695   2.825   0.485   4.303
 1918TIP3   OH2 5696   7.725   6.780   6.184
 1918TIP3    H1 5697   7.765   6.792   6.270
 1918TIP3    H2 5698   7.696   6.867   6.157
 1919TIP3   OH2 5699   2.451   6.190   1.210
 1919TIP3    H1 5700   2.378   6.235   1.251
 1919TIP3    H2 5701   2.479   6.248   1.139
 1920TIP3   OH2 5702   3.942   7.240   4.837
 1920TIP3    H1 5703   3.998   7.173   4.877
 1920TIP3    H2 5704   3.998   7.284   4.774
 1921TIP3   OH2 5705   2.597   6.082   3.507
 1921TIP3    H1 5706   2.645   6.086   3.424
 1921TIP3    H2 5707   2.639   6.148   3.562
 1922TIP3   OH2 5708   1.779   5.958   1.648
 1922TIP3    H1 5709   1.726   6.031   1.679
 1922TIP3    H2 5710   1.870   5.990   1.653
 1923TIP3   OH2 5711   8.234   4.139   2.714
 1923TIP3    H1 5712   8.181   4.061   2.730
 1923TIP3    H2 5713   8.173   4.202   2.676
 1924TIP3   OH2 5714   3.607   4.626   2.202
 1924TIP3    H1 5715   3.628   4.715   2.228
 1924TIP3    H2 5716   3.519   4.611   2.236
 1925TIP3   OH2 5717   3.165   3.141   0.731
 1925TIP3    H1 5718   3.096   3.134   0.797
 1925TIP3    H2 5719   3.219   3.215   0.760
 1926TIP3   OH2 5720   4.099   6.651   4.336
 1926TIP3    H1 5721   4.075   6.609   4.254
 1926TIP3    H2 5722   4.186   6.617   4.356
 1927TIP3   OH2 5723   5.616   2.669   0.095
 1927TIP3    H1 5724   5.649   2.659   0.185
 1927TIP3    H2 5725   5.540   2.726   0.104
 1928TIP3   OH2 5726   7.394   1.728   0.042
 1928TIP3    H1 5727   7.299   1.738   0.044
 1928TIP3    H2 5728   7.425   1.800  -0.014
 1929TIP3   OH2 5729   2.810   0.460   6.737
 1929TIP3    H1 5730   2.806   0.553   6.760
 1929TIP3    H2 5731   2.837   0.459   6.646
 1930TIP3   OH2 5732   1.195   0.967   5.055
 1930TIP3    H1 5733   1.226   0.962   5.146
 1930TIP3    H2 5734   1.256   0.913   5.006
 1931TIP3   OH2 5735   5.596   0.620   0.402
 1931TIP3    H1 5736   5.668   0.569   0.368
 1931TIP3    H2 5737   5.530   0.555   0.427
 1932TIP3   OH2 5738   0.589   4.867   2.370
 1932TIP3    H1 5739   0.496   4.882   2.353
 1932TIP3    H2 5740   0.608   4.782   2.332
 1933TIP3   OH2 5741   0.324   0.302   1.846
 1933TIP3    H1 5742   0.402   0.337   1.804
 1933TIP3    H2 5743   0.344   0.210   1.862
 1934TIP3   OH2 5744   0.033   6.444   1.811
 1934TIP3    H1 5745   0.026   6.494   1.730
 1934TIP3    H2 5746   0.072   6.360   1.785
 1935TIP3   OH2 5747   3.916   7.652   2.071
 1935TIP3    H1 5748   3.824   7.676   2.082
 1935TIP3    H2 5749   3.958   7.682   2.152
 1936TIP3   OH2 5750   5.158   4.284   6.760
 1936TIP3    H1 5751   5.089   4.310   6.700
 1936TIP3    H2 5752   5.233   4.266   6.703
 1937TIP3   OH2 5753   4.814   1.167   6.293
 1937TIP3    H1 5754   4.806   1.220   6.215
 1937TIP3    H2 5755   4.769   1.217   6.361
 1938TIP3   OH2 5756   5.411   2.828   0.204
 1938TIP3    H1 5757   5.479   2.867   0.259
 1938TIP3    H2 5758   5.337   2.814   0.263
 1939TIP3   OH2 5759   3.575   5.116   5.821
 1939TIP3    H1 5760   3.644   5.053   5.843
 1939TIP3    H2 5761   3.512   5.066   5.769
 1940TIP3   OH2 5762   1.327   6.205   5.105
 1940TIP3    H1 5763   1.347   6.115   5.078
 1940TIP3    H2 5764   1.387   6.259   5.053
 1941TIP3   OH2 5765   3.551   4.069   5.746
 1941TIP3    H1 5766   3.502   4.062   5.828
 1941TIP3    H2 5767   3.619   4.002   5.752
 1942TIP3   OH2 5768   7.973   5.309   0.551
 1942TIP3    H1 5769   7.922   5.389   0.538
 1942TIP3    H2 5770   7.908   5.240   0.563
 1943TIP3   OH2 5771   0.849   3.629   2.779
 1943TIP3    H1 5772   0.942   3.634   2.802
 1943TIP3    H2 5773   0.818   3.719   2.784
 1944TIP3   OH2 5774   2.536   3.746   5.806
 1944TIP3    H1 5775   2.612   3.688   5.819
 1944TIP3    H2 5776   2.574   3.832   5.789
 1945TIP3   OH2 5777   6.301   2.943   5.363
 1945TIP3    H1 5778   6.323   2.860   5.405
 1945TIP3    H2 5779   6.232   2.980   5.418
 1946TIP3   OH2 5780   0.830   0.061   0.609
 1946TIP3    H1 5781   0.758   0.115   0.576
 1946TIP3    H2 5782   0.789  -0.022   0.634
 1947TIP3   OH2 5783   5.553   5.934   5.422
 1947TIP3    H1 5784   5.568   5.956   5.330
 1947TIP3    H2 5785   5.640   5.939   5.462
 1948TIP3   OH2 5786   5.416   7.570   1.197
 1948TIP3    H1 5787   5.345   7.629   1.225
 1948TIP3    H2 5788   5.387   7.483   1.225
 1949TIP3   OH2 5789   1.398   0.954   6.317
 1949TIP3    H1 5790   1.442   0.916   6.241
 1949TIP3    H2 5791   1.384   1.046   6.294
 1950TIP3   OH2 5792   0.794   6.459   5.419
 1950TIP3    H1 5793   0.864   6.493   5.476
 1950TIP3    H2 5794   0.796   6.365   5.433
 1951TIP3   OH2 5795   3.955   7.222   6.625
 1951TIP3    H1 5796   3.884   7.211   6.689
 1951TIP3    H2 5797   3.951   7.315   6.601
 1952TIP3   OH2 5798   7.670   1.248   4.638
 1952TIP3    H1 5799   7.582   1.279   4.619
 1952TIP3    H2 5800   7.724   1.327   4.636
 1953TIP3   OH2 5801   6.222   4.064   2.774
 1953TIP3    H1 5802   6.215   3.970   2.757
 1953TIP3    H2 5803   6.135   4.098   2.757
 1954TIP3   OH2 5804   0.388   7.109   5.367
 1954TIP3    H1 5805   0.333   7.035   5.340
 1954TIP3    H2 5806   0.458   7.111   5.301
 1955TIP3   OH2 5807   2.686   1.898   0.890
 1955TIP3    H1 5808   2.607   1.847   0.905
 1955TIP3    H2 5809   2.677   1.930   0.800
 1956TIP3   OH2 5810   5.554   7.635   0.650
 1956TIP3    H1 5811   5.502   7.715   0.648
 1956TIP3    H2 5812   5.588   7.631   0.739
 1957TIP3   OH2 5813   2.548   4.783   0.801
 1957TIP3    H1 5814   2.517   4.728   0.873
 1957TIP3    H2 5815   2.556   4.723   0.727
 1958TIP3   OH2 5816   2.449   1.274   5.769
 1958TIP3    H1 5817   2.510   1.269   5.695
 1958TIP3    H2 5818   2.368   1.308   5.731
 1959TIP3   OH2 5819   4.681   5.429   3.984
 1959TIP3    H1 5820   4.718   5.359   4.037
 1959TIP3    H2 5821   4.755   5.484   3.960
 1960TIP3   OH2 5822   7.922   7.389   6.653
 1960TIP3    H1 5823   7.929   7.386   6.558
 1960TIP3    H2 5824   7.902   7.480   6.674
 1961TIP3   OH2 5825   6.838   6.768   0.117
 1961TIP3    H1 5826   6.766   6.810   0.164
 1961TIP3    H2 5827   6.798   6.696   0.069
 1962TIP3   OH2 5828   0.832   3.668   4.339
 1962TIP3    H1 5829   0.898   3.599   4.340
 1962TIP3    H2 5830   0.881   3.748   4.354
 1963TIP3   OH2 5831   3.206   6.081   1.416
 1963TIP3    H1 5832   3.217   6.039   1.331
 1963TIP3    H2 5833   3.244   6.020   1.479
 1964TIP3   OH2 5834   0.078   2.209   5.676
 1964TIP3    H1 5835   0.159   2.184   5.721
 1964TIP3    H2 5836   0.079   2.157   5.596
 1965TIP3   OH2 5837   5.650   5.138   5.962
 1965TIP3    H1 5838   5.625   5.058   6.010
 1965TIP3    H2 5839   5.671   5.201   6.031
 1966TIP3   OH2 5840   3.485   7.297   0.829
 1966TIP3    H1 5841   3.543   7.221   0.830
 1966TIP3    H2 5842   3.502   7.341   0.913
 1967TIP3   OH2 5843   6.145   1.596   2.441
 1967TIP3    H1 5844   6.156   1.510   2.401
 1967TIP3    H2 5845   6.052   1.602   2.460
 1968TIP3   OH2 5846   0.129   1.715   0.096
 1968TIP3    H1 5847   0.154   1.797   0.054
 1968TIP3    H2 5848   0.036   1.706   0.079
 1969TIP3   OH2 5849   3.046   0.864   1.881
 1969TIP3    H1 5850   3.074   0.843   1.792
 1969TIP3    H2 5851   3.114   0.922   1.915
 1970TIP3   OH2 5852   5.696   7.122   2.530
 1970TIP3    H1 5853   5.748   7.054   2.487
 1970TIP3    H2 5854   5.756   7.195   2.540
 1971TIP3   OH2 5855   4.071   1.370   2.511
 1971TIP3    H1 5856   4.137   1.305   2.488
 1971TIP3    H2 5857   4.111   1.424   2.579
 1972TIP3   OH2 5858   8.071   4.977   3.666
 1972TIP3    H1 5859   8.042   5.061   3.701
 1972TIP3    H2 5860   8.008   4.956   3.598
 1973TIP3   OH2 5861   4.800   1.565   2.626
 1973TIP3    H1 5862   4.839   1.549   2.712
 1973TIP3    H2 5863   4.818   1.657   2.608
 1974TIP3   OH2 5864   7.711   1.574   4.919
 1974TIP3    H1 5865   7.730   1.667   4.923
 1974TIP3    H2 5866   7.737   1.548   4.830
 1975TIP3   OH2 5867   3.749   6.699   1.659
 1975TIP3    H1 5868   3.835   6.663   1.636
 1975TIP3    H2 5869   3.737   6.676   1.751
 1976TIP3   OH2 5870   4.174   3.434   5.286
 1976TIP3    H1 5871   4.260   3.460   5.253
 1976TIP3    H2 5872   4.158   3.492   5.360
 1977TIP3   OH2 5873   4.190   3.837   5.914
 1977TIP3    H1 5874   4.208   3.913   5.859
 1977TIP3    H2 5875   4.109   3.860   5.961
 1978TIP3   OH2 5876   5.536   6.805   0.689
 1978TIP3    H1 5877   5.594   6.743   0.645
 1978TIP3    H2 5878   5.455   6.756   0.702
 1979TIP3   OH2 5879   5.388   7.233   3.624
 1979TIP3    H1 5880   5.389   7.196   3.536
 1979TIP3    H2 5881   5.399   7.327   3.612
 1980TIP3   OH2 5882   3.751   4.265   1.267
 1980TIP3    H1 5883   3.691   4.300   1.333
 1980TIP3    H2 5884   3.699   4.260   1.187
 1981TIP3   OH2 5885   1.217   7.452   6.682
 1981TIP3    H1 5886   1.138   7.408   6.714
 1981TIP3    H2 5887   1.198   7.472   6.590
 1982TIP3   OH2 5888   2.091   6.285   5.586
 1982TIP3    H1 5889   2.059   6.210   5.635
 1982TIP3    H2 5890   2.054   6.274   5.498
 1983TIP3   OH2 5891   3.626   1.414   4.947
 1983TIP3    H1 5892   3.533   1.434   4.956
 1983TIP3    H2 5893   3.650   1.375   5.031
 1984TIP3   OH2 5894   5.886   3.097   2.984
 1984TIP3    H1 5895   5.846   3.016   2.952
 1984TIP3    H2 5896   5.973   3.098   2.945
 1985TIP3   OH2 5897   7.067   0.761   4.487
 1985TIP3    H1 5898   7.066   0.829   4.554
 1985TIP3    H2 5899   7.030   0.803   4.409
 1986TIP3   OH2 5900   0.546   6.366   2.645
 1986TIP3    H1 5901   0.521   6.409   2.727
 1986TIP3    H2 5902   0.468   6.318   2.618
 1987TIP3   OH2 5903   4.038   0.248   6.339
 1987TIP3    H1 5904   4.050   0.213   6.251
 1987TIP3    H2 5905   3.946   0.275   6.341
 1988TIP3   OH2 5906   7.116   7.404   1.932
 1988TIP3    H1 5907   7.178   7.397   2.004
 1988TIP3    H2 5908   7.150   7.475   1.878
 1989TIP3   OH2 5909   4.996   4.114   4.092
 1989TIP3    H1 5910   4.975   4.121   3.999
 1989TIP3    H2 5911   5.021   4.203   4.117
 1990TIP3   OH2 5912   7.205   1.066   0.569
 1990TIP3    H1 5913   7.115   1.084   0.543
 1990TIP3    H2 5914   7.198   1.024   0.654
 1991TIP3   OH2 5915   8.228   0.304   6.265
 1991TIP3    H1 5916   8.147   0.350   6.285
 1991TIP3    H2 5917   8.252   0.261   6.347
 1992TIP3   OH2 5918   4.743   1.547   0.645
 1992TIP3    H1 5919   4.738   1.576   0.736
 1992TIP3    H2 5920   4.682   1.473   0.641
 1993TIP3   OH2 5921   0.257   3.821   1.943
 1993TIP3    H1 5922   0.277   3.748   2.002
 1993TIP3    H2 5923   0.336   3.874   1.944
 1994TIP3   OH2 5924   1.900   4.376   1.653
 1994TIP3    H1 5925   1.979   4.422   1.625
 1994TIP3    H2 5926   1.830   4.413   1.599
 1995TIP3   OH2 5927   0.958   3.550   5.602
 1995TIP3    H1 5928   0.885   3.535   5.542
 1995TIP3    H2 5929   0.925   3.524   5.688
 1996TIP3   OH2 5930   5.884   2.358   3.572
 1996TIP3    H1 5931   5.933   2.277   3.578
 1996TIP3    H2 5932   5.832   2.361   3.652
 1997TIP3   OH2 5933   2.565   3.673   3.597
 1997TIP3    H1 5934   2.530   3.642   3.681
 1997TIP3    H2 5935   2.635   3.734   3.621
 1998TIP3   OH2 5936   5.530   5.939   1.833
 1998TIP3    H1 5937   5.540   5.946   1.927
 1998TIP3    H2 5938   5.616   5.962   1.797
 1999TIP3   OH2 5939   2.354   2.530   2.065
 1999TIP3    H1 5940   2.430   2.558   2.116
 1999TIP3    H2 5941   2.377   2.552   1.975
 2000TIP3   OH2 5942   4.713   7.002   5.415
 2000TIP3    H1 5943   4.666   7.012   5.332
 2000TIP3    H2 5944   4.724   7.092   5.447
 2001TIP3   OH2 5945   6.155   0.968   2.976
 2001TIP3    H1 5946   6.161   1.050   2.927
 2001TIP3    H2 5947   6.239   0.963   3.023
 2002TIP3   OH2 5948   7.836   6.782   5.071
 2002TIP3    H1 5949   7.869   6.774   4.982
 2002TIP3    H2 5950   7.864   6.869   5.100
 2003TIP3   OH2 5951   0.891   2.974   5.064
 2003TIP3    H1 5952   0.984   2.955   5.051
 2003TIP3    H2 5953   0.889   3.033   5.140
 2004TIP3   OH2 5954   4.433   1.906   6.039
 2004TIP3    H1 5955   4.347   1.943   6.055
 2004TIP3    H2 5956   4.489   1.944   6.107
 2005TIP3   OH2 5957   4.047   3.287   5.765
 2005TIP3    H1 5958   4.071   3.373   5.800
 2005TIP3    H2 5959   3.971   3.261   5.817
 2006TIP3   OH2 5960   5.415   2.389   5.177
 2006TIP3    H1 5961   5.321   2.395   5.189
 2006TIP3    H2 5962   5.452   2.423   5.259
 2007TIP3   OH2 5963   6.576   2.882   1.467
 2007TIP3    H1 5964   6.520   2.953   1.435
 2007TIP3    H2 5965   6.554   2.874   1.559
 2008TIP3   OH2 5966   6.487   6.744   4.353
 2008TIP3    H1 5967   6.569   6.701   4.329
 2008TIP3    H2 5968   6.476   6.724   4.447
 2009TIP3   OH2 5969   5.884   1.824   6.651
 2009TIP3    H1 5970   5.810   1.810   6.592
 2009TIP3    H2 5971   5.875   1.915   6.680
 2010TIP3   OH2 5972   7.844   1.449   4.291
 2010TIP3    H1 5973   7.816   1.505   4.219
 2010TIP3    H2 5974   7.766   1.399   4.315
 2011TIP3   OH2 5975   0.873   0.779   3.234
 2011TIP3    H1 5976   0.845   0.762   3.144
 2011TIP3    H2 5977   0.797   0.820   3.275
 2012TIP3   OH2 5978   6.356   7.692   4.020
 2012TIP3    H1 5979   6.336   7.773   4.067
 2012TIP3    H2 5980   6.345   7.714   3.928
 2013TIP3   OH2 5981   1.157   0.666   4.377
 2013TIP3    H1 5982   1.181   0.577   4.350
 2013TIP3    H2 5983   1.237   0.703   4.413
 2014TIP3   OH2 5984   2.862   2.255   2.633
 2014TIP3    H1 5985   2.937   2.196   2.640
 2014TIP3    H2 5986   2.787   2.203   2.663
 2015TIP3   OH2 5987   7.219   7.016   5.474
 2015TIP3    H1 5988   7.193   7.065   5.396
 2015TIP3    H2 5989   7.306   7.050   5.495
 2016TIP3   OH2 5990   2.337   3.862   0.658
 2016TIP3    H1 5991   2.249   3.837   0.684
 2016TIP3    H2 5992   2.395   3.820   0.721
 2017TIP3   OH2 5993   4.269   4.930   4.624
 2017TIP3    H1 5994   4.264   4.981   4.705
 2017TIP3    H2 5995   4.362   4.907   4.616
 2018TIP3   OH2 5996   6.999   6.535   0.565
 2018TIP3    H1 5997   7.074   6.506   0.617
 2018TIP3    H2 5998   6.939   6.461   0.567
 2019TIP3   OH2 5999   4.394   7.147   1.353
 2019TIP3    H1 6000   4.404   7.062   1.310
 2019TIP3    H2 6001   4.330   7.194   1.298
 2020TIP3   OH2 6002   3.148   2.274   0.596
 2020TIP3    H1 6003   3.063   2.317   0.588
 2020TIP3    H2 6004   3.144   2.230   0.681
 2021TIP3   OH2 6005   6.123   5.374   3.424
 2021TIP3    H1 6006   6.181   5.343   3.354
 2021TIP3    H2 6007   6.124   5.304   3.489
 2022TIP3   OH2 6008   2.917   5.285   0.064
 2022TIP3    H1 6009   2.833   5.243   0.082
 2022TIP3    H2 6010   2.972   5.214   0.031
 2023TIP3   OH2 6011   0.487   3.754   0.402
 2023TIP3    H1 6012   0.475   3.781   0.311
 2023TIP3    H2 6013   0.580   3.768   0.419
 2024TIP3   OH2 6014   3.796   6.391   3.529
 2024TIP3    H1 6015   3.702   6.377   3.543
 2024TIP3    H2 6016   3.836   6.374   3.614
 2025TIP3   OH2 6017   2.786   0.962   0.820
 2025TIP3    H1 6018   2.700   1.004   0.822
 2025TIP3    H2 6019   2.810   0.950   0.912
 2026TIP3   OH2 6020   3.075   4.546   5.230
 2026TIP3    H1 6021   2.989   4.541   5.271
 2026TIP3    H2 6022   3.060   4.527   5.137
 2027TIP3   OH2 6023   3.259   5.153   1.078
 2027TIP3    H1 6024   3.267   5.153   1.174
 2027TIP3    H2 6025   3.338   5.197   1.048
 2028TIP3   OH2 6026   7.883   5.003   2.378
 2028TIP3    H1 6027   7.838   4.983   2.461
 2028TIP3    H2 6028   7.852   5.091   2.355
 2029TIP3   OH2 6029   2.035   0.493   0.445
 2029TIP3    H1 6030   1.983   0.560   0.490
 2029TIP3    H2 6031   1.971   0.427   0.418
 2030TIP3   OH2 6032   0.869   4.199   5.550
 2030TIP3    H1 6033   0.944   4.242   5.592
 2030TIP3    H2 6034   0.797   4.261   5.562
 2031TIP3   OH2 6035   7.148   0.371   4.842
 2031TIP3    H1 6036   7.173   0.279   4.842
 2031TIP3    H2 6037   7.147   0.396   4.749
 2032TIP3   OH2 6038   4.212   0.083   2.779
 2032TIP3    H1 6039   4.189  -0.009   2.788
 2032TIP3    H2 6040   4.135   0.131   2.809
 2033TIP3   OH2 6041   0.175   7.713   4.898
 2033TIP3    H1 6042   0.174   7.806   4.875
 2033TIP3    H2 6043   0.105   7.675   4.845
 2034TIP3   OH2 6044   3.452   1.457   1.667
 2034TIP3    H1 6045   3.508   1.487   1.739
 2034TIP3    H2 6046   3.386   1.403   1.710
 2035TIP3   OH2 6047   3.749   4.118   3.970
 2035TIP3    H1 6048   3.837   4.134   3.935
 2035TIP3    H2 6049   3.720   4.038   3.926
 2036TIP3   OH2 6050   2.476   6.425   1.403
 2036TIP3    H1 6051   2.503   6.514   1.381
 2036TIP3    H2 6052   2.428   6.395   1.326
 2037TIP3   OH2 6053   5.092   4.055   2.844
 2037TIP3    H1 6054   5.049   3.981   2.800
 2037TIP3    H2 6055   5.073   4.130   2.789
 2038TIP3   OH2 6056   2.599   6.062   4.010
 2038TIP3    H1 6057   2.651   6.057   3.930
 2038TIP3    H2 6058   2.552   6.146   4.003
 2039TIP3   OH2 6059   2.924   4.293   4.436
 2039TIP3    H1 6060   2.910   4.376   4.391
 2039TIP3    H2 6061   3.009   4.303   4.480
 2040TIP3   OH2 6062   6.022   4.925   6.046
 2040TIP3    H1 6063   6.013   4.958   6.135
 2040TIP3    H2 6064   6.027   5.003   5.991
 2041TIP3   OH2 6065   4.234   4.552   4.042
 2041TIP3    H1 6066   4.299   4.490   4.073
 2041TIP3    H2 6067   4.188   4.581   4.122
 2042TIP3   OH2 6068   3.083   3.034   2.865
 2042TIP3    H1 6069   3.153   2.983   2.825
 2042TIP3    H2 6070   3.020   2.969   2.895
 2043TIP3   OH2 6071   5.214   1.270   1.841
 2043TIP3    H1 6072   5.299   1.244   1.805
 2043TIP3    H2 6073   5.200   1.210   1.914
 2044TIP3   OH2 6074   5.446   6.631   2.525
 2044TIP3    H1 6075   5.511   6.667   2.586
 2044TIP3    H2 6076   5.379   6.699   2.517
 2045TIP3   OH2 6077   5.289   4.049   4.225
 2045TIP3    H1 6078   5.360   4.095   4.270
 2045TIP3    H2 6079   5.263   4.108   4.154
 2046TIP3   OH2 6080   5.245   0.972   5.230
 2046TIP3    H1 6081   5.303   1.037   5.191
 2046TIP3    H2 6082   5.252   0.986   5.324
 2047TIP3   OH2 6083   6.746   5.130   0.664
 2047TIP3    H1 6084   6.835   5.098   0.680
 2047TIP3    H2 6085   6.700   5.116   0.747
 2048TIP3   OH2 6086   6.489   7.328   1.696
 2048TIP3    H1 6087   6.449   7.280   1.768
 2048TIP3    H2 6088   6.486   7.268   1.621
 2049TIP3   OH2 6089   1.220   4.845   4.036
 2049TIP3    H1 6090   1.207   4.774   4.098
 2049TIP3    H2 6091   1.292   4.896   4.073
 2050TIP3   OH2 6092   0.850   4.674   2.446
 2050TIP3    H1 6093   0.879   4.702   2.533
 2050TIP3    H2 6094   0.763   4.713   2.436
 2051TIP3   OH2 6095   2.146   6.928   2.650
 2051TIP3    H1 6096   2.209   6.884   2.593
 2051TIP3    H2 6097   2.072   6.867   2.655
 2052TIP3   OH2 6098   0.961   2.333   0.216
 2052TIP3    H1 6099   0.911   2.251   0.209
 2052TIP3    H2 6100   1.051   2.304   0.227
 2053TIP3   OH2 6101   1.786   0.213   4.261
 2053TIP3    H1 6102   1.691   0.205   4.247
 2053TIP3    H2 6103   1.801   0.307   4.271
 2054TIP3   OH2 6104   0.415   4.316   2.297
 2054TIP3    H1 6105   0.474   4.251   2.336
 2054TIP3    H2 6106   0.371   4.356   2.372
 2055TIP3   OH2 6107   3.616   3.690   1.337
 2055TIP3    H1 6108   3.552   3.751   1.299
 2055TIP3    H2 6109   3.563   3.629   1.388
 2056TIP3   OH2 6110   0.848   3.820   5.054
 2056TIP3    H1 6111   0.812   3.806   5.141
 2056TIP3    H2 6112   0.936   3.853   5.070
 2057TIP3   OH2 6113   6.953   4.249   2.916
 2057TIP3    H1 6114   6.951   4.257   3.011
 2057TIP3    H2 6115   6.989   4.162   2.899
 2058TIP3   OH2 6116   8.257   1.333   6.463
 2058TIP3    H1 6117   8.231   1.246   6.493
 2058TIP3    H2 6118   8.321   1.363   6.528
 2059TIP3   OH2 6119   7.728   7.339   0.169
 2059TIP3    H1 6120   7.647   7.352   0.219
 2059TIP3    H2 6121   7.763   7.427   0.158
 2060TIP3   OH2 6122   8.265   1.271   1.093
 2060TIP3    H1 6123   8.192   1.209   1.094
 2060TIP3    H2 6124   8.343   1.217   1.089
 2061TIP3   OH2 6125   4.032   0.672   5.146
 2061TIP3    H1 6126   3.979   0.626   5.081
 2061TIP3    H2 6127   3.976   0.742   5.177
 2062TIP3   OH2 6128   1.323   2.528   0.777
 2062TIP3    H1 6129   1.295   2.487   0.859
 2062TIP3    H2 6130   1.400   2.580   0.801
 2063TIP3   OH2 6131   0.248   7.336   5.978
 2063TIP3    H1 6132   0.223   7.275   5.908
 2063TIP3    H2 6133   0.337   7.310   6.002
 2064TIP3   OH2 6134   0.571   3.463   2.298
 2064TIP3    H1 6135   0.616   3.478   2.215
 2064TIP3    H2 6136   0.600   3.534   2.355
 2065TIP3   OH2 6137   6.218   0.980   6.391
 2065TIP3    H1 6138   6.187   0.981   6.482
 2065TIP3    H2 6139   6.197   1.067   6.358
 2066TIP3   OH2 6140   4.024   0.312   3.703
 2066TIP3    H1 6141   4.057   0.282   3.788
 2066TIP3    H2 6142   3.929   0.305   3.710
 2067TIP3   OH2 6143   7.399   2.893   5.526
 2067TIP3    H1 6144   7.446   2.870   5.607
 2067TIP3    H2 6145   7.462   2.945   5.476
 2068TIP3   OH2 6146   7.939   6.510   3.384
 2068TIP3    H1 6147   7.871   6.446   3.361
 2068TIP3    H2 6148   7.891   6.583   3.423
 2069TIP3   OH2 6149   6.186   6.619   1.509
 2069TIP3    H1 6150   6.191   6.559   1.583
 2069TIP3    H2 6151   6.194   6.562   1.432
 2070TIP3   OH2 6152   1.627   3.076   3.722
 2070TIP3    H1 6153   1.537   3.049   3.705
 2070TIP3    H2 6154   1.621   3.171   3.735
 2071TIP3   OH2 6155   4.564   2.909   6.228
 2071TIP3    H1 6156   4.602   2.912   6.140
 2071TIP3    H2 6157   4.578   2.819   6.257
 2072TIP3   OH2 6158   6.835   4.566   5.586
 2072TIP3    H1 6159   6.909   4.573   5.526
 2072TIP3    H2 6160   6.847   4.481   5.629
 2073TIP3   OH2 6161   0.690   6.843   5.248
 2073TIP3    H1 6162   0.781   6.836   5.221
 2073TIP3    H2 6163   0.649   6.763   5.214
 2074TIP3   OH2 6164   7.046   0.667   6.689
 2074TIP3    H1 6165   7.085   0.713   6.615
 2074TIP3    H2 6166   7.094   0.584   6.693
 2075TIP3   OH2 6167   0.279   2.298   4.472
 2075TIP3    H1 6168   0.286   2.387   4.507
 2075TIP3    H2 6169   0.357   2.288   4.418
 2076TIP3   OH2 6170   7.519   4.763   2.503
 2076TIP3    H1 6171   7.459   4.730   2.570
 2076TIP3    H2 6172   7.599   4.785   2.552
 2077TIP3   OH2 6173   5.135   2.746   2.832
 2077TIP3    H1 6174   5.077   2.790   2.895
 2077TIP3    H2 6175   5.163   2.666   2.877
 2078TIP3   OH2 6176   0.327   2.073   5.729
 2078TIP3    H1 6177   0.347   2.131   5.655
 2078TIP3    H2 6178   0.368   1.990   5.706
 2079TIP3   OH2 6179   4.565   6.612   3.235
 2079TIP3    H1 6180   4.570   6.646   3.146
 2079TIP3    H2 6181   4.471   6.597   3.250
 2080TIP3   OH2 6182   7.115   3.234   3.253
 2080TIP3    H1 6183   7.048   3.184   3.301
 2080TIP3    H2 6184   7.077   3.250   3.167
 2081TIP3   OH2 6185   1.256   3.602   6.661
 2081TIP3    H1 6186   1.243   3.672   6.726
 2081TIP3    H2 6187   1.195   3.622   6.591
 2082TIP3   OH2 6188   3.498   4.911   0.557
 2082TIP3    H1 6189   3.457   4.906   0.470
 2082TIP3    H2 6190   3.441   4.972   0.605
 2083TIP3   OH2 6191   5.264   0.842   4.531
 2083TIP3    H1 6192   5.343   0.889   4.558
 2083TIP3    H2 6193   5.212   0.836   4.611
 2084TIP3   OH2 6194   6.392   4.482   3.940
 2084TIP3    H1 6195   6.304   4.444   3.937
 2084TIP3    H2 6196   6.449   4.413   3.906
 2085TIP3   OH2 6197   0.296   6.635   0.044
 2085TIP3    H1 6198   0.220   6.689   0.065
 2085TIP3    H2 6199   0.267   6.579  -0.028
 2086TIP3   OH2 6200   2.547   0.893   6.580
 2086TIP3    H1 6201   2.639   0.893   6.607
 2086TIP3    H2 6202   2.501   0.849   6.652
 2087TIP3   OH2 6203   5.930   4.090   5.701
 2087TIP3    H1 6204   5.983   4.105   5.623
 2087TIP3    H2 6205   5.871   4.164   5.706
 2088TIP3   OH2 6206   4.897   7.199   6.056
 2088TIP3    H1 6207   4.873   7.218   6.147
 2088TIP3    H2 6208   4.852   7.266   6.005
 2089TIP3   OH2 6209   5.291   5.296   6.113
 2089TIP3    H1 6210   5.290   5.362   6.183
 2089TIP3    H2 6211   5.307   5.213   6.158
 2090TIP3   OH2 6212   7.967   0.297   6.320
 2090TIP3    H1 6213   7.880   0.328   6.293
 2090TIP3    H2 6214   7.963   0.297   6.416
 2091TIP3   OH2 6215   5.678   0.149   2.599
 2091TIP3    H1 6216   5.681   0.215   2.530
 2091TIP3    H2 6217   5.678   0.200   2.680
 2092TIP3   OH2 6218   7.461   3.198   5.155
 2092TIP3    H1 6219   7.386   3.138   5.165
 2092TIP3    H2 6220   7.432   3.279   5.198
 2093TIP3   OH2 6221   5.498   6.254   4.061
 2093TIP3    H1 6222   5.474   6.190   4.128
 2093TIP3    H2 6223   5.457   6.336   4.090
 2094TIP3   OH2 6224   4.940   0.617   1.689
 2094TIP3    H1 6225   4.903   0.703   1.707
 2094TIP3    H2 6226   4.923   0.602   1.596
 2095TIP3   OH2 6227   7.111   4.512   3.200
 2095TIP3    H1 6228   7.068   4.549   3.123
 2095TIP3    H2 6229   7.130   4.422   3.176
 2096TIP3   OH2 6230   1.128   1.908   0.614
 2096TIP3    H1 6231   1.144   1.974   0.682
 2096TIP3    H2 6232   1.162   1.948   0.534
 2097TIP3   OH2 6233   5.319   5.386   5.091
 2097TIP3    H1 6234   5.273   5.309   5.058
 2097TIP3    H2 6235   5.410   5.357   5.100
 2098TIP3   OH2 6236   0.200   1.241   4.147
 2098TIP3    H1 6237   0.237   1.306   4.206
 2098TIP3    H2 6238   0.275   1.194   4.111
 2099TIP3   OH2 6239   5.190   0.509   3.031
 2099TIP3    H1 6240   5.216   0.551   3.114
 2099TIP3    H2 6241   5.273   0.497   2.984
 2100TIP3   OH2 6242   7.561   2.624   2.504
 2100TIP3    H1 6243   7.625   2.591   2.567
 2100TIP3    H2 6244   7.521   2.699   2.547
 2101TIP3   OH2 6245   1.191   4.335   6.401
 2101TIP3    H1 6246   1.242   4.254   6.401
 2101TIP3    H2 6247   1.130   4.326   6.474
 2102TIP3   OH2 6248   6.676   7.813   3.968
 2102TIP3    H1 6249   6.764   7.820   4.005
 2102TIP3    H2 6250   6.685   7.753   3.894
 2103TIP3   OH2 6251   1.215   7.339   3.449
 2103TIP3    H1 6252   1.233   7.259   3.498
 2103TIP3    H2 6253   1.149   7.385   3.502
 2104TIP3   OH2 6254   0.652   7.165   0.874
 2104TIP3    H1 6255   0.601   7.101   0.824
 2104TIP3    H2 6256   0.590   7.202   0.937
 2105TIP3   OH2 6257   6.183   0.756   4.773
 2105TIP3    H1 6258   6.193   0.740   4.867
 2105TIP3    H2 6259   6.095   0.793   4.765
 2106TIP3   OH2 6260   7.713   7.785   1.225
 2106TIP3    H1 6261   7.708   7.690   1.230
 2106TIP3    H2 6262   7.655   7.816   1.294
 2107TIP3   OH2 6263   5.470   3.399   3.183
 2107TIP3    H1 6264   5.467   3.384   3.089
 2107TIP3    H2 6265   5.392   3.354   3.217
 2108TIP3   OH2 6266   2.637   4.868   3.569
 2108TIP3    H1 6267   2.649   4.795   3.629
 2108TIP3    H2 6268   2.620   4.943   3.627
 2109TIP3   OH2 6269   2.507   5.093   0.711
 2109TIP3    H1 6270   2.551   5.029   0.766
 2109TIP3    H2 6271   2.513   5.056   0.623
 2110TIP3   OH2 6272   3.090   1.271   2.934
 2110TIP3    H1 6273   3.178   1.273   2.897
 2110TIP3    H2 6274   3.078   1.357   2.975
 2111TIP3   OH2 6275   2.998   6.937   0.334
 2111TIP3    H1 6276   3.063   6.994   0.376
 2111TIP3    H2 6277   2.961   6.886   0.406
 2112TIP3   OH2 6278   5.863   1.323   1.218
 2112TIP3    H1 6279   5.900   1.242   1.254
 2112TIP3    H2 6280   5.772   1.323   1.249
 2113TIP3   OH2 6281   0.517   5.542   5.784
 2113TIP3    H1 6282   0.528   5.588   5.867
 2113TIP3    H2 6283   0.558   5.456   5.799
 2114TIP3   OH2 6284   8.092   0.559   3.868
 2114TIP3    H1 6285   8.057   0.498   3.932
 2114TIP3    H2 6286   8.057   0.644   3.896
 2115TIP3   OH2 6287   5.716   2.483   2.122
 2115TIP3    H1 6288   5.723   2.463   2.029
 2115TIP3    H2 6289   5.633   2.531   2.130
 2116TIP3   OH2 6290   5.924   2.201   3.084
 2116TIP3    H1 6291   5.861   2.189   3.155
 2116TIP3    H2 6292   5.888   2.273   3.032
 2117TIP3   OH2 6293   2.538   5.820   5.301
 2117TIP3    H1 6294   2.484   5.897   5.283
 2117TIP3    H2 6295   2.627   5.854   5.303
 2118TIP3   OH2 6296   4.048   3.050   4.114
 2118TIP3    H1 6297   4.116   3.017   4.055
 2118TIP3    H2 6298   3.967   3.039   4.065
 2119TIP3   OH2 6299   8.006   2.447   0.535
 2119TIP3    H1 6300   8.045   2.394   0.605
 2119TIP3    H2 6301   7.989   2.385   0.464
 2120TIP3   OH2 6302   6.373   3.661   0.381
 2120TIP3    H1 6303   6.454   3.701   0.411
 2120TIP3    H2 6304   6.382   3.658   0.286
 2121TIP3   OH2 6305   4.636   2.702   5.217
 2121TIP3    H1 6306   4.713   2.647   5.203
 2121TIP3    H2 6307   4.564   2.655   5.175
 2122TIP3   OH2 6308   6.137   2.120   5.735
 2122TIP3    H1 6309   6.189   2.084   5.806
 2122TIP3    H2 6310   6.082   2.048   5.705
 2123TIP3   OH2 6311   4.244   0.896   4.549
 2123TIP3    H1 6312   4.297   0.833   4.499
 2123TIP3    H2 6313   4.157   0.857   4.554
 2124TIP3   OH2 6314   4.021   1.401   0.220
 2124TIP3    H1 6315   4.065   1.328   0.175
 2124TIP3    H2 6316   3.979   1.360   0.296
 2125TIP3   OH2 6317   8.026   0.913   2.187
 2125TIP3    H1 6318   7.938   0.944   2.210
 2125TIP3    H2 6319   8.084   0.984   2.214
 2126TIP3   OH2 6320   1.384   3.576   5.629
 2126TIP3    H1 6321   1.450   3.644   5.618
 2126TIP3    H2 6322   1.412   3.505   5.571
 2127TIP3   OH2 6323   7.953   7.098   6.134
 2127TIP3    H1 6324   7.977   7.131   6.048
 2127TIP3    H2 6325   7.860   7.077   6.127
 2128TIP3   OH2 6326   4.636   2.067   2.917
 2128TIP3    H1 6327   4.720   2.100   2.951
 2128TIP3    H2 6328   4.644   1.972   2.923
 2129TIP3   OH2 6329   0.212   0.071   6.436
 2129TIP3    H1 6330   0.153   0.030   6.500
 2129TIP3    H2 6331   0.214   0.163   6.462
 2130TIP3   OH2 6332   6.000   4.300   5.174
 2130TIP3    H1 6333   5.981   4.286   5.081
 2130TIP3    H2 6334   5.959   4.384   5.195
 2131TIP3   OH2 6335   4.919   3.289   2.081
 2131TIP3    H1 6336   4.839   3.326   2.045
 2131TIP3    H2 6337   4.925   3.202   2.043
 2132TIP3   OH2 6338   5.330   4.316   1.794
 2132TIP3    H1 6339   5.318   4.266   1.714
 2132TIP3    H2 6340   5.299   4.258   1.864
 2133TIP3   OH2 6341   2.107   0.261   1.237
 2133TIP3    H1 6342   2.169   0.188   1.225
 2133TIP3    H2 6343   2.141   0.310   1.311
 2134TIP3   OH2 6344   6.993   7.585   1.556
 2134TIP3    H1 6345   7.053   7.511   1.550
 2134TIP3    H2 6346   7.022   7.634   1.633
 2135TIP3   OH2 6347   0.975   6.196   5.846
 2135TIP3    H1 6348   1.039   6.261   5.876
 2135TIP3    H2 6349   0.893   6.244   5.839
 2136TIP3   OH2 6350   5.860   2.048   1.177
 2136TIP3    H1 6351   5.883   2.136   1.206
 2136TIP3    H2 6352   5.810   2.011   1.249
 2137TIP3   OH2 6353   3.363   0.212   1.799
 2137TIP3    H1 6354   3.413   0.131   1.806
 2137TIP3    H2 6355   3.341   0.219   1.706
 2138TIP3   OH2 6356   1.362   2.828   1.603
 2138TIP3    H1 6357   1.308   2.907   1.604
 2138TIP3    H2 6358   1.309   2.764   1.557
 2139TIP3   OH2 6359   7.265   3.622   6.613
 2139TIP3    H1 6360   7.284   3.607   6.705
 2139TIP3    H2 6361   7.310   3.704   6.592
 2140TIP3   OH2 6362   8.328   7.768   2.044
 2140TIP3    H1 6363   8.262   7.709   2.080
 2140TIP3    H2 6364   8.295   7.856   2.063
 2141TIP3   OH2 6365   7.080   6.919   6.267
 2141TIP3    H1 6366   7.124   6.915   6.351
 2141TIP3    H2 6367   7.031   6.837   6.261
 2142TIP3   OH2 6368   1.765   4.698   6.257
 2142TIP3    H1 6369   1.769   4.615   6.305
 2142TIP3    H2 6370   1.711   4.679   6.180
 2143TIP3   OH2 6371   3.786   3.180   0.946
 2143TIP3    H1 6372   3.872   3.215   0.920
 2143TIP3    H2 6373   3.805   3.116   1.014
 2144TIP3   OH2 6374   7.507   4.176   0.803
 2144TIP3    H1 6375   7.587   4.152   0.852
 2144TIP3    H2 6376   7.528   4.155   0.712
 2145TIP3   OH2 6377   0.585   5.556   0.103
 2145TIP3    H1 6378   0.657   5.573   0.164
 2145TIP3    H2 6379   0.509   5.599   0.142
 2146TIP3   OH2 6380   3.562   4.422   2.995
 2146TIP3    H1 6381   3.631   4.394   3.055
 2146TIP3    H2 6382   3.541   4.511   3.022
 2147TIP3   OH2 6383   6.887   2.370   3.751
 2147TIP3    H1 6384   6.798   2.374   3.716
 2147TIP3    H2 6385   6.886   2.297   3.813
 2148TIP3   OH2 6386   5.286   6.849   1.267
 2148TIP3    H1 6387   5.341   6.902   1.324
 2148TIP3    H2 6388   5.345   6.780   1.236
 2149TIP3   OH2 6389   4.817   4.981   3.650
 2149TIP3    H1 6390   4.792   5.036   3.724
 2149TIP3    H2 6391   4.904   5.012   3.625
 2150TIP3   OH2 6392   5.266   3.434   1.554
 2150TIP3    H1 6393   5.324   3.372   1.509
 2150TIP3    H2 6394   5.178   3.407   1.527
 2151TIP3   OH2 6395   6.936   5.468   6.592
 2151TIP3    H1 6396   6.967   5.440   6.506
 2151TIP3    H2 6397   7.003   5.529   6.623
 2152TIP3   OH2 6398   0.704   6.922   3.649
 2152TIP3    H1 6399   0.672   6.834   3.629
 2152TIP3    H2 6400   0.677   6.937   3.740
 2153TIP3   OH2 6401   6.884   1.380   2.982
 2153TIP3    H1 6402   6.969   1.420   2.963
 2153TIP3    H2 6403   6.874   1.388   3.076
 2154TIP3   OH2 6404   6.283   7.524   4.515
 2154TIP3    H1 6405   6.350   7.587   4.542
 2154TIP3    H2 6406   6.332   7.446   4.488
 2155TIP3   OH2 6407   2.129   6.543   4.253
 2155TIP3    H1 6408   2.192   6.555   4.324
 2155TIP3    H2 6409   2.183   6.526   4.176
 2156TIP3   OH2 6410   5.747   1.463   3.611
 2156TIP3    H1 6411   5.798   1.397   3.659
 2156TIP3    H2 6412   5.682   1.494   3.674
 2157TIP3   OH2 6413   5.010   6.350   5.789
 2157TIP3    H1 6414   5.016   6.445   5.782
 2157TIP3    H2 6415   5.008   6.319   5.698
 2158TIP3   OH2 6416   6.884   4.364   5.799
 2158TIP3    H1 6417   6.946   4.310   5.849
 2158TIP3    H2 6418   6.895   4.452   5.834
 2159TIP3   OH2 6419   5.891   6.246   1.616
 2159TIP3    H1 6420   5.803   6.260   1.582
 2159TIP3    H2 6421   5.931   6.186   1.554
 2160TIP3   OH2 6422   6.434   1.285   1.381
 2160TIP3    H1 6423   6.385   1.203   1.381
 2160TIP3    H2 6424   6.397   1.335   1.453
 2161TIP3   OH2 6425   2.855   3.495   1.066
 2161TIP3    H1 6426   2.770   3.488   1.022
 2161TIP3    H2 6427   2.833   3.487   1.159
 2162TIP3   OH2 6428   2.932   5.004   4.919
 2162TIP3    H1 6429   2.859   4.950   4.947
 2162TIP3    H2 6430   2.898   5.093   4.919
 2163TIP3   OH2 6431   6.895   5.747   4.359
 2163TIP3    H1 6432   6.936   5.774   4.442
 2163TIP3    H2 6433   6.822   5.691   4.386
 2164TIP3   OH2 6434   8.204   3.398   1.546
 2164TIP3    H1 6435   8.175   3.322   1.597
 2164TIP3    H2 6436   8.290   3.420   1.581
 2165TIP3   OH2 6437   7.308   3.003   6.036
 2165TIP3    H1 6438   7.288   3.077   6.095
 2165TIP3    H2 6439   7.379   2.956   6.080
 2166TIP3   OH2 6440   4.161   7.281   4.441
 2166TIP3    H1 6441   4.102   7.297   4.368
 2166TIP3    H2 6442   4.190   7.190   4.430
 2167TIP3   OH2 6443   0.190   3.177   4.598
 2167TIP3    H1 6444   0.219   3.255   4.550
 2167TIP3    H2 6445   0.216   3.104   4.542
 2168TIP3   OH2 6446   6.699   7.765   3.237
 2168TIP3    H1 6447   6.650   7.690   3.270
 2168TIP3    H2 6448   6.672   7.773   3.145
 2169TIP3   OH2 6449   3.845   5.568   6.754
 2169TIP3    H1 6450   3.890   5.647   6.783
 2169TIP3    H2 6451   3.860   5.565   6.660
 2170TIP3   OH2 6452   6.845   7.710   0.830
 2170TIP3    H1 6453   6.892   7.648   0.774
 2170TIP3    H2 6454   6.757   7.713   0.793
 2171TIP3   OH2 6455   4.147   0.823   5.776
 2171TIP3    H1 6456   4.106   0.744   5.738
 2171TIP3    H2 6457   4.084   0.893   5.759
 2172TIP3   OH2 6458   0.635   0.274   6.414
 2172TIP3    H1 6459   0.647   0.358   6.370
 2172TIP3    H2 6460   0.719   0.258   6.458
 2173TIP3   OH2 6461   6.264   4.803   5.995
 2173TIP3    H1 6462   6.180   4.842   6.020
 2173TIP3    H2 6463   6.299   4.863   5.928
 2174TIP3   OH2 6464   7.660   3.883   4.115
 2174TIP3    H1 6465   7.581   3.829   4.120
 2174TIP3    H2 6466   7.725   3.826   4.073
 2175TIP3   OH2 6467   0.267   2.087   1.962
 2175TIP3    H1 6468   0.267   2.132   2.046
 2175TIP3    H2 6469   0.341   2.027   1.966
 2176TIP3   OH2 6470   0.498   7.623   1.027
 2176TIP3    H1 6471   0.565   7.605   1.093
 2176TIP3    H2 6472   0.416   7.595   1.068
 2177TIP3   OH2 6473   7.702   3.900   5.637
 2177TIP3    H1 6474   7.736   3.942   5.716
 2177TIP3    H2 6475   7.716   3.965   5.568
 2178TIP3   OH2 6476   5.667   6.167   5.604
 2178TIP3    H1 6477   5.724   6.100   5.567
 2178TIP3    H2 6478   5.691   6.171   5.697
 2179TIP3   OH2 6479   0.412   7.001   6.458
 2179TIP3    H1 6480   0.346   7.065   6.484
 2179TIP3    H2 6481   0.389   6.922   6.507
 2180TIP3   OH2 6482   3.117   0.791   6.124
 2180TIP3    H1 6483   3.131   0.802   6.030
 2180TIP3    H2 6484   3.090   0.878   6.154
 2181TIP3   OH2 6485   1.568   6.698   2.673
 2181TIP3    H1 6486   1.494   6.649   2.708
 2181TIP3    H2 6487   1.624   6.715   2.749
 2182TIP3   OH2 6488   7.349   1.293   0.480
 2182TIP3    H1 6489   7.307   1.210   0.502
 2182TIP3    H2 6490   7.363   1.336   0.565
 2183TIP3   OH2 6491   7.555   4.255   2.833
 2183TIP3    H1 6492   7.535   4.318   2.764
 2183TIP3    H2 6493   7.647   4.272   2.854
 2184TIP3   OH2 6494   3.754   1.977   6.291
 2184TIP3    H1 6495   3.780   2.063   6.323
 2184TIP3    H2 6496   3.661   1.971   6.313
 2185TIP3   OH2 6497   1.315   1.944   6.393
 2185TIP3    H1 6498   1.407   1.918   6.396
 2185TIP3    H2 6499   1.279   1.900   6.316
 2186TIP3   OH2 6500   4.212   4.076   5.788
 2186TIP3    H1 6501   4.273   4.104   5.720
 2186TIP3    H2 6502   4.183   4.157   5.830
 2187TIP3   OH2 6503   7.576   7.689   0.723
 2187TIP3    H1 6504   7.539   7.601   0.723
 2187TIP3    H2 6505   7.664   7.678   0.759
 2188TIP3   OH2 6506   1.995   3.892   2.803
 2188TIP3    H1 6507   1.922   3.887   2.866
 2188TIP3    H2 6508   1.974   3.826   2.737
 2189TIP3   OH2 6509   6.706   2.620   0.125
 2189TIP3    H1 6510   6.618   2.582   0.130
 2189TIP3    H2 6511   6.736   2.598   0.037
 2190TIP3   OH2 6512   1.569   5.906   0.444
 2190TIP3    H1 6513   1.577   5.975   0.510
 2190TIP3    H2 6514   1.652   5.860   0.448
 2191TIP3   OH2 6515   5.484   6.916   3.366
 2191TIP3    H1 6516   5.522   6.874   3.443
 2191TIP3    H2 6517   5.391   6.892   3.369
 2192TIP3   OH2 6518   2.194   6.796   5.945
 2192TIP3    H1 6519   2.234   6.881   5.965
 2192TIP3    H2 6520   2.114   6.795   5.998
 2193TIP3   OH2 6521   5.416   5.720   2.399
 2193TIP3    H1 6522   5.426   5.767   2.482
 2193TIP3    H2 6523   5.478   5.647   2.405
 2194TIP3   OH2 6524   0.832   3.365   4.970
 2194TIP3    H1 6525   0.819   3.459   4.982
 2194TIP3    H2 6526   0.916   3.347   5.011
 2195TIP3   OH2 6527   3.984   6.307   2.532
 2195TIP3    H1 6528   3.949   6.277   2.448
 2195TIP3    H2 6529   3.967   6.235   2.593
 2196TIP3   OH2 6530   4.519   5.964   2.926
 2196TIP3    H1 6531   4.545   6.002   3.010
 2196TIP3    H2 6532   4.442   6.014   2.900
 2197TIP3   OH2 6533   5.227   4.120   1.960
 2197TIP3    H1 6534   5.142   4.111   2.004
 2197TIP3    H2 6535   5.273   4.039   1.982
 2198TIP3   OH2 6536   4.173   3.960   0.521
 2198TIP3    H1 6537   4.200   4.046   0.552
 2198TIP3    H2 6538   4.106   3.979   0.454
 2199TIP3   OH2 6539   3.418   1.697   3.169
 2199TIP3    H1 6540   3.425   1.745   3.251
 2199TIP3    H2 6541   3.400   1.764   3.104
 2200TIP3   OH2 6542   7.693   2.414   2.237
 2200TIP3    H1 6543   7.606   2.377   2.222
 2200TIP3    H2 6544   7.683   2.508   2.219
 2201TIP3   OH2 6545   0.487   4.894   2.077
 2201TIP3    H1 6546   0.527   4.927   1.997
 2201TIP3    H2 6547   0.523   4.806   2.088
 2202TIP3   OH2 6548   7.360   1.087   1.406
 2202TIP3    H1 6549   7.293   1.115   1.468
 2202TIP3    H2 6550   7.395   1.168   1.370
 2203TIP3   OH2 6551   5.344   6.873   4.298
 2203TIP3    H1 6552   5.249   6.884   4.309
 2203TIP3    H2 6553   5.379   6.879   4.387
 2204TIP3   OH2 6554   0.943   1.475   3.754
 2204TIP3    H1 6555   0.931   1.410   3.685
 2204TIP3    H2 6556   1.009   1.437   3.813
 2205TIP3   OH2 6557   7.308   3.564   5.843
 2205TIP3    H1 6558   7.294   3.566   5.749
 2205TIP3    H2 6559   7.309   3.471   5.866
 2206TIP3   OH2 6560   1.812   6.924   0.107
 2206TIP3    H1 6561   1.867   6.971   0.170
 2206TIP3    H2 6562   1.860   6.929   0.024
 2207TIP3   OH2 6563   0.850   5.130   0.252
 2207TIP3    H1 6564   0.865   5.074   0.175
 2207TIP3    H2 6565   0.792   5.078   0.308
 2208TIP3   OH2 6566   1.362   6.248   2.983
 2208TIP3    H1 6567   1.325   6.161   3.000
 2208TIP3    H2 6568   1.425   6.262   3.054
 2209TIP3   OH2 6569   3.545   7.664   4.056
 2209TIP3    H1 6570   3.582   7.578   4.079
 2209TIP3    H2 6571   3.590   7.688   3.975
 2210TIP3   OH2 6572   8.033   6.114   2.601
 2210TIP3    H1 6573   7.947   6.157   2.600
 2210TIP3    H2 6574   8.060   6.117   2.693
 2211TIP3   OH2 6575   2.824   0.422   0.274
 2211TIP3    H1 6576   2.875   0.454   0.200
 2211TIP3    H2 6577   2.783   0.342   0.242
 2212TIP3   OH2 6578   3.152   7.609   1.346
 2212TIP3    H1 6579   3.069   7.564   1.358
 2212TIP3    H2 6580   3.207   7.546   1.300
 2213TIP3   OH2 6581   1.456   0.351   3.981
 2213TIP3    H1 6582   1.385   0.300   4.018
 2213TIP3    H2 6583   1.453   0.332   3.887
 2214TIP3   OH2 6584   5.320   0.275   1.437
 2214TIP3    H1 6585   5.319   0.179   1.433
 2214TIP3    H2 6586   5.324   0.296   1.530
 2215TIP3   OH2 6587   6.588   1.839   0.283
 2215TIP3    H1 6588   6.508   1.788   0.271
 2215TIP3    H2 6589   6.585   1.868   0.374
 2216TIP3   OH2 6590   7.239   6.520   4.849
 2216TIP3    H1 6591   7.333   6.514   4.867
 2216TIP3    H2 6592   7.209   6.593   4.904
 2217TIP3   OH2 6593   1.119   4.867   0.705
 2217TIP3    H1 6594   1.212   4.862   0.727
 2217TIP3    H2 6595   1.091   4.953   0.736
 2218TIP3   OH2 6596   1.055   2.846   5.821
 2218TIP3    H1 6597   1.057   2.819   5.913
 2218TIP3    H2 6598   1.126   2.798   5.780
 2219TIP3   OH2 6599   5.931   7.291   1.457
 2219TIP3    H1 6600   5.848   7.243   1.449
 2219TIP3    H2 6601   5.995   7.224   1.481
 2220TIP3   OH2 6602   6.519   6.686   2.079
 2220TIP3    H1 6603   6.465   6.687   2.157
 2220TIP3    H2 6604   6.457   6.674   2.007
 2221TIP3   OH2 6605   6.004   6.014   3.802
 2221TIP3    H1 6606   6.060   6.088   3.778
 2221TIP3    H2 6607   6.021   6.000   3.895
 2222TIP3   OH2 6608   4.320   6.383   2.205
 2222TIP3    H1 6609   4.251   6.332   2.161
 2222TIP3    H2 6610   4.280   6.413   2.286
 2223TIP3   OH2 6611   4.129   1.261   3.652
 2223TIP3    H1 6612   4.129   1.238   3.559
 2223TIP3    H2 6613   4.071   1.338   3.658
 2224TIP3   OH2 6614   8.015   4.415   2.969
 2224TIP3    H1 6615   7.987   4.501   2.937
 2224TIP3    H2 6616   8.083   4.435   3.034
 2225TIP3   OH2 6617   2.974   2.056   4.595
 2225TIP3    H1 6618   3.048   2.068   4.537
 2225TIP3    H2 6619   2.936   1.973   4.569
 2226TIP3   OH2 6620   4.918   3.667   0.090
 2226TIP3    H1 6621   4.861   3.716   0.031
 2226TIP3    H2 6622   5.006   3.683   0.055
 2227TIP3   OH2 6623   2.493   0.269   0.494
 2227TIP3    H1 6624   2.417   0.320   0.523
 2227TIP3    H2 6625   2.521   0.222   0.572
 2228TIP3   OH2 6626   4.648   4.755   0.815
 2228TIP3    H1 6627   4.684   4.830   0.863
 2228TIP3    H2 6628   4.712   4.739   0.746
 2229TIP3   OH2 6629   4.034   1.216   6.235
 2229TIP3    H1 6630   4.032   1.144   6.172
 2229TIP3    H2 6631   4.120   1.256   6.222
 2230TIP3   OH2 6632   2.912   5.780   3.961
 2230TIP3    H1 6633   2.976   5.799   4.030
 2230TIP3    H2 6634   2.836   5.745   4.008
 2231TIP3   OH2 6635   4.005   4.217   6.618
 2231TIP3    H1 6636   4.073   4.185   6.559
 2231TIP3    H2 6637   3.925   4.216   6.566
 2232TIP3   OH2 6638   4.418   0.208   4.508
 2232TIP3    H1 6639   4.423   0.274   4.439
 2232TIP3    H2 6640   4.474   0.136   4.477
 2233TIP3   OH2 6641   6.635   6.463   2.601
 2233TIP3    H1 6642   6.725   6.461   2.632
 2233TIP3    H2 6643   6.600   6.377   2.622
 2234TIP3   OH2 6644   6.751   0.582   4.396
 2234TIP3    H1 6645   6.835   0.548   4.364
 2234TIP3    H2 6646   6.765   0.594   4.490
 2235TIP3   OH2 6647   8.056   0.582   3.431
 2235TIP3    H1 6648   8.055   0.534   3.348
 2235TIP3    H2 6649   8.006   0.662   3.412
 2236TIP3   OH2 6650   2.386   0.411   6.293
 2236TIP3    H1 6651   2.453   0.402   6.361
 2236TIP3    H2 6652   2.435   0.418   6.212
 2237TIP3   OH2 6653   4.393   5.593   3.614
 2237TIP3    H1 6654   4.416   5.502   3.593
 2237TIP3    H2 6655   4.337   5.621   3.542
 2238TIP3   OH2 6656   5.405   0.149   2.613
 2238TIP3    H1 6657   5.395   0.095   2.692
 2238TIP3    H2 6658   5.500   0.148   2.596
 2239TIP3   OH2 6659   4.917   5.492   3.596
 2239TIP3    H1 6660   4.923   5.577   3.641
 2239TIP3    H2 6661   4.960   5.506   3.512
 2240TIP3   OH2 6662   3.804   1.605   4.051
 2240TIP3    H1 6663   3.771   1.628   4.138
 2240TIP3    H2 6664   3.894   1.577   4.067
 2241TIP3   OH2 6665   1.205   6.909   0.226
 2241TIP3    H1 6666   1.260   6.864   0.162
 2241TIP3    H2 6667   1.146   6.841   0.258
 2242TIP3   OH2 6668   0.652   0.111   3.174
 2242TIP3    H1 6669   0.568   0.120   3.131
 2242TIP3    H2 6670   0.637   0.045   3.242
 2243TIP3   OH2 6671   4.178   0.233   3.940
 2243TIP3    H1 6672   4.268   0.207   3.956
 2243TIP3    H2 6673   4.172   0.322   3.975
 2244TIP3   OH2 6674   5.697   1.139   4.971
 2244TIP3    H1 6675   5.640   1.084   4.917
 2244TIP3    H2 6676   5.671   1.229   4.949
 2245TIP3   OH2 6677   6.380   1.427   0.895
 2245TIP3    H1 6678   6.387   1.518   0.865
 2245TIP3    H2 6679   6.290   1.419   0.926
 2246TIP3   OH2 6680   7.938   3.736   1.996
 2246TIP3    H1 6681   7.971   3.701   2.078
 2246TIP3    H2 6682   7.995   3.811   1.977
 2247TIP3   OH2 6683   3.199   3.689   3.594
 2247TIP3    H1 6684   3.218   3.769   3.545
 2247TIP3    H2 6685   3.195   3.620   3.527
 2248TIP3   OH2 6686   1.378   2.068   2.675
 2248TIP3    H1 6687   1.464   2.059   2.716
 2248TIP3    H2 6688   1.352   1.979   2.653
 2249TIP3   OH2 6689   4.125   5.014   5.328
 2249TIP3    H1 6690   4.081   5.065   5.397
 2249TIP3    H2 6691   4.160   4.938   5.374
 2250TIP3   OH2 6692   4.194   0.119   1.490
 2250TIP3    H1 6693   4.145   0.182   1.436
 2250TIP3    H2 6694   4.285   0.130   1.462
 2251TIP3   OH2 6695   0.869   4.322   1.796
 2251TIP3    H1 6696   0.849   4.230   1.783
 2251TIP3    H2 6697   0.818   4.368   1.730
 2252TIP3   OH2 6698   8.221   3.076   0.153
 2252TIP3    H1 6699   8.258   2.997   0.192
 2252TIP3    H2 6700   8.133   3.049   0.126
 2253TIP3   OH2 6701   5.752   3.642   0.616
 2253TIP3    H1 6702   5.816   3.578   0.585
 2253TIP3    H2 6703   5.796   3.726   0.608
 2254TIP3   OH2 6704   5.159   0.415   6.246
 2254TIP3    H1 6705   5.178   0.508   6.237
 2254TIP3    H2 6706   5.111   0.393   6.166
 2255TIP3   OH2 6707   3.486   4.004   2.505
 2255TIP3    H1 6708   3.426   3.947   2.458
 2255TIP3    H2 6709   3.568   3.997   2.457
 2256TIP3   OH2 6710   4.791   1.705   1.183
 2256TIP3    H1 6711   4.760   1.790   1.214
 2256TIP3    H2 6712   4.713   1.650   1.183
 2257TIP3   OH2 6713   4.012   2.549   4.370
 2257TIP3    H1 6714   4.085   2.533   4.429
 2257TIP3    H2 6715   3.943   2.489   4.400
 2258TIP3   OH2 6716   2.232   5.738   3.426
 2258TIP3    H1 6717   2.201   5.680   3.496
 2258TIP3    H2 6718   2.320   5.765   3.454
 2259TIP3   OH2 6719   1.691   1.045   3.781
 2259TIP3    H1 6720   1.658   1.019   3.867
 2259TIP3    H2 6721   1.786   1.052   3.793
 2260TIP3   OH2 6722   5.949   2.136   0.451
 2260TIP3    H1 6723   6.021   2.180   0.495
 2260TIP3    H2 6724   5.894   2.102   0.521
 2261TIP3   OH2 6725   7.664   4.913   5.322
 2261TIP3    H1 6726   7.572   4.890   5.311
 2261TIP3    H2 6727   7.666   5.008   5.314
 2262TIP3   OH2 6728   1.288   5.334   6.366
 2262TIP3    H1 6729   1.362   5.375   6.321
 2262TIP3    H2 6730   1.225   5.405   6.377
 2263TIP3   OH2 6731   2.862   2.904   0.587
 2263TIP3    H1 6732   2.773   2.877   0.566
 2263TIP3    H2 6733   2.866   2.900   0.683
 2264TIP3   OH2 6734   4.773   2.869   5.497
 2264TIP3    H1 6735   4.805   2.779   5.490
 2264TIP3    H2 6736   4.678   2.861   5.494
 2265TIP3   OH2 6737   0.452   6.653   0.372
 2265TIP3    H1 6738   0.366   6.691   0.357
 2265TIP3    H2 6739   0.503   6.677   0.294
 2266TIP3   OH2 6740   1.662   5.248   6.787
 2266TIP3    H1 6741   1.593   5.302   6.748
 2266TIP3    H2 6742   1.716   5.221   6.713
 2267TIP3   OH2 6743   4.153   7.357   4.699
 2267TIP3    H1 6744   4.239   7.384   4.730
 2267TIP3    H2 6745   4.161   7.356   4.604
 2268TIP3   OH2 6746   2.704   6.949   4.291
 2268TIP3    H1 6747   2.703   7.044   4.294
 2268TIP3    H2 6748   2.661   6.927   4.208
 2269TIP3   OH2 6749   4.329  -0.010   2.419
 2269TIP3    H1 6750   4.340   0.075   2.376
 2269TIP3    H2 6751   4.417  -0.046   2.422
 2270TIP3   OH2 6752   3.143   0.800   5.818
 2270TIP3    H1 6753   3.078   0.808   5.748
 2270TIP3    H2 6754   3.227   0.802   5.774
 2271TIP3   OH2 6755   0.701   6.905   3.918
 2271TIP3    H1 6756   0.653   6.937   3.994
 2271TIP3    H2 6757   0.703   6.810   3.929
 2272TIP3   OH2 6758   3.128   4.983   0.885
 2272TIP3    H1 6759   3.116   4.897   0.926
 2272TIP3    H2 6760   3.160   5.039   0.956
 2273TIP3   OH2 6761   4.255   2.776   0.498
 2273TIP3    H1 6762   4.282   2.868   0.502
 2273TIP3    H2 6763   4.266   2.743   0.587
 2274TIP3   OH2 6764   1.477   0.683   4.749
 2274TIP3    H1 6765   1.451   0.604   4.702
 2274TIP3    H2 6766   1.457   0.664   4.841
 2275TIP3   OH2 6767   2.937   5.206   2.516
 2275TIP3    H1 6768   2.867   5.152   2.480
 2275TIP3    H2 6769   2.892   5.272   2.568
 2276TIP3   OH2 6770   0.120   3.996   4.768
 2276TIP3    H1 6771   0.054   3.994   4.699
 2276TIP3    H2 6772   0.153   3.906   4.773
 2277TIP3   OH2 6773   3.678   0.728   1.023
 2277TIP3    H1 6774   3.624   0.671   1.078
 2277TIP3    H2 6775   3.689   0.679   0.942
 2278TIP3   OH2 6776   0.631   3.131   1.775
 2278TIP3    H1 6777   0.590   3.135   1.862
 2278TIP3    H2 6778   0.718   3.168   1.789
 2279TIP3   OH2 6779   5.179   3.941   0.159
 2279TIP3    H1 6780   5.256   3.995   0.172
 2279TIP3    H2 6781   5.106   4.003   0.158
 2280TIP3   OH2 6782   7.725   0.250   1.230
 2280TIP3    H1 6783   7.675   0.187   1.283
 2280TIP3    H2 6784   7.767   0.307   1.294
 2281TIP3   OH2 6785   1.798   0.405   5.157
 2281TIP3    H1 6786   1.838   0.491   5.142
 2281TIP3    H2 6787   1.868   0.343   5.138
 2282TIP3   OH2 6788   2.950   6.209   2.829
 2282TIP3    H1 6789   2.926   6.181   2.740
 2282TIP3    H2 6790   2.988   6.130   2.868
 2283TIP3   OH2 6791   7.842   0.182   3.277
 2283TIP3    H1 6792   7.849   0.088   3.259
 2283TIP3    H2 6793   7.925   0.218   3.247
 2284TIP3   OH2 6794   5.597   0.248   2.303
 2284TIP3    H1 6795   5.549   0.170   2.272
 2284TIP3    H2 6796   5.529   0.307   2.333
 2285TIP3   OH2 6797   7.541   3.108   5.414
 2285TIP3    H1 6798   7.523   3.199   5.438
 2285TIP3    H2 6799   7.561   3.112   5.320
 2286TIP3   OH2 6800   4.166   5.879   1.069
 2286TIP3    H1 6801   4.147   5.967   1.103
 2286TIP3    H2 6802   4.256   5.884   1.038
 2287TIP3   OH2 6803   3.020   0.150   4.803
 2287TIP3    H1 6804   2.946   0.181   4.856
 2287TIP3    H2 6805   3.097   0.168   4.857
 2288TIP3   OH2 6806   6.443   2.331   2.768
 2288TIP3    H1 6807   6.535   2.353   2.782
 2288TIP3    H2 6808   6.424   2.265   2.834
 2289TIP3   OH2 6809   1.889   5.443   5.379
 2289TIP3    H1 6810   1.811   5.482   5.419
 2289TIP3    H2 6811   1.930   5.393   5.450
 2290TIP3   OH2 6812   5.026   4.185   5.098
 2290TIP3    H1 6813   4.939   4.225   5.108
 2290TIP3    H2 6814   5.019   4.134   5.017
 2291TIP3   OH2 6815   6.182   5.103   3.264
 2291TIP3    H1 6816   6.157   5.078   3.175
 2291TIP3    H2 6817   6.109   5.074   3.318
 2292TIP3   OH2 6818   2.051   0.403   5.493
 2292TIP3    H1 6819   2.072   0.485   5.537
 2292TIP3    H2 6820   2.062   0.422   5.400
 2293TIP3   OH2 6821   7.225   6.972   2.340
 2293TIP3    H1 6822   7.236   6.877   2.338
 2293TIP3    H2 6823   7.315   7.007   2.337
 2294TIP3   OH2 6824   1.592   5.375   4.700
 2294TIP3    H1 6825   1.678   5.404   4.670
 2294TIP3    H2 6826   1.564   5.310   4.635
 2295TIP3   OH2 6827   7.637   0.506   3.818
 2295TIP3    H1 6828   7.683   0.585   3.848
 2295TIP3    H2 6829   7.567   0.538   3.762
 2296TIP3   OH2 6830   3.082   1.049   1.379
 2296TIP3    H1 6831   3.022   1.113   1.415
 2296TIP3    H2 6832   3.146   1.100   1.330
 2297TIP3   OH2 6833   2.456   6.978   2.021
 2297TIP3    H1 6834   2.456   7.053   1.961
 2297TIP3    H2 6835   2.440   6.902   1.964
 2298TIP3   OH2 6836   6.993   1.160   6.381
 2298TIP3    H1 6837   6.983   1.125   6.470
 2298TIP3    H2 6838   6.914   1.132   6.335
 2299TIP3   OH2 6839   5.683   4.775   3.172
 2299TIP3    H1 6840   5.639   4.859   3.164
 2299TIP3    H2 6841   5.725   4.760   3.087
 2300TIP3   OH2 6842   4.939   3.303   4.203
 2300TIP3    H1 6843   5.007   3.358   4.165
 2300TIP3    H2 6844   4.947   3.220   4.155
 2301TIP3   OH2 6845   1.222   5.807   0.825
 2301TIP3    H1 6846   1.208   5.743   0.756
 2301TIP3    H2 6847   1.272   5.760   0.892
 2302TIP3   OH2 6848   5.629   6.578   5.731
 2302TIP3    H1 6849   5.708   6.608   5.776
 2302TIP3    H2 6850   5.617   6.488   5.759
 2303TIP3   OH2 6851   2.576   2.787   0.556
 2303TIP3    H1 6852   2.528   2.705   0.550
 2303TIP3    H2 6853   2.569   2.826   0.469
 2304TIP3   OH2 6854   0.089   1.411   3.650
 2304TIP3    H1 6855   0.036   1.335   3.674
 2304TIP3    H2 6856   0.177   1.390   3.681
 2305TIP3   OH2 6857   1.491   2.032   4.804
 2305TIP3    H1 6858   1.416   2.048   4.747
 2305TIP3    H2 6859   1.537   1.959   4.762
 2306TIP3   OH2 6860   7.012   7.564   0.690
 2306TIP3    H1 6861   7.025   7.498   0.622
 2306TIP3    H2 6862   7.020   7.516   0.772
 2307TIP3   OH2 6863   3.102   2.726   5.774
 2307TIP3    H1 6864   3.135   2.794   5.832
 2307TIP3    H2 6865   3.027   2.766   5.730
 2308TIP3   OH2 6866   6.836   5.960   0.913
 2308TIP3    H1 6867   6.888   5.884   0.940
 2308TIP3    H2 6868   6.867   5.981   0.825
 2309TIP3   OH2 6869   5.536   7.480   2.769
 2309TIP3    H1 6870   5.567   7.408   2.714
 2309TIP3    H2 6871   5.527   7.554   2.709
 2310TIP3   OH2 6872   8.248   4.718   0.539
 2310TIP3    H1 6873   8.220   4.650   0.600
 2310TIP3    H2 6874   8.171   4.737   0.486
 2311TIP3   OH2 6875   1.020   3.051   0.587
 2311TIP3    H1 6876   0.959   3.025   0.518
 2311TIP3    H2 6877   1.051   3.137   0.561
 2312TIP3   OH2 6878   7.346   4.731   0.198
 2312TIP3    H1 6879   7.252   4.746   0.205
 2312TIP3    H2 6880   7.386   4.805   0.244
 2313TIP3   OH2 6881   6.352   3.273   3.165
 2313TIP3    H1 6882   6.345   3.257   3.071
 2313TIP3    H2 6883   6.439   3.243   3.188
 2314TIP3   OH2 6884   0.481   3.438   3.044
 2314TIP3    H1 6885   0.523   3.360   3.078
 2314TIP3    H2 6886   0.389   3.414   3.034
 2315TIP3   OH2 6887   3.170   0.533   1.099
 2315TIP3    H1 6888   3.151   0.614   1.145
 2315TIP3    H2 6889   3.265   0.535   1.086
 2316TIP3   OH2 6890   7.513   6.704   2.935
 2316TIP3    H1 6891   7.525   6.773   2.870
 2316TIP3    H2 6892   7.557   6.738   3.014
 2317TIP3   OH2 6893   7.444   0.317   6.076
 2317TIP3    H1 6894   7.464   0.265   6.154
 2317TIP3    H2 6895   7.434   0.407   6.110
 2318TIP3   OH2 6896   3.545   2.784   2.236
 2318TIP3    H1 6897   3.599   2.787   2.315
 2318TIP3    H2 6898   3.528   2.876   2.215
 2319TIP3   OH2 6899   7.355   4.769   2.001
 2319TIP3    H1 6900   7.432   4.811   1.961
 2319TIP3    H2 6901   7.370   4.776   2.095
 2320TIP3   OH2 6902   4.517   1.746   0.100
 2320TIP3    H1 6903   4.585   1.814   0.105
 2320TIP3    H2 6904   4.504   1.720   0.191
 2321TIP3   OH2 6905   4.247   2.522   0.092
 2321TIP3    H1 6906   4.267   2.609   0.058
 2321TIP3    H2 6907   4.244   2.532   0.187
 2322TIP3   OH2 6908   0.394   4.090   0.819
 2322TIP3    H1 6909   0.473   4.142   0.804
 2322TIP3    H2 6910   0.335   4.149   0.866
 2323TIP3   OH2 6911   7.502   6.958   1.482
 2323TIP3    H1 6912   7.506   6.917   1.569
 2323TIP3    H2 6913   7.587   7.001   1.472
 2324TIP3   OH2 6914   3.243   5.677   3.028
 2324TIP3    H1 6915   3.323   5.723   3.055
 2324TIP3    H2 6916   3.269   5.585   3.022
 2325TIP3   OH2 6917   3.662   2.304   3.111
 2325TIP3    H1 6918   3.721   2.234   3.083
 2325TIP3    H2 6919   3.597   2.311   3.042
 2326TIP3   OH2 6920   1.849   4.611   2.417
 2326TIP3    H1 6921   1.791   4.570   2.481
 2326TIP3    H2 6922   1.902   4.672   2.468
 2327TIP3   OH2 6923   1.227   7.810   0.090
 2327TIP3    H1 6924   1.169   7.837   0.019
 2327TIP3    H2 6925   1.287   7.747   0.051
 2328TIP3   OH2 6926   1.090   0.967   4.620
 2328TIP3    H1 6927   1.136   1.044   4.586
 2328TIP3    H2 6928   1.160   0.905   4.641
 2329TIP3   OH2 6929   7.201   6.830   1.577
 2329TIP3    H1 6930   7.221   6.819   1.484
 2329TIP3    H2 6931   7.264   6.774   1.622
 2330TIP3   OH2 6932   6.650   4.706   1.634
 2330TIP3    H1 6933   6.605   4.749   1.707
 2330TIP3    H2 6934   6.733   4.751   1.626
 2331TIP3   OH2 6935   6.083   4.019   6.251
 2331TIP3    H1 6936   6.044   4.088   6.197
 2331TIP3    H2 6937   6.074   3.940   6.199
 2332TIP3   OH2 6938   0.906   4.275   0.793
 2332TIP3    H1 6939   0.891   4.315   0.707
 2332TIP3    H2 6940   0.819   4.244   0.820
 2333TIP3   OH2 6941   7.137   1.352   1.586
 2333TIP3    H1 6942   7.123   1.294   1.511
 2333TIP3    H2 6943   7.081   1.316   1.655
 2334TIP3   OH2 6944   5.930   0.069   6.664
 2334TIP3    H1 6945   5.976   0.022   6.594
 2334TIP3    H2 6946   5.848   0.021   6.675
 2335TIP3   OH2 6947   3.488   3.725   2.039
 2335TIP3    H1 6948   3.570   3.714   2.087
 2335TIP3    H2 6949   3.432   3.654   2.072
 2336TIP3   OH2 6950   0.356   5.689   6.095
 2336TIP3    H1 6951   0.314   5.714   6.178
 2336TIP3    H2 6952   0.296   5.626   6.056
 2337TIP3   OH2 6953   3.707   1.809   6.062
 2337TIP3    H1 6954   3.799   1.790   6.047
 2337TIP3    H2 6955   3.706   1.859   6.144
 2338TIP3   OH2 6956   2.740   6.120   6.259
 2338TIP3    H1 6957   2.701   6.047   6.212
 2338TIP3    H2 6958   2.670   6.151   6.317
 2339TIP3   OH2 6959   0.126   7.686   0.430
 2339TIP3    H1 6960   0.215   7.697   0.398
 2339TIP3    H2 6961   0.089   7.617   0.375
 2340TIP3   OH2 6962   3.548   7.715   5.888
 2340TIP3    H1 6963   3.517   7.789   5.940
 2340TIP3    H2 6964   3.549   7.747   5.798
 2341TIP3   OH2 6965   7.173   0.899   1.935
 2341TIP3    H1 6966   7.148   0.889   1.843
 2341TIP3    H2 6967   7.101   0.861   1.984
 2342TIP3   OH2 6968   3.720   2.710   2.544
 2342TIP3    H1 6969   3.733   2.686   2.635
 2342TIP3    H2 6970   3.806   2.699   2.503
 2343TIP3   OH2 6971   2.101   0.987   1.499
 2343TIP3    H1 6972   2.088   0.987   1.404
 2343TIP3    H2 6973   2.127   1.077   1.519
 2344TIP3   OH2 6974   3.736   1.442   1.007
 2344TIP3    H1 6975   3.753   1.504   1.078
 2344TIP3    H2 6976   3.668   1.384   1.041
 2345TIP3   OH2 6977   1.701   2.225   0.702
 2345TIP3    H1 6978   1.734   2.180   0.780
 2345TIP3    H2 6979   1.606   2.214   0.706
 2346TIP3   OH2 6980   1.682   3.457   4.524
 2346TIP3    H1 6981   1.687   3.421   4.613
 2346TIP3    H2 6982   1.771   3.449   4.489
 2347TIP3   OH2 6983   1.926   6.746   2.315
 2347TIP3    H1 6984   2.017   6.723   2.331
 2347TIP3    H2 6985   1.895   6.679   2.255
 2348TIP3   OH2 6986   1.384   3.593   1.068
 2348TIP3    H1 6987   1.297   3.564   1.094
 2348TIP3    H2 6988   1.370   3.674   1.021
 2349TIP3   OH2 6989   2.745   6.671   1.917
 2349TIP3    H1 6990   2.658   6.632   1.928
 2349TIP3    H2 6991   2.800   6.625   1.980
 2350TIP3   OH2 6992   7.948   5.896   4.733
 2350TIP3    H1 6993   7.922   5.820   4.682
 2350TIP3    H2 6994   8.010   5.862   4.797
 2351TIP3   OH2 6995   1.581   7.460   5.130
 2351TIP3    H1 6996   1.623   7.508   5.059
 2351TIP3    H2 6997   1.649   7.448   5.196
 2352TIP3   OH2 6998   8.243   0.252   0.552
 2352TIP3    H1 6999   8.238   0.335   0.505
 2352TIP3    H2 7000   8.269   0.189   0.484
 2353TIP3   OH2 7001   6.861   2.573   3.333
 2353TIP3    H1 7002   6.910   2.637   3.383
 2353TIP3    H2 7003   6.832   2.509   3.397
 2354TIP3   OH2 7004   0.513   4.819   5.625
 2354TIP3    H1 7005   0.433   4.767   5.621
 2354TIP3    H2 7006   0.494   4.897   5.574
 2355TIP3   OH2 7007   5.406   2.644   4.408
 2355TIP3    H1 7008   5.405   2.738   4.427
 2355TIP3    H2 7009   5.382   2.639   4.315
 2356TIP3   OH2 7010   5.930   0.417   5.849
 2356TIP3    H1 7011   5.898   0.502   5.879
 2356TIP3    H2 7012   5.930   0.363   5.928
 2357TIP3   OH2 7013   4.484   5.845   2.666
 2357TIP3    H1 7014   4.422   5.780   2.698
 2357TIP3    H2 7015   4.540   5.865   2.742
 2358TIP3   OH2 7016   3.680   4.893   6.461
 2358TIP3    H1 7017   3.695   4.864   6.372
 2358TIP3    H2 7018   3.633   4.976   6.452
 2359TIP3   OH2 7019   4.463   5.873   2.221
 2359TIP3    H1 7020   4.456   5.963   2.188
 2359TIP3    H2 7021   4.440   5.880   2.313
 2360TIP3   OH2 7022   4.863   0.486   1.426
 2360TIP3    H1 7023   4.802   0.554   1.397
 2360TIP3    H2 7024   4.946   0.510   1.386
 2361TIP3   OH2 7025   3.561   6.192   4.452
 2361TIP3    H1 7026   3.561   6.229   4.364
 2361TIP3    H2 7027   3.636   6.133   4.453
 2362TIP3   OH2 7028   1.287   6.609   5.000
 2362TIP3    H1 7029   1.354   6.677   5.004
 2362TIP3    H2 7030   1.290   6.577   4.910
 2363TIP3   OH2 7031   2.388   4.085   2.355
 2363TIP3    H1 7032   2.350   4.017   2.411
 2363TIP3    H2 7033   2.479   4.059   2.344
 2364TIP3   OH2 7034   3.423   0.157   5.735
 2364TIP3    H1 7035   3.354   0.092   5.725
 2364TIP3    H2 7036   3.412   0.215   5.659
 2365TIP3   OH2 7037   0.076   4.081   2.948
 2365TIP3    H1 7038   0.020   4.080   2.870
 2365TIP3    H2 7039   0.153   4.131   2.922
 2366TIP3   OH2 7040   3.608   0.988   0.923
 2366TIP3    H1 7041   3.651   0.911   0.961
 2366TIP3    H2 7042   3.675   1.056   0.925
 2367TIP3   OH2 7043   0.363   1.019   2.468
 2367TIP3    H1 7044   0.301   0.971   2.524
 2367TIP3    H2 7045   0.340   1.111   2.481
 2368TIP3   OH2 7046   8.195   1.053   3.344
 2368TIP3    H1 7047   8.224   1.143   3.326
 2368TIP3    H2 7048   8.267   1.014   3.392
 2369TIP3   OH2 7049   3.528   5.606   1.455
 2369TIP3    H1 7050   3.547   5.650   1.538
 2369TIP3    H2 7051   3.435   5.584   1.459
 2370TIP3   OH2 7052   6.003   7.620   0.382
 2370TIP3    H1 7053   6.088   7.625   0.424
 2370TIP3    H2 7054   5.940   7.631   0.453
 2371TIP3   OH2 7055   7.555   3.962   3.402
 2371TIP3    H1 7056   7.600   3.982   3.484
 2371TIP3    H2 7057   7.624   3.966   3.335
 2372TIP3   OH2 7058   0.082   2.401   2.207
 2372TIP3    H1 7059   0.036   2.386   2.125
 2372TIP3    H2 7060   0.022   2.453   2.260
 2373TIP3   OH2 7061   6.715   6.050   1.545
 2373TIP3    H1 7062   6.680   6.060   1.457
 2373TIP3    H2 7063   6.800   6.093   1.543
 2374TIP3   OH2 7064   3.522   3.244   1.046
 2374TIP3    H1 7065   3.521   3.212   1.136
 2374TIP3    H2 7066   3.611   3.227   1.015
 2375TIP3   OH2 7067   2.755   3.745   5.474
 2375TIP3    H1 7068   2.823   3.717   5.536
 2375TIP3    H2 7069   2.751   3.840   5.485
 2376TIP3   OH2 7070   2.148   6.433   0.323
 2376TIP3    H1 7071   2.185   6.451   0.236
 2376TIP3    H2 7072   2.141   6.338   0.327
 2377TIP3   OH2 7073   4.528   4.160   2.967
 2377TIP3    H1 7074   4.489   4.154   3.054
 2377TIP3    H2 7075   4.503   4.078   2.924
 2378TIP3   OH2 7076   1.840   7.072   0.717
 2378TIP3    H1 7077   1.811   7.126   0.790
 2378TIP3    H2 7078   1.763   7.021   0.692
 2379TIP3   OH2 7079   2.724   4.390   0.756
 2379TIP3    H1 7080   2.752   4.299   0.744
 2379TIP3    H2 7081   2.629   4.388   0.743
 2380TIP3   OH2 7082   7.204   6.440   0.721
 2380TIP3    H1 7083   7.285   6.488   0.742
 2380TIP3    H2 7084   7.230   6.348   0.722
 2381TIP3   OH2 7085   5.840   5.874   4.935
 2381TIP3    H1 7086   5.844   5.795   4.990
 2381TIP3    H2 7087   5.904   5.933   4.974
 2382TIP3   OH2 7088   1.819   0.911   5.645
 2382TIP3    H1 7089   1.829   0.875   5.556
 2382TIP3    H2 7090   1.774   0.842   5.693
 2383TIP3   OH2 7091   2.483  -0.009   5.861
 2383TIP3    H1 7092   2.449  -0.065   5.792
 2383TIP3    H2 7093   2.498   0.076   5.818
 2384TIP3   OH2 7094   7.505   3.461   4.634
 2384TIP3    H1 7095   7.410   3.457   4.624
 2384TIP3    H2 7096   7.536   3.502   4.554
 2385TIP3   OH2 7097   4.930   4.480   0.211
 2385TIP3    H1 7098   4.886   4.473   0.126
 2385TIP3    H2 7099   4.938   4.389   0.241
 2386TIP3   OH2 7100   7.603   4.521   5.970
 2386TIP3    H1 7101   7.601   4.495   6.062
 2386TIP3    H2 7102   7.607   4.617   5.973
 2387TIP3   OH2 7103   4.652   6.417   1.403
 2387TIP3    H1 7104   4.650   6.322   1.389
 2387TIP3    H2 7105   4.647   6.427   1.498
 2388TIP3   OH2 7106   0.312   5.909   0.630
 2388TIP3    H1 7107   0.327   5.910   0.724
 2388TIP3    H2 7108   0.278   5.822   0.612
 2389TIP3   OH2 7109   1.333   1.126   0.123
 2389TIP3    H1 7110   1.409   1.114   0.066
 2389TIP3    H2 7111   1.334   1.219   0.144
 2390TIP3   OH2 7112   5.698   0.832   1.886
 2390TIP3    H1 7113   5.790   0.853   1.900
 2390TIP3    H2 7114   5.667   0.898   1.824
 2391TIP3   OH2 7115   8.196   7.739   4.508
 2391TIP3    H1 7116   8.140   7.685   4.564
 2391TIP3    H2 7117   8.278   7.748   4.556
 2392TIP3   OH2 7118   2.445   4.173   4.515
 2392TIP3    H1 7119   2.465   4.140   4.428
 2392TIP3    H2 7120   2.459   4.098   4.573
 2393TIP3   OH2 7121   4.360   6.807   0.620
 2393TIP3    H1 7122   4.280   6.821   0.570
 2393TIP3    H2 7123   4.431   6.823   0.558
 2394TIP3   OH2 7124   3.145   7.728   6.149
 2394TIP3    H1 7125   3.065   7.765   6.187
 2394TIP3    H2 7126   3.189   7.685   6.222
 2395TIP3   OH2 7127   4.184   1.653   5.949
 2395TIP3    H1 7128   4.193   1.675   5.856
 2395TIP3    H2 7129   4.273   1.652   5.982
 2396TIP3   OH2 7130   1.083   1.128   3.369
 2396TIP3    H1 7131   1.080   1.125   3.273
 2396TIP3    H2 7132   1.082   1.037   3.396
 2397TIP3   OH2 7133   5.890   1.574   0.274
 2397TIP3    H1 7134   5.825   1.585   0.204
 2397TIP3    H2 7135   5.973   1.596   0.232
 2398TIP3   OH2 7136   7.195   5.921   1.660
 2398TIP3    H1 7137   7.126   5.921   1.593
 2398TIP3    H2 7138   7.254   5.850   1.634
 2399TIP3   OH2 7139   6.261   3.591   0.782
 2399TIP3    H1 7140   6.334   3.531   0.792
 2399TIP3    H2 7141   6.266   3.648   0.859
 2400TIP3   OH2 7142   0.414   0.566   0.829
 2400TIP3    H1 7143   0.474   0.600   0.762
 2400TIP3    H2 7144   0.331   0.555   0.784
 2401TIP3   OH2 7145   2.729   5.524   2.218
 2401TIP3    H1 7146   2.754   5.463   2.148
 2401TIP3    H2 7147   2.644   5.557   2.191
 2402TIP3   OH2 7148   3.016   3.673   2.651
 2402TIP3    H1 7149   3.058   3.589   2.673
 2402TIP3    H2 7150   3.000   3.715   2.736
 2403TIP3   OH2 7151   0.169   2.830   6.342
 2403TIP3    H1 7152   0.121   2.863   6.266
 2403TIP3    H2 7153   0.133   2.879   6.416
 2404TIP3   OH2 7154   1.255   2.082   2.172
 2404TIP3    H1 7155   1.298   2.086   2.258
 2404TIP3    H2 7156   1.308   2.138   2.116
 2405TIP3   OH2 7157   7.998   3.075   4.955
 2405TIP3    H1 7158   7.989   3.167   4.978
 2405TIP3    H2 7159   8.082   3.070   4.909
 2406TIP3   OH2 7160   6.713   6.219   3.010
 2406TIP3    H1 7161   6.675   6.174   2.934
 2406TIP3    H2 7162   6.743   6.303   2.975
 2407TIP3   OH2 7163   2.580   4.183   6.278
 2407TIP3    H1 7164   2.555   4.273   6.300
 2407TIP3    H2 7165   2.632   4.191   6.199
 2408TIP3   OH2 7166   3.106   3.726   0.136
 2408TIP3    H1 7167   3.180   3.676   0.169
 2408TIP3    H2 7168   3.132   3.754   0.049
 2409TIP3   OH2 7169   2.966   7.068   5.162
 2409TIP3    H1 7170   3.026   7.085   5.089
 2409TIP3    H2 7171   3.021   7.071   5.240
 2410TIP3   OH2 7172   1.188   5.835   1.964
 2410TIP3    H1 7173   1.188   5.924   1.998
 2410TIP3    H2 7174   1.266   5.830   1.908
 2411TIP3   OH2 7175   6.408   5.848   4.946
 2411TIP3    H1 7176   6.429   5.834   5.038
 2411TIP3    H2 7177   6.400   5.759   4.909
 2412TIP3   OH2 7178   3.489   6.961   1.003
 2412TIP3    H1 7179   3.507   6.881   1.052
 2412TIP3    H2 7180   3.432   6.933   0.932
 2413TIP3   OH2 7181   5.365   3.564   4.216
 2413TIP3    H1 7182   5.439   3.520   4.257
 2413TIP3    H2 7183   5.370   3.538   4.124
 2414TIP3   OH2 7184   1.628   6.508   3.009
 2414TIP3    H1 7185   1.540   6.538   2.987
 2414TIP3    H2 7186   1.686   6.573   2.970
 2415TIP3   OH2 7187   0.218   4.722   3.779
 2415TIP3    H1 7188   0.154   4.790   3.798
 2415TIP3    H2 7189   0.273   4.718   3.856
 2416TIP3   OH2 7190   4.387   3.512   3.793
 2416TIP3    H1 7191   4.422   3.491   3.880
 2416TIP3    H2 7192   4.444   3.582   3.761
 2417TIP3   OH2 7193   3.288   4.953   4.624
 2417TIP3    H1 7194   3.249   4.985   4.705
 2417TIP3    H2 7195   3.214   4.945   4.563
 2418TIP3   OH2 7196   7.183   4.973   4.349
 2418TIP3    H1 7197   7.181   4.878   4.359
 2418TIP3    H2 7198   7.185   5.006   4.439
 2419TIP3   OH2 7199   8.032   2.878   5.982
 2419TIP3    H1 7200   8.075   2.889   5.897
 2419TIP3    H2 7201   8.101   2.843   6.039
 2420TIP3   OH2 7202   4.280   7.409   5.217
 2420TIP3    H1 7203   4.266   7.363   5.134
 2420TIP3    H2 7204   4.366   7.379   5.247
 2421TIP3   OH2 7205   3.307   3.359   1.802
 2421TIP3    H1 7206   3.349   3.274   1.788
 2421TIP3    H2 7207   3.214   3.339   1.810
 2422TIP3   OH2 7208   4.505   5.265   4.495
 2422TIP3    H1 7209   4.525   5.320   4.419
 2422TIP3    H2 7210   4.556   5.303   4.567
 2423TIP3   OH2 7211   5.012   6.314   3.168
 2423TIP3    H1 7212   5.093   6.356   3.200
 2423TIP3    H2 7213   5.040   6.228   3.137
 2424TIP3   OH2 7214   6.889   1.526   5.794
 2424TIP3    H1 7215   6.822   1.471   5.836
 2424TIP3    H2 7216   6.922   1.473   5.722
 2425TIP3   OH2 7217   2.502   7.565   6.406
 2425TIP3    H1 7218   2.464   7.532   6.325
 2425TIP3    H2 7219   2.427   7.585   6.462
 2426TIP3   OH2 7220   3.094   4.555   5.668
 2426TIP3    H1 7221   3.148   4.633   5.684
 2426TIP3    H2 7222   3.025   4.586   5.609
 2427TIP3   OH2 7223   1.530   7.443   0.977
 2427TIP3    H1 7224   1.605   7.444   0.918
 2427TIP3    H2 7225   1.505   7.351   0.984
 2428TIP3   OH2 7226   3.663   3.367   3.153
 2428TIP3    H1 7227   3.641   3.450   3.112
 2428TIP3    H2 7228   3.731   3.389   3.217
 2429TIP3   OH2 7229   3.903   3.321   2.415
 2429TIP3    H1 7230   3.903   3.352   2.506
 2429TIP3    H2 7231   3.839   3.250   2.413
 2430TIP3   OH2 7232   1.920   2.533   2.892
 2430TIP3    H1 7233   1.868   2.469   2.940
 2430TIP3    H2 7234   1.977   2.572   2.959
 2431TIP3   OH2 7235   1.875   6.161   2.694
 2431TIP3    H1 7236   1.966   6.187   2.682
 2431TIP3    H2 7237   1.829   6.243   2.712
 2432TIP3   OH2 7238   5.744   6.280   4.253
 2432TIP3    H1 7239   5.802   6.321   4.316
 2432TIP3    H2 7240   5.736   6.343   4.182
 2433TIP3   OH2 7241   1.160   6.831   3.468
 2433TIP3    H1 7242   1.111   6.750   3.453
 2433TIP3    H2 7243   1.194   6.855   3.382
 2434TIP3   OH2 7244   3.216   2.875   0.828
 2434TIP3    H1 7245   3.183   2.943   0.769
 2434TIP3    H2 7246   3.311   2.882   0.823
 2435TIP3   OH2 7247   6.666   6.058   1.129
 2435TIP3    H1 7248   6.716   6.035   1.051
 2435TIP3    H2 7249   6.727   6.108   1.184
 2436TIP3   OH2 7250   1.805   7.377   4.378
 2436TIP3    H1 7251   1.828   7.466   4.406
 2436TIP3    H2 7252   1.812   7.380   4.283
 2437TIP3   OH2 7253   8.157   6.741   1.769
 2437TIP3    H1 7254   8.203   6.817   1.805
 2437TIP3    H2 7255   8.174   6.744   1.675
 2438TIP3   OH2 7256   5.400   3.949   6.454
 2438TIP3    H1 7257   5.488   3.953   6.416
 2438TIP3    H2 7258   5.355   3.880   6.403
 2439TIP3   OH2 7259   7.312   5.225   6.355
 2439TIP3    H1 7260   7.281   5.135   6.347
 2439TIP3    H2 7261   7.392   5.218   6.406
 2440TIP3   OH2 7262   7.053   5.424   4.747
 2440TIP3    H1 7263   7.094   5.430   4.834
 2440TIP3    H2 7264   7.127   5.422   4.686
 2441TIP3   OH2 7265   7.087   2.329   3.555
 2441TIP3    H1 7266   7.094   2.424   3.547
 2441TIP3    H2 7267   7.026   2.315   3.628
 2442TIP3   OH2 7268   1.467   1.671   1.650
 2442TIP3    H1 7269   1.549   1.717   1.667
 2442TIP3    H2 7270   1.492   1.582   1.626
 2443TIP3   OH2 7271   5.325   0.104   3.577
 2443TIP3    H1 7272   5.399   0.043   3.576
 2443TIP3    H2 7273   5.342   0.161   3.652
 2444TIP3   OH2 7274   4.095   0.395   1.675
 2444TIP3    H1 7275   4.042   0.395   1.754
 2444TIP3    H2 7276   4.153   0.320   1.684
 2445TIP3   OH2 7277   5.386   2.519   4.897
 2445TIP3    H1 7278   5.428   2.483   4.975
 2445TIP3    H2 7279   5.295   2.533   4.923
 2446TIP3   OH2 7280   1.172   6.359   5.919
 2446TIP3    H1 7281   1.242   6.372   5.855
 2446TIP3    H2 7282   1.216   6.362   6.004
 2447TIP3   OH2 7283   1.011   0.008   2.406
 2447TIP3    H1 7284   1.087   0.064   2.388
 2447TIP3    H2 7285   0.960   0.057   2.471
 2448TIP3   OH2 7286   7.668   5.771   1.169
 2448TIP3    H1 7287   7.733   5.762   1.100
 2448TIP3    H2 7288   7.698   5.712   1.238
 2449TIP3   OH2 7289   5.806   0.663   6.229
 2449TIP3    H1 7290   5.721   0.648   6.189
 2449TIP3    H2 7291   5.800   0.752   6.266
 2450TIP3   OH2 7292   1.313   7.419   6.009
 2450TIP3    H1 7293   1.306   7.324   6.007
 2450TIP3    H2 7294   1.367   7.441   5.933
 2451TIP3   OH2 7295   0.329   3.880   4.215
 2451TIP3    H1 7296   0.306   3.924   4.297
 2451TIP3    H2 7297   0.335   3.788   4.238
 2452TIP3   OH2 7298   7.008   2.368   5.193
 2452TIP3    H1 7299   7.058   2.321   5.127
 2452TIP3    H2 7300   6.975   2.446   5.147
 2453TIP3   OH2 7301   8.271   2.837   2.233
 2453TIP3    H1 7302   8.212   2.863   2.162
 2453TIP3    H2 7303   8.212   2.805   2.302
 2454TIP3   OH2 7304   7.792   4.159   2.696
 2454TIP3    H1 7305   7.815   4.130   2.784
 2454TIP3    H2 7306   7.708   4.117   2.677
 2455TIP3   OH2 7307   0.277   2.887   4.043
 2455TIP3    H1 7308   0.191   2.917   4.016
 2455TIP3    H2 7309   0.337   2.918   3.975
 2456TIP3   OH2 7310   1.842   7.634   3.158
 2456TIP3    H1 7311   1.892   7.716   3.163
 2456TIP3    H2 7312   1.819   7.625   3.066
 2457TIP3   OH2 7313   1.141   6.827   4.698
 2457TIP3    H1 7314   1.126   6.750   4.643
 2457TIP3    H2 7315   1.069   6.826   4.761
 2458TIP3   OH2 7316   4.591   1.015   2.726
 2458TIP3    H1 7317   4.621   1.083   2.666
 2458TIP3    H2 7318   4.650   0.941   2.711
 2459TIP3   OH2 7319   0.669   5.348   5.916
 2459TIP3    H1 7320   0.763   5.355   5.900
 2459TIP3    H2 7321   0.644   5.264   5.877
 2460TIP3   OH2 7322   1.602   6.924   0.977
 2460TIP3    H1 7323   1.558   6.848   0.941
 2460TIP3    H2 7324   1.606   6.907   1.071
 2461TIP3   OH2 7325   1.178   3.909   1.398
 2461TIP3    H1 7326   1.166   3.840   1.465
 2461TIP3    H2 7327   1.181   3.861   1.315
 2462TIP3   OH2 7328   5.920   7.336   1.971
 2462TIP3    H1 7329   5.988   7.327   1.905
 2462TIP3    H2 7330   5.912   7.430   1.987
 2463TIP3   OH2 7331   7.707   1.888   1.123
 2463TIP3    H1 7332   7.682   1.906   1.032
 2463TIP3    H2 7333   7.625   1.895   1.172
 2464TIP3   OH2 7334   0.951   5.661   5.990
 2464TIP3    H1 7335   0.882   5.606   5.954
 2464TIP3    H2 7336   0.906   5.741   6.017
 2465TIP3   OH2 7337   7.985   7.753   3.194
 2465TIP3    H1 7338   7.904   7.711   3.223
 2465TIP3    H2 7339   8.018   7.798   3.272
 2466TIP3   OH2 7340   0.580   3.709   0.674
 2466TIP3    H1 7341   0.501   3.710   0.620
 2466TIP3    H2 7342   0.551   3.740   0.760
 2467TIP3   OH2 7343   3.099   3.476   4.050
 2467TIP3    H1 7344   3.118   3.386   4.076
 2467TIP3    H2 7345   3.138   3.485   3.963
 2468TIP3   OH2 7346   6.316   4.866   5.189
 2468TIP3    H1 7347   6.407   4.880   5.216
 2468TIP3    H2 7348   6.280   4.954   5.181
 2469TIP3   OH2 7349   6.512   1.974   4.906
 2469TIP3    H1 7350   6.450   1.976   4.833
 2469TIP3    H2 7351   6.554   1.888   4.899
 2470TIP3   OH2 7352   4.625   5.820   0.216
 2470TIP3    H1 7353   4.706   5.853   0.253
 2470TIP3    H2 7354   4.638   5.725   0.211
 2471TIP3   OH2 7355   4.056   3.790   0.706
 2471TIP3    H1 7356   4.086   3.811   0.794
 2471TIP3    H2 7357   4.114   3.841   0.648
 2472TIP3   OH2 7358   2.643   3.151   3.405
 2472TIP3    H1 7359   2.618   3.181   3.318
 2472TIP3    H2 7360   2.662   3.058   3.394
 2473TIP3   OH2 7361   4.362   5.702   6.480
 2473TIP3    H1 7362   4.361   5.625   6.537
 2473TIP3    H2 7363   4.454   5.712   6.456
 2474TIP3   OH2 7364   4.588   4.815   1.204
 2474TIP3    H1 7365   4.551   4.727   1.194
 2474TIP3    H2 7366   4.562   4.842   1.292
 2475TIP3   OH2 7367   7.532   5.649   5.751
 2475TIP3    H1 7368   7.459   5.676   5.807
 2475TIP3    H2 7369   7.587   5.596   5.809
 2476TIP3   OH2 7370   2.157   1.626   5.897
 2476TIP3    H1 7371   2.142   1.714   5.931
 2476TIP3    H2 7372   2.216   1.586   5.960
 2477TIP3   OH2 7373   5.862   0.923   5.091
 2477TIP3    H1 7374   5.809   0.998   5.066
 2477TIP3    H2 7375   5.903   0.895   5.009
 2478TIP3   OH2 7376   2.506   3.932   0.100
 2478TIP3    H1 7377   2.533   3.842   0.117
 2478TIP3    H2 7378   2.569   3.964   0.035
 2479TIP3   OH2 7379   7.860   3.238   3.667
 2479TIP3    H1 7380   7.918   3.266   3.596
 2479TIP3    H2 7381   7.877   3.144   3.676
 2480TIP3   OH2 7382   4.034   3.265   0.891
 2480TIP3    H1 7383   4.021   3.200   0.823
 2480TIP3    H2 7384   4.058   3.345   0.845
 2481TIP3   OH2 7385   7.472   1.590   1.355
 2481TIP3    H1 7386   7.388   1.581   1.400
 2481TIP3    H2 7387   7.449   1.608   1.264
 2482TIP3   OH2 7388   5.315   4.623   1.031
 2482TIP3    H1 7389   5.280   4.711   1.015
 2482TIP3    H2 7390   5.250   4.565   0.992
 2483TIP3   OH2 7391   3.223   1.743   1.587
 2483TIP3    H1 7392   3.271   1.782   1.661
 2483TIP3    H2 7393   3.174   1.671   1.625
 2484TIP3   OH2 7394   0.115   7.342   5.021
 2484TIP3    H1 7395   0.185   7.279   5.038
 2484TIP3    H2 7396   0.152   7.427   5.044
 2485TIP3   OH2 7397   2.961   5.859   4.649
 2485TIP3    H1 7398   2.951   5.894   4.738
 2485TIP3    H2 7399   2.879   5.811   4.634
 2486TIP3   OH2 7400   0.742   4.107   3.264
 2486TIP3    H1 7401   0.697   4.033   3.223
 2486TIP3    H2 7402   0.740   4.087   3.358
 2487TIP3   OH2 7403   0.868   4.973   3.299
 2487TIP3    H1 7404   0.808   5.020   3.357
 2487TIP3    H2 7405   0.951   5.019   3.308
 2488TIP3   OH2 7406   0.568   7.203   1.581
 2488TIP3    H1 7407   0.621   7.147   1.638
 2488TIP3    H2 7408   0.618   7.208   1.499
 2489TIP3   OH2 7409   3.514   4.731   4.004
 2489TIP3    H1 7410   3.529   4.812   4.052
 2489TIP3    H2 7411   3.583   4.728   3.938
 2490TIP3   OH2 7412   2.481   7.492   3.967
 2490TIP3    H1 7413   2.521   7.533   4.044
 2490TIP3    H2 7414   2.392   7.526   3.966
 2491TIP3   OH2 7415   1.434   4.350   4.289
 2491TIP3    H1 7416   1.507   4.295   4.318
 2491TIP3    H2 7417   1.476   4.433   4.263
 2492TIP3   OH2 7418   0.895   0.318   1.720
 2492TIP3    H1 7419   0.845   0.309   1.801
 2492TIP3    H2 7420   0.859   0.250   1.663
 2493TIP3   OH2 7421   4.131   2.409   3.568
 2493TIP3    H1 7422   4.068   2.478   3.590
 2493TIP3    H2 7423   4.190   2.406   3.643
 2494TIP3   OH2 7424   4.262   1.716   6.682
 2494TIP3    H1 7425   4.176   1.734   6.719
 2494TIP3    H2 7426   4.244   1.667   6.602
 2495TIP3   OH2 7427   5.132   4.167   0.617
 2495TIP3    H1 7428   5.211   4.201   0.659
 2495TIP3    H2 7429   5.065   4.171   0.685
 2496TIP3   OH2 7430   2.306   5.278   0.518
 2496TIP3    H1 7431   2.328   5.318   0.434
 2496TIP3    H2 7432   2.304   5.184   0.501
 2497TIP3   OH2 7433   1.396   4.629   3.345
 2497TIP3    H1 7434   1.328   4.602   3.284
 2497TIP3    H2 7435   1.349   4.659   3.422
 2498TIP3   OH2 7436   0.419   7.396   4.262
 2498TIP3    H1 7437   0.326   7.403   4.241
 2498TIP3    H2 7438   0.454   7.337   4.195
 2499TIP3   OH2 7439   4.524   3.087   5.551
 2499TIP3    H1 7440   4.584   3.078   5.477
 2499TIP3    H2 7441   4.510   3.182   5.559
 2500TIP3   OH2 7442   5.441   6.429   3.528
 2500TIP3    H1 7443   5.481   6.494   3.470
 2500TIP3    H2 7444   5.483   6.445   3.613
 2501TIP3   OH2 7445   2.819   2.203   0.836
 2501TIP3    H1 7446   2.881   2.138   0.803
 2501TIP3    H2 7447   2.863   2.243   0.911
 2502TIP3   OH2 7448   0.967   2.824   2.386
 2502TIP3    H1 7449   1.023   2.783   2.452
 2502TIP3    H2 7450   0.919   2.751   2.346
 2503TIP3   OH2 7451   5.614   3.906   5.468
 2503TIP3    H1 7452   5.665   3.953   5.401
 2503TIP3    H2 7453   5.553   3.852   5.418
 2504TIP3   OH2 7454   0.253   2.421   6.133
 2504TIP3    H1 7455   0.294   2.399   6.050
 2504TIP3    H2 7456   0.232   2.336   6.173
 2505TIP3   OH2 7457   4.662   1.053   1.603
 2505TIP3    H1 7458   4.691   1.143   1.621
 2505TIP3    H2 7459   4.584   1.064   1.549
 2506TIP3   OH2 7460   1.502   4.297   3.222
 2506TIP3    H1 7461   1.527   4.318   3.312
 2506TIP3    H2 7462   1.573   4.241   3.189
 2507TIP3   OH2 7463   0.930   5.234   3.027
 2507TIP3    H1 7464   1.014   5.208   2.990
 2507TIP3    H2 7465   0.886   5.152   3.047
 2508TIP3   OH2 7466   2.893   5.506   6.524
 2508TIP3    H1 7467   2.818   5.469   6.571
 2508TIP3    H2 7468   2.960   5.519   6.592
 2509TIP3   OH2 7469   4.202   1.726   2.272
 2509TIP3    H1 7470   4.167   1.638   2.260
 2509TIP3    H2 7471   4.164   1.778   2.201
 2510TIP3   OH2 7472   1.953   1.816   3.219
 2510TIP3    H1 7473   1.962   1.880   3.149
 2510TIP3    H2 7474   1.864   1.783   3.212
 2511TIP3   OH2 7475   2.216   2.545   3.793
 2511TIP3    H1 7476   2.215   2.592   3.876
 2511TIP3    H2 7477   2.270   2.599   3.736
 2512TIP3   OH2 7478   6.667   5.877   1.935
 2512TIP3    H1 7479   6.660   5.966   1.969
 2512TIP3    H2 7480   6.630   5.883   1.847
 2513TIP3   OH2 7481   7.986   5.205   3.328
 2513TIP3    H1 7482   8.005   5.264   3.401
 2513TIP3    H2 7483   7.896   5.226   3.304
 2514TIP3   OH2 7484   5.062   7.795   4.582
 2514TIP3    H1 7485   5.008   7.770   4.657
 2514TIP3    H2 7486   5.131   7.851   4.619
 2515TIP3   OH2 7487   2.207   1.828   4.555
 2515TIP3    H1 7488   2.127   1.782   4.580
 2515TIP3    H2 7489   2.179   1.919   4.541
 2516TIP3   OH2 7490   3.688   3.102   2.891
 2516TIP3    H1 7491   3.722   3.037   2.953
 2516TIP3    H2 7492   3.735   3.083   2.809
 2517TIP3   OH2 7493   0.469   5.331   3.775
 2517TIP3    H1 7494   0.458   5.324   3.681
 2517TIP3    H2 7495   0.479   5.425   3.791
 2518TIP3   OH2 7496   6.554   2.185   6.537
 2518TIP3    H1 7497   6.565   2.259   6.596
 2518TIP3    H2 7498   6.638   2.139   6.539
 2519TIP3   OH2 7499   5.043   1.309   5.887
 2519TIP3    H1 7500   5.123   1.362   5.880
 2519TIP3    H2 7501   5.024   1.306   5.980
 2520TIP3   OH2 7502   4.418   4.154   2.152
 2520TIP3    H1 7503   4.337   4.203   2.170
 2520TIP3    H2 7504   4.480   4.220   2.122
 2521TIP3   OH2 7505   0.952   5.952   2.694
 2521TIP3    H1 7506   0.941   5.956   2.789
 2521TIP3    H2 7507   0.880   6.004   2.659
 2522TIP3   OH2 7508   1.802   7.567   2.395
 2522TIP3    H1 7509   1.890   7.583   2.359
 2522TIP3    H2 7510   1.779   7.480   2.361
 2523TIP3   OH2 7511   5.566   7.680   2.080
 2523TIP3    H1 7512   5.629   7.676   2.152
 2523TIP3    H2 7513   5.594   7.610   2.021
 2524TIP3   OH2 7514   0.565   0.566   0.321
 2524TIP3    H1 7515   0.531   0.574   0.232
 2524TIP3    H2 7516   0.653   0.531   0.309
 2525TIP3   OH2 7517   0.859   3.102   5.907
 2525TIP3    H1 7518   0.944   3.076   5.872
 2525TIP3    H2 7519   0.859   3.070   5.997
 2526TIP3   OH2 7520   7.094   6.976   1.958
 2526TIP3    H1 7521   7.140   6.892   1.965
 2526TIP3    H2 7522   7.050   6.986   2.043
 2527TIP3   OH2 7523   3.636   2.054   5.942
 2527TIP3    H1 7524   3.593   2.007   6.013
 2527TIP3    H2 7525   3.565   2.073   5.880
 2528TIP3   OH2 7526   1.750   5.444   5.145
 2528TIP3    H1 7527   1.797   5.442   5.228
 2528TIP3    H2 7528   1.689   5.517   5.154
 2529TIP3   OH2 7529   4.580   4.663   1.831
 2529TIP3    H1 7530   4.537   4.710   1.902
 2529TIP3    H2 7531   4.509   4.619   1.785
 2530TIP3   OH2 7532   1.057   4.522   0.502
 2530TIP3    H1 7533   1.048   4.485   0.414
 2530TIP3    H2 7534   1.006   4.603   0.499
 2531TIP3   OH2 7535   4.023   1.598   0.573
 2531TIP3    H1 7536   4.064   1.671   0.526
 2531TIP3    H2 7537   4.010   1.631   0.662
 2532TIP3   OH2 7538   3.485   4.562   3.711
 2532TIP3    H1 7539   3.430   4.513   3.772
 2532TIP3    H2 7540   3.558   4.594   3.764
 2533TIP3   OH2 7541   0.497   4.901   1.235
 2533TIP3    H1 7542   0.559   4.940   1.174
 2533TIP3    H2 7543   0.522   4.935   1.321
 2534TIP3   OH2 7544   0.072   3.227   0.739
 2534TIP3    H1 7545   0.161   3.196   0.725
 2534TIP3    H2 7546   0.031   3.221   0.652
 2535TIP3   OH2 7547   6.356   6.261   1.330
 2535TIP3    H1 7548   6.319   6.173   1.329
 2535TIP3    H2 7549   6.280   6.319   1.342
 2536TIP3   OH2 7550   7.280   2.979   1.137
 2536TIP3    H1 7551   7.260   2.886   1.147
 2536TIP3    H2 7552   7.336   2.999   1.212
 2537TIP3   OH2 7553   4.230   0.206   6.546
 2537TIP3    H1 7554   4.161   0.217   6.481
 2537TIP3    H2 7555   4.265   0.294   6.559
 2538TIP3   OH2 7556   1.457   7.499   6.230
 2538TIP3    H1 7557   1.406   7.506   6.150
 2538TIP3    H2 7558   1.476   7.406   6.239
 2539TIP3   OH2 7559   0.434   1.098   1.249
 2539TIP3    H1 7560   0.430   1.062   1.337
 2539TIP3    H2 7561   0.524   1.081   1.220
 2540TIP3   OH2 7562   1.254   3.841   3.731
 2540TIP3    H1 7563   1.272   3.750   3.709
 2540TIP3    H2 7564   1.172   3.839   3.780
 2541TIP3   OH2 7565   1.781   5.425   4.391
 2541TIP3    H1 7566   1.704   5.411   4.335
 2541TIP3    H2 7567   1.845   5.468   4.333
 2542TIP3   OH2 7568   0.469   1.840   0.581
 2542TIP3    H1 7569   0.519   1.843   0.500
 2542TIP3    H2 7570   0.387   1.797   0.558
 2543TIP3   OH2 7571   6.301   0.759   5.818
 2543TIP3    H1 7572   6.391   0.790   5.829
 2543TIP3    H2 7573   6.270   0.743   5.907
 2544TIP3   OH2 7574   2.782   1.458   2.945
 2544TIP3    H1 7575   2.754   1.482   3.033
 2544TIP3    H2 7576   2.874   1.431   2.955
 2545TIP3   OH2 7577   3.468   2.110   2.959
 2545TIP3    H1 7578   3.556   2.106   2.921
 2545TIP3    H2 7579   3.427   2.029   2.931
 2546TIP3   OH2 7580   7.889   1.490   5.828
 2546TIP3    H1 7581   7.958   1.482   5.893
 2546TIP3    H2 7582   7.916   1.432   5.757
 2547TIP3   OH2 7583   6.657   4.641   2.372
 2547TIP3    H1 7584   6.747   4.620   2.348
 2547TIP3    H2 7585   6.661   4.662   2.466
 2548TIP3   OH2 7586   1.161   4.376   4.228
 2548TIP3    H1 7587   1.249   4.373   4.265
 2548TIP3    H2 7588   1.162   4.310   4.159
 2549TIP3   OH2 7589   3.694   4.772   0.281
 2549TIP3    H1 7590   3.623   4.710   0.269
 2549TIP3    H2 7591   3.768   4.734   0.232
 2550TIP3   OH2 7592   3.987   3.103   5.557
 2550TIP3    H1 7593   3.991   3.186   5.603
 2550TIP3    H2 7594   3.906   3.061   5.587
 2551TIP3   OH2 7595   7.262   5.373   5.368
 2551TIP3    H1 7596   7.280   5.353   5.276
 2551TIP3    H2 7597   7.337   5.427   5.396
 2552TIP3   OH2 7598   5.330   7.051   1.441
 2552TIP3    H1 7599   5.331   7.145   1.462
 2552TIP3    H2 7600   5.400   7.014   1.494
 2553TIP3   OH2 7601   6.346   5.597   4.869
 2553TIP3    H1 7602   6.363   5.503   4.861
 2553TIP3    H2 7603   6.258   5.603   4.905
 2554TIP3   OH2 7604   0.989   4.691   5.815
 2554TIP3    H1 7605   0.926   4.683   5.886
 2554TIP3    H2 7606   0.935   4.712   5.738
 2555TIP3   OH2 7607   6.559   0.769   5.514
 2555TIP3    H1 7608   6.480   0.789   5.465
 2555TIP3    H2 7609   6.578   0.848   5.564
 2556TIP3   OH2 7610   3.178   7.264   3.979
 2556TIP3    H1 7611   3.094   7.221   3.990
 2556TIP3    H2 7612   3.159   7.357   3.990
 2557TIP3   OH2 7613   5.518   5.846   4.653
 2557TIP3    H1 7614   5.438   5.875   4.610
 2557TIP3    H2 7615   5.538   5.762   4.611
 2558TIP3   OH2 7616   2.880   3.427   0.229
 2558TIP3    H1 7617   2.839   3.354   0.184
 2558TIP3    H2 7618   2.946   3.387   0.286
 2559TIP3   OH2 7619   1.836   2.901   2.113
 2559TIP3    H1 7620   1.823   2.924   2.021
 2559TIP3    H2 7621   1.809   2.809   2.119
 2560TIP3   OH2 7622   5.772   3.503   2.589
 2560TIP3    H1 7623   5.817   3.477   2.509
 2560TIP3    H2 7624   5.808   3.447   2.657
 2561TIP3   OH2 7625   7.339   5.427   3.264
 2561TIP3    H1 7626   7.405   5.412   3.332
 2561TIP3    H2 7627   7.357   5.359   3.199
 2562TIP3   OH2 7628   2.558   7.121   0.915
 2562TIP3    H1 7629   2.547   7.105   0.821
 2562TIP3    H2 7630   2.508   7.201   0.932
 2563TIP3   OH2 7631   2.461   1.867   5.325
 2563TIP3    H1 7632   2.532   1.928   5.306
 2563TIP3    H2 7633   2.461   1.806   5.252
 2564TIP3   OH2 7634   6.245   3.975   1.931
 2564TIP3    H1 7635   6.272   4.038   1.999
 2564TIP3    H2 7636   6.150   3.981   1.929
 2565TIP3   OH2 7637   5.936   6.711   3.199
 2565TIP3    H1 7638   5.965   6.801   3.184
 2565TIP3    H2 7639   5.851   6.706   3.155
 2566TIP3   OH2 7640   7.848   2.037   3.404
 2566TIP3    H1 7641   7.780   2.087   3.450
 2566TIP3    H2 7642   7.820   1.946   3.409
 2567TIP3   OH2 7643   3.542   0.955   2.567
 2567TIP3    H1 7644   3.570   0.954   2.658
 2567TIP3    H2 7645   3.480   0.882   2.560
 2568TIP3   OH2 7646   7.983   1.159   4.461
 2568TIP3    H1 7647   8.017   1.240   4.423
 2568TIP3    H2 7648   8.046   1.092   4.434
 2569TIP3   OH2 7649   5.869   2.412   0.683
 2569TIP3    H1 7650   5.922   2.439   0.608
 2569TIP3    H2 7651   5.803   2.481   0.691
 2570TIP3   OH2 7652   8.024   3.309   3.457
 2570TIP3    H1 7653   8.030   3.316   3.361
 2570TIP3    H2 7654   8.074   3.229   3.477
 2571TIP3   OH2 7655   6.957   1.133   4.733
 2571TIP3    H1 7656   6.928   1.158   4.645
 2571TIP3    H2 7657   6.900   1.182   4.792
 2572TIP3   OH2 7658   4.391   4.694   6.282
 2572TIP3    H1 7659   4.299   4.701   6.259
 2572TIP3    H2 7660   4.395   4.619   6.342
 2573TIP3   OH2 7661   3.508   5.143   0.365
 2573TIP3    H1 7662   3.522   5.191   0.283
 2573TIP3    H2 7663   3.413   5.145   0.377
 2574TIP3   OH2 7664   4.211   1.519   6.496
 2574TIP3    H1 7665   4.243   1.436   6.532
 2574TIP3    H2 7666   4.117   1.518   6.514
 2575TIP3   OH2 7667   3.118   2.280   1.290
 2575TIP3    H1 7668   3.191   2.324   1.246
 2575TIP3    H2 7669   3.100   2.334   1.367
 2576TIP3   OH2 7670   4.600   5.133   4.973
 2576TIP3    H1 7671   4.653   5.101   5.046
 2576TIP3    H2 7672   4.664   5.166   4.910
 2577TIP3   OH2 7673   4.740   5.835   4.723
 2577TIP3    H1 7674   4.711   5.764   4.781
 2577TIP3    H2 7675   4.675   5.838   4.654
 2578TIP3   OH2 7676   4.768   0.856   4.942
 2578TIP3    H1 7677   4.684   0.904   4.945
 2578TIP3    H2 7678   4.761   0.792   5.013
 2579TIP3   OH2 7679   1.331   3.006   3.435
 2579TIP3    H1 7680   1.335   2.966   3.348
 2579TIP3    H2 7681   1.352   3.098   3.420
 2580TIP3   OH2 7682   4.466   1.394   3.364
 2580TIP3    H1 7683   4.548   1.347   3.379
 2580TIP3    H2 7684   4.478   1.477   3.410
 2581TIP3   OH2 7685   2.746   0.429   2.683
 2581TIP3    H1 7686   2.696   0.413   2.603
 2581TIP3    H2 7687   2.725   0.356   2.740
 2582TIP3   OH2 7688   7.272   3.463   0.808
 2582TIP3    H1 7689   7.304   3.521   0.876
 2582TIP3    H2 7690   7.208   3.515   0.759
 2583TIP3   OH2 7691   2.124   6.403   1.617
 2583TIP3    H1 7692   2.214   6.410   1.648
 2583TIP3    H2 7693   2.121   6.461   1.540
 2584TIP3   OH2 7694   2.033   1.011   3.206
 2584TIP3    H1 7695   2.101   0.966   3.256
 2584TIP3    H2 7696   1.985   0.941   3.162
 2585TIP3   OH2 7697   8.128   5.481   2.518
 2585TIP3    H1 7698   8.129   5.557   2.461
 2585TIP3    H2 7699   8.054   5.428   2.488
 2586TIP3   OH2 7700   5.987   2.171   1.859
 2586TIP3    H1 7701   5.991   2.115   1.781
 2586TIP3    H2 7702   5.895   2.170   1.884
 2587TIP3   OH2 7703   1.489   3.254   2.491
 2587TIP3    H1 7704   1.526   3.208   2.416
 2587TIP3    H2 7705   1.511   3.200   2.567
 2588TIP3   OH2 7706   0.954   5.836   4.722
 2588TIP3    H1 7707   0.862   5.861   4.732
 2588TIP3    H2 7708   0.967   5.828   4.628
 2589TIP3   OH2 7709   1.694   2.045   2.204
 2589TIP3    H1 7710   1.617   2.004   2.243
 2589TIP3    H2 7711   1.733   1.976   2.150
 2590TIP3   OH2 7712   7.497   4.915   6.628
 2590TIP3    H1 7713   7.412   4.881   6.656
 2590TIP3    H2 7714   7.561   4.856   6.666
 2591TIP3   OH2 7715   3.674   2.918   5.161
 2591TIP3    H1 7716   3.638   3.004   5.183
 2591TIP3    H2 7717   3.769   2.928   5.170
 2592TIP3   OH2 7718   5.985   3.678   2.390
 2592TIP3    H1 7719   5.926   3.605   2.372
 2592TIP3    H2 7720   6.061   3.637   2.433
 2593TIP3   OH2 7721   1.444   7.058   2.615
 2593TIP3    H1 7722   1.415   7.092   2.531
 2593TIP3    H2 7723   1.537   7.040   2.603
 2594TIP3   OH2 7724   0.129   4.702   2.926
 2594TIP3    H1 7725   0.061   4.738   2.983
 2594TIP3    H2 7726   0.103   4.730   2.838
 2595TIP3   OH2 7727   1.241   6.005   3.014
 2595TIP3    H1 7728   1.181   5.980   3.085
 2595TIP3    H2 7729   1.281   5.923   2.986
 2596TIP3   OH2 7730   1.530   6.683   5.271
 2596TIP3    H1 7731   1.542   6.733   5.352
 2596TIP3    H2 7732   1.548   6.592   5.297
 2597TIP3   OH2 7733   4.600   3.182   3.313
 2597TIP3    H1 7734   4.654   3.162   3.236
 2597TIP3    H2 7735   4.608   3.104   3.369
 2598TIP3   OH2 7736   1.302   3.235   6.399
 2598TIP3    H1 7737   1.246   3.160   6.380
 2598TIP3    H2 7738   1.255   3.310   6.363
 2599TIP3   OH2 7739   2.099   1.718   5.234
 2599TIP3    H1 7740   2.145   1.784   5.286
 2599TIP3    H2 7741   2.166   1.651   5.216
 2600TIP3   OH2 7742   6.208   2.177   2.164
 2600TIP3    H1 7743   6.128   2.129   2.144
 2600TIP3    H2 7744   6.184   2.233   2.239
 2601TIP3   OH2 7745   3.790   5.455   0.372
 2601TIP3    H1 7746   3.867   5.441   0.318
 2601TIP3    H2 7747   3.819   5.437   0.462
 2602TIP3   OH2 7748   6.679   2.147   1.803
 2602TIP3    H1 7749   6.651   2.063   1.766
 2602TIP3    H2 7750   6.670   2.209   1.730
 2603TIP3   OH2 7751   8.242   2.335   4.182
 2603TIP3    H1 7752   8.148   2.315   4.178
 2603TIP3    H2 7753   8.266   2.355   4.091
 2604TIP3   OH2 7754   8.096   5.242   0.077
 2604TIP3    H1 7755   8.107   5.308   0.008
 2604TIP3    H2 7756   8.125   5.161   0.037
 2605TIP3   OH2 7757   1.206   5.308   3.343
 2605TIP3    H1 7758   1.241   5.384   3.297
 2605TIP3    H2 7759   1.212   5.332   3.436
 2606TIP3   OH2 7760   4.639   4.156   5.344
 2606TIP3    H1 7761   4.640   4.111   5.428
 2606TIP3    H2 7762   4.550   4.146   5.312
 2607TIP3   OH2 7763   8.086   5.221   0.864
 2607TIP3    H1 7764   8.061   5.313   0.851
 2607TIP3    H2 7765   8.008   5.180   0.901
 2608TIP3   OH2 7766   3.308   4.402   3.525
 2608TIP3    H1 7767   3.254   4.469   3.484
 2608TIP3    H2 7768   3.380   4.450   3.566
 2609TIP3   OH2 7769   6.031   0.692   1.351
 2609TIP3    H1 7770   6.117   0.649   1.348
 2609TIP3    H2 7771   6.043   0.772   1.300
 2610TIP3   OH2 7772   4.629   5.478   1.757
 2610TIP3    H1 7773   4.699   5.535   1.789
 2610TIP3    H2 7774   4.631   5.488   1.661
 2611TIP3   OH2 7775   3.651   5.449   1.702
 2611TIP3    H1 7776   3.595   5.437   1.626
 2611TIP3    H2 7777   3.659   5.362   1.740
 2612TIP3   OH2 7778   6.030   3.887   5.027
 2612TIP3    H1 7779   6.015   3.955   5.092
 2612TIP3    H2 7780   6.124   3.889   5.011
 2613TIP3   OH2 7781   0.503   5.523   3.026
 2613TIP3    H1 7782   0.440   5.567   2.969
 2613TIP3    H2 7783   0.581   5.512   2.971
 2614TIP3   OH2 7784   0.858   1.278   2.458
 2614TIP3    H1 7785   0.929   1.225   2.494
 2614TIP3    H2 7786   0.788   1.272   2.523
 2615TIP3   OH2 7787   0.295   0.045   1.978
 2615TIP3    H1 7788   0.220   0.103   1.989
 2615TIP3    H2 7789   0.284   0.008   1.891
 2616TIP3   OH2 7790   7.652   1.884   3.560
 2616TIP3    H1 7791   7.577   1.927   3.519
 2616TIP3    H2 7792   7.635   1.791   3.549
 2617TIP3   OH2 7793   0.543   7.284   1.276
 2617TIP3    H1 7794   0.566   7.201   1.233
 2617TIP3    H2 7795   0.458   7.267   1.316
 2618TIP3   OH2 7796   8.293   3.035   5.321
 2618TIP3    H1 7797   8.337   2.980   5.386
 2618TIP3    H2 7798   8.201   3.011   5.327
 2619TIP3   OH2 7799   5.417   7.225   0.844
 2619TIP3    H1 7800   5.413   7.206   0.938
 2619TIP3    H2 7801   5.493   7.175   0.813
 2620TIP3   OH2 7802   0.309   3.639   5.016
 2620TIP3    H1 7803   0.377   3.577   5.043
 2620TIP3    H2 7804   0.296   3.696   5.091
 2621TIP3   OH2 7805   5.155   1.665   2.855
 2621TIP3    H1 7806   5.229   1.648   2.912
 2621TIP3    H2 7807   5.139   1.759   2.862
 2622TIP3   OH2 7808   5.469   4.650   4.667
 2622TIP3    H1 7809   5.395   4.630   4.611
 2622TIP3    H2 7810   5.453   4.740   4.697
 2623TIP3   OH2 7811   1.891   7.755   1.108
 2623TIP3    H1 7812   1.811   7.800   1.082
 2623TIP3    H2 7813   1.874   7.663   1.090
 2624TIP3   OH2 7814   5.476   4.771   1.434
 2624TIP3    H1 7815   5.515   4.737   1.354
 2624TIP3    H2 7816   5.550   4.781   1.495
 2625TIP3   OH2 7817   1.794   4.133   2.742
 2625TIP3    H1 7818   1.785   4.038   2.735
 2625TIP3    H2 7819   1.845   4.158   2.666
 2626TIP3   OH2 7820   1.823   5.154   0.137
 2626TIP3    H1 7821   1.818   5.250   0.142
 2626TIP3    H2 7822   1.734   5.127   0.117
 2627TIP3   OH2 7823   5.850   4.039   1.166
 2627TIP3    H1 7824   5.813   4.013   1.250
 2627TIP3    H2 7825   5.786   4.100   1.130
 2628TIP3   OH2 7826   1.428   0.727   3.494
 2628TIP3    H1 7827   1.413   0.757   3.405
 2628TIP3    H2 7828   1.512   0.767   3.520
 2629TIP3   OH2 7829   3.500   6.167   1.661
 2629TIP3    H1 7830   3.569   6.205   1.607
 2629TIP3    H2 7831   3.419   6.182   1.612
 2630TIP3   OH2 7832   4.319   7.691   3.653
 2630TIP3    H1 7833   4.353   7.677   3.742
 2630TIP3    H2 7834   4.277   7.608   3.631
 2631TIP3   OH2 7835   3.458   5.818   2.583
 2631TIP3    H1 7836   3.371   5.816   2.624
 2631TIP3    H2 7837   3.465   5.735   2.536
 2632TIP3   OH2 7838   4.282   6.197   5.713
 2632TIP3    H1 7839   4.277   6.197   5.808
 2632TIP3    H2 7840   4.373   6.218   5.693
 2633TIP3   OH2 7841   5.749   3.695   6.376
 2633TIP3    H1 7842   5.764   3.693   6.281
 2633TIP3    H2 7843   5.706   3.779   6.392
 2634TIP3   OH2 7844   1.538   5.239   1.872
 2634TIP3    H1 7845   1.573   5.150   1.885
 2634TIP3    H2 7846   1.443   5.227   1.867
 2635TIP3   OH2 7847   8.258   4.465   4.800
 2635TIP3    H1 7848   8.330   4.503   4.849
 2635TIP3    H2 7849   8.184   4.524   4.817
 2636TIP3   OH2 7850   4.185   5.335   5.571
 2636TIP3    H1 7851   4.212   5.266   5.510
 2636TIP3    H2 7852   4.221   5.416   5.534
 2637TIP3   OH2 7853   5.333   5.761   1.499
 2637TIP3    H1 7854   5.363   5.850   1.481
 2637TIP3    H2 7855   5.328   5.757   1.595
 2638TIP3   OH2 7856   4.371   1.529   1.508
 2638TIP3    H1 7857   4.366   1.439   1.539
 2638TIP3    H2 7858   4.286   1.567   1.530
 2639TIP3   OH2 7859   4.632   1.197   3.741
 2639TIP3    H1 7860   4.542   1.228   3.732
 2639TIP3    H2 7861   4.671   1.213   3.655
 2640TIP3   OH2 7862   7.986   7.824   1.731
 2640TIP3    H1 7863   8.059   7.766   1.753
 2640TIP3    H2 7864   8.018   7.875   1.656
 2641TIP3   OH2 7865   5.018   5.043   6.110
 2641TIP3    H1 7866   5.007   4.950   6.129
 2641TIP3    H2 7867   5.111   5.060   6.125
 2642TIP3   OH2 7868   6.608   3.218   1.949
 2642TIP3    H1 7869   6.637   3.132   1.978
 2642TIP3    H2 7870   6.595   3.209   1.855
 2643TIP3   OH2 7871   0.593   1.081   5.146
 2643TIP3    H1 7872   0.646   1.142   5.096
 2643TIP3    H2 7873   0.539   1.137   5.202
 2644TIP3   OH2 7874   7.450   1.752   4.867
 2644TIP3    H1 7875   7.442   1.658   4.882
 2644TIP3    H2 7876   7.539   1.763   4.832
 2645TIP3   OH2 7877   3.065   1.400   5.364
 2645TIP3    H1 7878   3.138   1.462   5.363
 2645TIP3    H2 7879   2.987   1.455   5.371
 2646TIP3   OH2 7880   6.689   1.752   4.549
 2646TIP3    H1 7881   6.652   1.825   4.499
 2646TIP3    H2 7882   6.783   1.755   4.530
 2647TIP3   OH2 7883   3.765   3.590   5.796
 2647TIP3    H1 7884   3.818   3.530   5.848
 2647TIP3    H2 7885   3.705   3.534   5.747
 2648TIP3   OH2 7886   0.982   5.105   5.354
 2648TIP3    H1 7887   1.044   5.152   5.298
 2648TIP3    H2 7888   0.933   5.049   5.294
 2649TIP3   OH2 7889   6.762   5.299   0.310
 2649TIP3    H1 7890   6.815   5.331   0.383
 2649TIP3    H2 7891   6.788   5.208   0.300
 2650TIP3   OH2 7892   1.538   6.157   1.439
 2650TIP3    H1 7893   1.582   6.074   1.459
 2650TIP3    H2 7894   1.498   6.143   1.354
 2651TIP3   OH2 7895   4.199   3.516   5.791
 2651TIP3    H1 7896   4.182   3.603   5.755
 2651TIP3    H2 7897   4.185   3.526   5.885
 2652TIP3   OH2 7898   1.049   1.546   5.273
 2652TIP3    H1 7899   1.099   1.466   5.256
 2652TIP3    H2 7900   1.091   1.612   5.217
 2653TIP3   OH2 7901   5.932   1.749   3.719
 2653TIP3    H1 7902   5.967   1.661   3.707
 2653TIP3    H2 7903   6.009   1.802   3.739
 2654TIP3   OH2 7904   7.779   4.300   5.235
 2654TIP3    H1 7905   7.700   4.293   5.181
 2654TIP3    H2 7906   7.771   4.385   5.278
 2655TIP3   OH2 7907   3.198   7.592   0.840
 2655TIP3    H1 7908   3.166   7.542   0.915
 2655TIP3    H2 7909   3.291   7.605   0.857
 2656TIP3   OH2 7910   4.022   7.577   1.612
 2656TIP3    H1 7911   4.037   7.642   1.681
 2656TIP3    H2 7912   4.010   7.495   1.660
 2657TIP3   OH2 7913   7.337   7.383   0.046
 2657TIP3    H1 7914   7.402   7.385  -0.024
 2657TIP3    H2 7915   7.304   7.473   0.052
 2658TIP3   OH2 7916   0.506   2.794   1.554
 2658TIP3    H1 7917   0.429   2.843   1.583
 2658TIP3    H2 7918   0.572   2.812   1.620
 2659TIP3   OH2 7919   4.412   3.562   4.419
 2659TIP3    H1 7920   4.414   3.469   4.442
 2659TIP3    H2 7921   4.389   3.606   4.501
 2660TIP3   OH2 7922   4.071   4.226   4.127
 2660TIP3    H1 7923   4.154   4.181   4.142
 2660TIP3    H2 7924   4.006   4.169   4.168
 2661TIP3   OH2 7925   0.494   6.085   1.895
 2661TIP3    H1 7926   0.462   5.997   1.879
 2661TIP3    H2 7927   0.444   6.114   1.972
 2662TIP3   OH2 7928   5.341   7.431   1.520
 2662TIP3    H1 7929   5.383   7.377   1.588
 2662TIP3    H2 7930   5.378   7.518   1.533
 2663TIP3   OH2 7931   5.052   0.789   2.479
 2663TIP3    H1 7932   4.971   0.834   2.457
 2663TIP3    H2 7933   5.101   0.785   2.396
 2664TIP3   OH2 7934   5.542   1.378   4.267
 2664TIP3    H1 7935   5.457   1.345   4.295
 2664TIP3    H2 7936   5.540   1.471   4.290
 2665TIP3   OH2 7937   0.495   6.054   1.625
 2665TIP3    H1 7938   0.416   6.078   1.577
 2665TIP3    H2 7939   0.480   6.087   1.713
 2666TIP3   OH2 7940   7.400   1.459   0.758
 2666TIP3    H1 7941   7.305   1.448   0.759
 2666TIP3    H2 7942   7.432   1.392   0.818
 2667TIP3   OH2 7943   4.886   6.668   6.655
 2667TIP3    H1 7944   4.796   6.686   6.627
 2667TIP3    H2 7945   4.897   6.718   6.735
 2668TIP3   OH2 7946   6.538   1.476   2.057
 2668TIP3    H1 7947   6.583   1.463   2.141
 2668TIP3    H2 7948   6.608   1.503   1.997
 2669TIP3   OH2 7949   6.898   3.830   6.285
 2669TIP3    H1 7950   6.992   3.823   6.266
 2669TIP3    H2 7951   6.855   3.804   6.204
 2670TIP3   OH2 7952   4.767   0.054   3.229
 2670TIP3    H1 7953   4.742   0.145   3.213
 2670TIP3    H2 7954   4.781   0.050   3.323
 2671TIP3   OH2 7955   4.921   7.674   0.962
 2671TIP3    H1 7956   4.913   7.592   1.011
 2671TIP3    H2 7957   4.881   7.655   0.878
 2672TIP3   OH2 7958   1.932   4.821   5.200
 2672TIP3    H1 7959   2.020   4.788   5.179
 2672TIP3    H2 7960   1.941   4.916   5.198
 2673TIP3   OH2 7961   0.807   1.254   4.594
 2673TIP3    H1 7962   0.868   1.226   4.526
 2673TIP3    H2 7963   0.799   1.179   4.653
 2674TIP3   OH2 7964   3.387   5.022   1.759
 2674TIP3    H1 7965   3.293   5.005   1.755
 2674TIP3    H2 7966   3.416   5.016   1.668
 2675TIP3   OH2 7967   7.131   6.811   0.122
 2675TIP3    H1 7968   7.038   6.787   0.128
 2675TIP3    H2 7969   7.140   6.885   0.182
 2676TIP3   OH2 7970   0.491   2.567   3.994
 2676TIP3    H1 7971   0.492   2.634   4.062
 2676TIP3    H2 7972   0.488   2.615   3.911
 2677TIP3   OH2 7973   2.228   1.206   3.115
 2677TIP3    H1 7974   2.206   1.207   3.021
 2677TIP3    H2 7975   2.145   1.186   3.158
 2678TIP3   OH2 7976   4.498   1.368   0.657
 2678TIP3    H1 7977   4.431   1.367   0.589
 2678TIP3    H2 7978   4.531   1.278   0.659
 2679TIP3   OH2 7979   2.906   7.696   4.667
 2679TIP3    H1 7980   2.987   7.672   4.621
 2679TIP3    H2 7981   2.925   7.681   4.760
 2680TIP3   OH2 7982   3.897   5.913   4.281
 2680TIP3    H1 7983   3.946   5.847   4.232
 2680TIP3    H2 7984   3.963   5.978   4.306
 2681TIP3   OH2 7985   7.424   6.072   6.609
 2681TIP3    H1 7986   7.365   6.001   6.584
 2681TIP3    H2 7987   7.393   6.099   6.696
 2682TIP3   OH2 7988   1.277   3.167   4.720
 2682TIP3    H1 7989   1.246   3.114   4.794
 2682TIP3    H2 7990   1.260   3.113   4.643
 2683TIP3   OH2 7991   1.349   2.668   3.767
 2683TIP3    H1 7992   1.321   2.758   3.784
 2683TIP3    H2 7993   1.293   2.638   3.694
 2684TIP3   OH2 7994   0.195   2.154   2.248
 2684TIP3    H1 7995   0.147   2.235   2.237
 2684TIP3    H2 7996   0.129   2.085   2.238
 2685TIP3   OH2 7997   2.304   7.350   6.484
 2685TIP3    H1 7998   2.211   7.352   6.464
 2685TIP3    H2 7999   2.309   7.329   6.577
 2686TIP3   OH2 8000   3.517   1.907   0.654
 2686TIP3    H1 8001   3.537   1.857   0.575
 2686TIP3    H2 8002   3.423   1.919   0.652
 2687TIP3   OH2 8003   2.668   7.774   6.143
 2687TIP3    H1 8004   2.629   7.711   6.082
 2687TIP3    H2 8005   2.603   7.843   6.150
 2688TIP3   OH2 8006   3.333   6.565   3.793
 2688TIP3    H1 8007   3.373   6.491   3.746
 2688TIP3    H2 8008   3.384   6.641   3.766
 2689TIP3   OH2 8009   4.415   2.670   0.969
 2689TIP3    H1 8010   4.430   2.690   1.062
 2689TIP3    H2 8011   4.455   2.584   0.957
 2690TIP3   OH2 8012   6.044   7.481   3.382
 2690TIP3    H1 8013   5.959   7.469   3.424
 2690TIP3    H2 8014   6.023   7.495   3.290
 2691TIP3   OH2 8015   4.866   1.379   1.334
 2691TIP3    H1 8016   4.846   1.452   1.391
 2691TIP3    H2 8017   4.949   1.344   1.368
 2692TIP3   OH2 8018   4.584   5.965   1.809
 2692TIP3    H1 8019   4.632   5.940   1.888
 2692TIP3    H2 8020   4.645   5.944   1.737
 2693TIP3   OH2 8021   0.485   4.068   5.738
 2693TIP3    H1 8022   0.535   4.096   5.815
 2693TIP3    H2 8023   0.537   4.097   5.664
 2694TIP3   OH2 8024   1.434   7.231   3.260
 2694TIP3    H1 8025   1.353   7.267   3.297
 2694TIP3    H2 8026   1.467   7.301   3.204
 2695TIP3   OH2 8027   0.437   4.582   4.103
 2695TIP3    H1 8028   0.393   4.637   4.168
 2695TIP3    H2 8029   0.455   4.642   4.030
 2696TIP3   OH2 8030   1.032   6.727   3.711
 2696TIP3    H1 8031   1.078   6.779   3.645
 2696TIP3    H2 8032   1.040   6.778   3.792
 2697TIP3   OH2 8033   0.182   3.186   3.749
 2697TIP3    H1 8034   0.272   3.176   3.718
 2697TIP3    H2 8035   0.141   3.245   3.686
 2698TIP3   OH2 8036   1.349   0.589   2.793
 2698TIP3    H1 8037   1.333   0.646   2.718
 2698TIP3    H2 8038   1.442   0.601   2.812
 2699TIP3   OH2 8039   7.496   2.239   0.306
 2699TIP3    H1 8040   7.586   2.269   0.315
 2699TIP3    H2 8041   7.503   2.152   0.268
 2700TIP3   OH2 8042   3.736   3.278   5.491
 2700TIP3    H1 8043   3.755   3.187   5.513
 2700TIP3    H2 8044   3.804   3.302   5.428
 2701TIP3   OH2 8045   4.275   0.982   3.285
 2701TIP3    H1 8046   4.245   0.919   3.219
 2701TIP3    H2 8047   4.358   0.948   3.316
 2702TIP3   OH2 8048   0.321   5.779   4.100
 2702TIP3    H1 8049   0.306   5.739   4.186
 2702TIP3    H2 8050   0.352   5.867   4.119
 2703TIP3   OH2 8051   7.715   3.473   5.130
 2703TIP3    H1 8052   7.788   3.444   5.185
 2703TIP3    H2 8053   7.757   3.513   5.054
 2704TIP3   OH2 8054   3.681   3.226   4.656
 2704TIP3    H1 8055   3.730   3.144   4.662
 2704TIP3    H2 8056   3.637   3.234   4.741
 2705TIP3   OH2 8057   0.115   3.909   5.092
 2705TIP3    H1 8058   0.103   3.988   5.144
 2705TIP3    H2 8059   0.059   3.921   5.016
 2706TIP3   OH2 8060   7.004   0.456   4.342
 2706TIP3    H1 8061   7.091   0.479   4.376
 2706TIP3    H2 8062   7.019   0.438   4.249
 2707TIP3   OH2 8063   8.210   5.994   1.918
 2707TIP3    H1 8064   8.255   6.070   1.880
 2707TIP3    H2 8065   8.212   6.010   2.013
 2708TIP3   OH2 8066   5.581   0.788   2.964
 2708TIP3    H1 8067   5.576   0.804   3.058
 2708TIP3    H2 8068   5.626   0.865   2.929
 2709TIP3   OH2 8069   3.588   3.063   1.240
 2709TIP3    H1 8070   3.512   3.043   1.295
 2709TIP3    H2 8071   3.614   2.978   1.204
 2710TIP3   OH2 8072   0.565   6.204   6.003
 2710TIP3    H1 8073   0.576   6.125   5.951
 2710TIP3    H2 8074   0.625   6.193   6.076
 2711TIP3   OH2 8075   6.890   5.108   5.631
 2711TIP3    H1 8076   6.851   5.196   5.632
 2711TIP3    H2 8077   6.928   5.099   5.544
 2712TIP3   OH2 8078   7.610   6.568   3.241
 2712TIP3    H1 8079   7.595   6.619   3.321
 2712TIP3    H2 8080   7.610   6.477   3.270
 2713TIP3   OH2 8081   2.134   6.731   1.711
 2713TIP3    H1 8082   2.144   6.640   1.739
 2713TIP3    H2 8083   2.055   6.732   1.658
 2714TIP3   OH2 8084   4.948   5.080   4.601
 2714TIP3    H1 8085   4.980   5.163   4.565
 2714TIP3    H2 8086   4.986   5.012   4.546
 2715TIP3   OH2 8087   5.811   6.512   4.744
 2715TIP3    H1 8088   5.765   6.431   4.767
 2715TIP3    H2 8089   5.742   6.579   4.742
 2716TIP3   OH2 8090   3.648   1.264   1.915
 2716TIP3    H1 8091   3.689   1.289   1.832
 2716TIP3    H2 8092   3.651   1.344   1.968
 2717TIP3   OH2 8093   0.562   2.657   1.331
 2717TIP3    H1 8094   0.613   2.718   1.278
 2717TIP3    H2 8095   0.544   2.706   1.412
 2718TIP3   OH2 8096   1.571   5.540   3.634
 2718TIP3    H1 8097   1.542   5.549   3.725
 2718TIP3    H2 8098   1.496   5.566   3.582
 2719TIP3   OH2 8099   1.947   2.725   0.590
 2719TIP3    H1 8100   1.911   2.646   0.630
 2719TIP3    H2 8101   2.041   2.720   0.607
 2720TIP3   OH2 8102   7.700   5.621   3.101
 2720TIP3    H1 8103   7.682   5.533   3.135
 2720TIP3    H2 8104   7.755   5.661   3.168
 2721TIP3   OH2 8105   1.447   1.048   2.894
 2721TIP3    H1 8106   1.491   1.111   2.951
 2721TIP3    H2 8107   1.449   0.966   2.943
 2722TIP3   OH2 8108   4.199   1.277   5.747
 2722TIP3    H1 8109   4.282   1.258   5.791
 2722TIP3    H2 8110   4.213   1.249   5.657
 2723TIP3   OH2 8111   2.402   7.420   0.701
 2723TIP3    H1 8112   2.401   7.382   0.789
 2723TIP3    H2 8113   2.405   7.514   0.716
 2724TIP3   OH2 8114   6.980   1.347   2.131
 2724TIP3    H1 8115   6.899   1.387   2.163
 2724TIP3    H2 8116   7.044   1.418   2.130
 2725TIP3   OH2 8117   0.833   4.948   6.023
 2725TIP3    H1 8118   0.786   4.893   5.961
 2725TIP3    H2 8119   0.770   4.966   6.093
 2726TIP3   OH2 8120   0.775   0.381   0.258
 2726TIP3    H1 8121   0.816   0.390   0.172
 2726TIP3    H2 8122   0.846   0.356   0.316
 2727TIP3   OH2 8123   5.349   7.214   4.408
 2727TIP3    H1 8124   5.293   7.266   4.351
 2727TIP3    H2 8125   5.288   7.159   4.457
 2728TIP3   OH2 8126   1.669   3.435   1.607
 2728TIP3    H1 8127   1.697   3.519   1.569
 2728TIP3    H2 8128   1.597   3.458   1.665
 2729TIP3   OH2 8129   6.435   5.112   1.379
 2729TIP3    H1 8130   6.459   5.082   1.292
 2729TIP3    H2 8131   6.352   5.157   1.367
 2730TIP3   OH2 8132   8.200   6.943   0.550
 2730TIP3    H1 8133   8.156   6.904   0.475
 2730TIP3    H2 8134   8.132   6.952   0.616
 2731TIP3   OH2 8135   6.274   7.178   5.265
 2731TIP3    H1 8136   6.252   7.247   5.202
 2731TIP3    H2 8137   6.330   7.118   5.215
 2732TIP3   OH2 8138   5.916  -0.015   2.112
 2732TIP3    H1 8139   5.913   0.081   2.109
 2732TIP3    H2 8140   5.973  -0.035   2.186
 2733TIP3   OH2 8141   0.280   3.354   2.050
 2733TIP3    H1 8142   0.362   3.312   2.075
 2733TIP3    H2 8143   0.290   3.445   2.078
 2734TIP3   OH2 8144   4.685   3.970   5.026
 2734TIP3    H1 8145   4.636   4.052   5.023
 2734TIP3    H2 8146   4.619   3.902   5.039
 2735TIP3   OH2 8147   1.599   1.687   5.745
 2735TIP3    H1 8148   1.641   1.739   5.813
 2735TIP3    H2 8149   1.508   1.680   5.773
 2736TIP3   OH2 8150   5.996   3.819   3.542
 2736TIP3    H1 8151   5.946   3.893   3.507
 2736TIP3    H2 8152   6.039   3.781   3.465
 2737TIP3   OH2 8153   7.551   1.400   2.792
 2737TIP3    H1 8154   7.462   1.413   2.825
 2737TIP3    H2 8155   7.591   1.487   2.795
 2738TIP3   OH2 8156   2.357   7.050   4.432
 2738TIP3    H1 8157   2.335   7.044   4.339
 2738TIP3    H2 8158   2.434   6.993   4.442
 2739TIP3   OH2 8159   2.804   6.795   4.832
 2739TIP3    H1 8160   2.781   6.886   4.847
 2739TIP3    H2 8161   2.900   6.793   4.836
 2740TIP3   OH2 8162   6.959   2.813   3.928
 2740TIP3    H1 8163   6.897   2.797   3.999
 2740TIP3    H2 8164   6.999   2.728   3.910
 2741TIP3   OH2 8165   4.406   0.022   5.423
 2741TIP3    H1 8166   4.408   0.117   5.439
 2741TIP3    H2 8167   4.437   0.012   5.333
 2742TIP3   OH2 8168   7.438   6.404   2.416
 2742TIP3    H1 8169   7.389   6.322   2.422
 2742TIP3    H2 8170   7.516   6.382   2.366
 2743TIP3   OH2 8171   7.533   3.995   4.526
 2743TIP3    H1 8172   7.552   3.974   4.618
 2743TIP3    H2 8173   7.571   3.923   4.477
 2744TIP3   OH2 8174   4.126   4.823   3.281
 2744TIP3    H1 8175   4.157   4.889   3.343
 2744TIP3    H2 8176   4.200   4.808   3.223
 2745TIP3   OH2 8177   2.982   2.188   6.784
 2745TIP3    H1 8178   3.040   2.113   6.771
 2745TIP3    H2 8179   2.905   2.168   6.730
 2746TIP3   OH2 8180   5.446   3.282   3.764
 2746TIP3    H1 8181   5.432   3.329   3.682
 2746TIP3    H2 8182   5.460   3.191   3.737
 2747TIP3   OH2 8183   5.584   4.673   4.183
 2747TIP3    H1 8184   5.657   4.690   4.242
 2747TIP3    H2 8185   5.528   4.612   4.232
 2748TIP3   OH2 8186   0.538   5.491   5.263
 2748TIP3    H1 8187   0.459   5.545   5.264
 2748TIP3    H2 8188   0.519   5.421   5.200
 2749TIP3   OH2 8189   2.502   3.194   3.649
 2749TIP3    H1 8190   2.568   3.171   3.584
 2749TIP3    H2 8191   2.485   3.113   3.696
 2750TIP3   OH2 8192   0.287   0.245   3.564
 2750TIP3    H1 8193   0.277   0.212   3.475
 2750TIP3    H2 8194   0.269   0.339   3.556
 2751TIP3   OH2 8195   6.237   7.259   1.354
 2751TIP3    H1 8196   6.273   7.275   1.267
 2751TIP3    H2 8197   6.156   7.210   1.339
 2752TIP3   OH2 8198   0.150   5.711   4.721
 2752TIP3    H1 8199   0.133   5.637   4.778
 2752TIP3    H2 8200   0.244   5.705   4.701
 2753TIP3   OH2 8201   6.782   1.805   2.570
 2753TIP3    H1 8202   6.751   1.797   2.660
 2753TIP3    H2 8203   6.877   1.810   2.578
 2754TIP3   OH2 8204   5.939   3.645   0.379
 2754TIP3    H1 8205   5.934   3.560   0.337
 2754TIP3    H2 8206   6.028   3.649   0.414
 2755TIP3   OH2 8207   6.307   3.887   4.592
 2755TIP3    H1 8208   6.231   3.924   4.636
 2755TIP3    H2 8209   6.349   3.962   4.550
 2756TIP3   OH2 8210   5.096   4.924   0.399
 2756TIP3    H1 8211   5.062   4.976   0.327
 2756TIP3    H2 8212   5.123   4.841   0.358
 2757TIP3   OH2 8213   5.480   6.925   5.725
 2757TIP3    H1 8214   5.537   6.991   5.685
 2757TIP3    H2 8215   5.428   6.974   5.789
 2758TIP3   OH2 8216   3.020   5.262   5.155
 2758TIP3    H1 8217   3.116   5.261   5.158
 2758TIP3    H2 8218   2.999   5.340   5.105
 2759TIP3   OH2 8219   2.459   7.430   5.044
 2759TIP3    H1 8220   2.447   7.405   5.136
 2759TIP3    H2 8221   2.529   7.494   5.046
 2760TIP3   OH2 8222   4.966   1.592   3.501
 2760TIP3    H1 8223   5.011   1.515   3.536
 2760TIP3    H2 8224   5.014   1.615   3.422
 2761TIP3   OH2 8225   6.074   4.701   2.309
 2761TIP3    H1 8226   6.164   4.729   2.292
 2761TIP3    H2 8227   6.049   4.653   2.230
 2762TIP3   OH2 8228   3.897   6.343   1.423
 2762TIP3    H1 8229   3.938   6.410   1.479
 2762TIP3    H2 8230   3.948   6.264   1.439
 2763TIP3   OH2 8231   3.395   6.732   1.808
 2763TIP3    H1 8232   3.384   6.787   1.731
 2763TIP3    H2 8233   3.419   6.646   1.773
 2764TIP3   OH2 8234   2.986   0.600   3.320
 2764TIP3    H1 8235   3.015   0.513   3.347
 2764TIP3    H2 8236   3.034   0.616   3.238
 2765TIP3   OH2 8237   5.232   5.421   4.641
 2765TIP3    H1 8238   5.276   5.340   4.668
 2765TIP3    H2 8239   5.148   5.391   4.605
 2766TIP3   OH2 8240   6.422   4.295   5.550
 2766TIP3    H1 8241   6.443   4.348   5.626
 2766TIP3    H2 8242   6.507   4.279   5.508
 2767TIP3   OH2 8243   1.204   7.115   5.440
 2767TIP3    H1 8244   1.260   7.115   5.362
 2767TIP3    H2 8245   1.154   7.196   5.435
 2768TIP3   OH2 8246   4.314   7.121   3.054
 2768TIP3    H1 8247   4.402   7.100   3.087
 2768TIP3    H2 8248   4.265   7.148   3.132
 2769TIP3   OH2 8249   3.658   0.938   5.558
 2769TIP3    H1 8250   3.618   0.875   5.619
 2769TIP3    H2 8251   3.590   1.003   5.543
 2770TIP3   OH2 8252   1.622   4.547   6.050
 2770TIP3    H1 8253   1.621   4.457   6.083
 2770TIP3    H2 8254   1.578   4.542   5.965
 2771TIP3   OH2 8255   3.464   4.553   6.472
 2771TIP3    H1 8256   3.430   4.632   6.431
 2771TIP3    H2 8257   3.392   4.520   6.526
 2772TIP3   OH2 8258   4.014   5.423   3.448
 2772TIP3    H1 8259   4.089   5.387   3.495
 2772TIP3    H2 8260   3.991   5.354   3.386
 2773TIP3   OH2 8261   7.400   4.489   2.194
 2773TIP3    H1 8262   7.485   4.496   2.150
 2773TIP3    H2 8263   7.421   4.458   2.282
 2774TIP3   OH2 8264   6.940   7.173   6.494
 2774TIP3    H1 8265   6.966   7.194   6.584
 2774TIP3    H2 8266   6.857   7.126   6.503
 2775TIP3   OH2 8267   4.748   3.150   0.299
 2775TIP3    H1 8268   4.679   3.214   0.317
 2775TIP3    H2 8269   4.705   3.066   0.306
 2776TIP3   OH2 8270   2.738   6.048   3.085
 2776TIP3    H1 8271   2.768   6.030   2.996
 2776TIP3    H2 8272   2.703   5.964   3.115
 2777TIP3   OH2 8273   4.827   6.871   0.699
 2777TIP3    H1 8274   4.902   6.842   0.750
 2777TIP3    H2 8275   4.800   6.954   0.739
 2778TIP3   OH2 8276   5.257   3.572   5.399
 2778TIP3    H1 8277   5.176   3.601   5.357
 2778TIP3    H2 8278   5.306   3.653   5.414
 2779TIP3   OH2 8279   1.838   4.514   3.211
 2779TIP3    H1 8280   1.928   4.547   3.221
 2779TIP3    H2 8281   1.783   4.583   3.249
 2780TIP3   OH2 8282   4.702   2.854   0.335
 2780TIP3    H1 8283   4.683   2.760   0.335
 2780TIP3    H2 8284   4.781   2.863   0.389
 2781TIP3   OH2 8285   1.550   1.533   0.481
 2781TIP3    H1 8286   1.457   1.511   0.477
 2781TIP3    H2 8287   1.595   1.449   0.470
 2782TIP3   OH2 8288   1.181   4.802   2.603
 2782TIP3    H1 8289   1.216   4.721   2.641
 2782TIP3    H2 8290   1.154   4.777   2.515
 2783TIP3   OH2 8291   0.488   3.257   1.561
 2783TIP3    H1 8292   0.443   3.316   1.620
 2783TIP3    H2 8293   0.537   3.198   1.618
 2784TIP3   OH2 8294   7.997   4.762   1.343
 2784TIP3    H1 8295   7.915   4.766   1.392
 2784TIP3    H2 8296   7.975   4.799   1.258
 2785TIP3   OH2 8297   3.276   5.575   5.207
 2785TIP3    H1 8298   3.292   5.481   5.205
 2785TIP3    H2 8299   3.268   5.596   5.300
 2786TIP3   OH2 8300   3.748   7.429   0.638
 2786TIP3    H1 8301   3.745   7.367   0.565
 2786TIP3    H2 8302   3.833   7.472   0.629
 2787TIP3   OH2 8303   6.670   7.163   5.448
 2787TIP3    H1 8304   6.742   7.201   5.498
 2787TIP3    H2 8305   6.706   7.150   5.360
 2788TIP3   OH2 8306   7.717   0.438   1.943
 2788TIP3    H1 8307   7.789   0.485   1.985
 2788TIP3    H2 8308   7.649   0.504   1.931
 2789TIP3   OH2 8309   0.860   2.953   3.636
 2789TIP3    H1 8310   0.954   2.968   3.635
 2789TIP3    H2 8311   0.826   3.018   3.698
 2790TIP3   OH2 8312   0.720   4.110   0.192
 2790TIP3    H1 8313   0.685   4.198   0.179
 2790TIP3    H2 8314   0.651   4.064   0.241
 2791TIP3   OH2 8315   1.029   6.148   1.490
 2791TIP3    H1 8316   1.076   6.154   1.574
 2791TIP3    H2 8317   0.937   6.152   1.514
 2792TIP3   OH2 8318   5.033   7.407   2.101
 2792TIP3    H1 8319   5.045   7.494   2.064
 2792TIP3    H2 8320   5.089   7.407   2.179
 2793TIP3   OH2 8321   0.510   2.637   0.502
 2793TIP3    H1 8322   0.469   2.585   0.433
 2793TIP3    H2 8323   0.504   2.584   0.581
 2794TIP3   OH2 8324   2.222   4.834   5.657
 2794TIP3    H1 8325   2.282   4.763   5.679
 2794TIP3    H2 8326   2.230   4.896   5.730
 2795TIP3   OH2 8327   7.793   3.688   3.044
 2795TIP3    H1 8328   7.811   3.621   2.979
 2795TIP3    H2 8329   7.702   3.674   3.069
 2796TIP3   OH2 8330   5.802   2.844   2.893
 2796TIP3    H1 8331   5.872   2.784   2.867
 2796TIP3    H2 8332   5.724   2.811   2.850
 2797TIP3   OH2 8333   5.695   6.467   3.329
 2797TIP3    H1 8334   5.731   6.382   3.352
 2797TIP3    H2 8335   5.667   6.458   3.238
 2798TIP3   OH2 8336   6.147   1.086   4.727
 2798TIP3    H1 8337   6.112   0.997   4.726
 2798TIP3    H2 8338   6.134   1.115   4.818
 2799TIP3   OH2 8339   3.471   6.665   6.309
 2799TIP3    H1 8340   3.426   6.739   6.267
 2799TIP3    H2 8341   3.534   6.635   6.244
 2800TIP3   OH2 8342   6.552   4.485   2.147
 2800TIP3    H1 8343   6.457   4.493   2.157
 2800TIP3    H2 8344   6.588   4.545   2.213
 2801TIP3   OH2 8345   0.679   5.388   2.520
 2801TIP3    H1 8346   0.746   5.353   2.460
 2801TIP3    H2 8347   0.729   5.428   2.591
 2802TIP3   OH2 8348   2.415   6.678   2.030
 2802TIP3    H1 8349   2.458   6.659   2.113
 2802TIP3    H2 8350   2.364   6.600   2.010
 2803TIP3   OH2 8351   0.999   3.488   3.243
 2803TIP3    H1 8352   0.952   3.415   3.203
 2803TIP3    H2 8353   1.016   3.549   3.171
 2804TIP3   OH2 8354   6.082   4.556   2.057
 2804TIP3    H1 8355   6.043   4.504   1.987
 2804TIP3    H2 8356   6.124   4.629   2.012
 2805TIP3   OH2 8357   7.172   6.997   3.673
 2805TIP3    H1 8358   7.237   7.036   3.614
 2805TIP3    H2 8359   7.123   7.071   3.707
 2806TIP3   OH2 8360   2.809   5.719   4.864
 2806TIP3    H1 8361   2.713   5.724   4.869
 2806TIP3    H2 8362   2.839   5.796   4.912
 2807TIP3   OH2 8363   0.412   1.116   4.799
 2807TIP3    H1 8364   0.382   1.124   4.890
 2807TIP3    H2 8365   0.457   1.199   4.782
 2808TIP3   OH2 8366   3.571   5.571   6.687
 2808TIP3    H1 8367   3.663   5.544   6.693
 2808TIP3    H2 8368   3.556   5.587   6.594
 2809TIP3   OH2 8369   7.136   5.325   3.725
 2809TIP3    H1 8370   7.138   5.344   3.631
 2809TIP3    H2 8371   7.143   5.230   3.729
 2810TIP3   OH2 8372   5.881   1.717   2.055
 2810TIP3    H1 8373   5.951   1.752   2.000
 2810TIP3    H2 8374   5.877   1.624   2.032
 2811TIP3   OH2 8375   3.569   3.194   5.289
 2811TIP3    H1 8376   3.605   3.229   5.370
 2811TIP3    H2 8377   3.479   3.226   5.287
 2812TIP3   OH2 8378   5.042   6.435   6.719
 2812TIP3    H1 8379   5.030   6.524   6.686
 2812TIP3    H2 8380   5.104   6.394   6.659
 2813TIP3   OH2 8381   3.290   2.901   5.921
 2813TIP3    H1 8382   3.384   2.910   5.906
 2813TIP3    H2 8383   3.283   2.835   5.990
 2814TIP3   OH2 8384   7.065   6.515   4.350
 2814TIP3    H1 8385   7.130   6.582   4.330
 2814TIP3    H2 8386   7.104   6.465   4.422
 2815TIP3   OH2 8387   3.974   2.672   6.078
 2815TIP3    H1 8388   4.063   2.650   6.106
 2815TIP3    H2 8389   3.937   2.590   6.047
 2816TIP3   OH2 8390   5.962   3.933   3.991
 2816TIP3    H1 8391   5.873   3.961   3.972
 2816TIP3    H2 8392   6.007   3.936   3.906
 2817TIP3   OH2 8393   0.859   7.313   1.368
 2817TIP3    H1 8394   0.920   7.377   1.331
 2817TIP3    H2 8395   0.843   7.343   1.457
 2818TIP3   OH2 8396   4.574   0.831   0.813
 2818TIP3    H1 8397   4.551   0.740   0.831
 2818TIP3    H2 8398   4.668   0.836   0.829
 2819TIP3   OH2 8399   7.250   5.742   1.941
 2819TIP3    H1 8400   7.189   5.802   1.898
 2819TIP3    H2 8401   7.223   5.655   1.911
 2820TIP3   OH2 8402   2.477   7.801   4.061
 2820TIP3    H1 8403   2.529   7.750   4.123
 2820TIP3    H2 8404   2.386   7.784   4.086
 2821TIP3   OH2 8405   1.069   7.810   5.285
 2821TIP3    H1 8406   1.125   7.884   5.262
 2821TIP3    H2 8407   1.122   7.733   5.266
 2822TIP3   OH2 8408   0.641   3.631   2.533
 2822TIP3    H1 8409   0.580   3.671   2.595
 2822TIP3    H2 8410   0.705   3.700   2.514
 2823TIP3   OH2 8411   3.723   2.292   1.973
 2823TIP3    H1 8412   3.798   2.312   2.029
 2823TIP3    H2 8413   3.718   2.367   1.913
 2824TIP3   OH2 8414   2.063   4.972   5.485
 2824TIP3    H1 8415   1.982   4.983   5.533
 2824TIP3    H2 8416   2.110   4.904   5.532
 2825TIP3   OH2 8417   2.902   6.864   0.604
 2825TIP3    H1 8418   2.840   6.802   0.641
 2825TIP3    H2 8419   2.854   6.947   0.600
 2826TIP3   OH2 8420   2.154   2.647   5.182
 2826TIP3    H1 8421   2.210   2.669   5.107
 2826TIP3    H2 8422   2.106   2.728   5.200
 2827TIP3   OH2 8423   6.567   5.150   2.478
 2827TIP3    H1 8424   6.610   5.211   2.539
 2827TIP3    H2 8425   6.607   5.065   2.496
 2828TIP3   OH2 8426   7.846   1.466   0.257
 2828TIP3    H1 8427   7.774   1.500   0.310
 2828TIP3    H2 8428   7.921   1.521   0.281
 2829TIP3   OH2 8429   6.243   4.179   4.829
 2829TIP3    H1 8430   6.250   4.247   4.763
 2829TIP3    H2 8431   6.245   4.226   4.913
 2830TIP3   OH2 8432   0.258   1.325   0.441
 2830TIP3    H1 8433   0.325   1.379   0.482
 2830TIP3    H2 8434   0.177   1.374   0.451
 2831TIP3   OH2 8435   6.207   7.609   6.544
 2831TIP3    H1 8436   6.207   7.669   6.469
 2831TIP3    H2 8437   6.300   7.601   6.567
 2832TIP3   OH2 8438   0.754   5.858   1.982
 2832TIP3    H1 8439   0.757   5.777   1.932
 2832TIP3    H2 8440   0.815   5.916   1.937
 2833TIP3   OH2 8441   0.408   7.701   0.057
 2833TIP3    H1 8442   0.356   7.763   0.006
 2833TIP3    H2 8443   0.486   7.750   0.081
 2834TIP3   OH2 8444   0.316   7.837   1.413
 2834TIP3    H1 8445   0.267   7.856   1.334
 2834TIP3    H2 8446   0.351   7.749   1.400
 2835TIP3   OH2 8447   7.771   0.725   1.958
 2835TIP3    H1 8448   7.817   0.695   1.880
 2835TIP3    H2 8449   7.837   0.774   2.008
 2836TIP3   OH2 8450   5.063   6.033   1.854
 2836TIP3    H1 8451   5.126   6.057   1.922
 2836TIP3    H2 8452   5.046   6.114   1.807
 2837TIP3   OH2 8453   1.918   0.068   2.198
 2837TIP3    H1 8454   1.891   0.158   2.184
 2837TIP3    H2 8455   1.853   0.015   2.152
 2838TIP3   OH2 8456   0.753   3.983   3.498
 2838TIP3    H1 8457   0.687   3.957   3.562
 2838TIP3    H2 8458   0.826   3.923   3.512
 2839TIP3   OH2 8459   4.264   3.158   4.825
 2839TIP3    H1 8460   4.237   3.204   4.905
 2839TIP3    H2 8461   4.184   3.116   4.794
 2840TIP3   OH2 8462   4.237   7.481   1.857
 2840TIP3    H1 8463   4.267   7.549   1.918
 2840TIP3    H2 8464   4.182   7.424   1.911
 2841TIP3   OH2 8465   5.944   1.444   6.003
 2841TIP3    H1 8466   6.011   1.488   5.951
 2841TIP3    H2 8467   5.979   1.357   6.020
 2842TIP3   OH2 8468   2.634   7.815   4.574
 2842TIP3    H1 8469   2.692   7.890   4.590
 2842TIP3    H2 8470   2.687   7.755   4.521
 2843TIP3   OH2 8471   2.868   0.072   4.177
 2843TIP3    H1 8472   2.800   0.109   4.232
 2843TIP3    H2 8473   2.930   0.033   4.238
 2844TIP3   OH2 8474   2.662   2.000   6.157
 2844TIP3    H1 8475   2.703   2.050   6.086
 2844TIP3    H2 8476   2.585   1.959   6.117
 2845TIP3   OH2 8477   7.859   4.617   3.579
 2845TIP3    H1 8478   7.895   4.537   3.619
 2845TIP3    H2 8479   7.770   4.594   3.555
 2846TIP3   OH2 8480   7.642   4.296   6.420
 2846TIP3    H1 8481   7.614   4.352   6.347
 2846TIP3    H2 8482   7.721   4.252   6.388
 2847TIP3   OH2 8483   6.025   3.396   0.072
 2847TIP3    H1 8484   6.009   3.312   0.030
 2847TIP3    H2 8485   6.097   3.434   0.021
 2848TIP3   OH2 8486   5.389   1.829   1.388
 2848TIP3    H1 8487   5.459   1.767   1.367
 2848TIP3    H2 8488   5.313   1.796   1.341
 2849TIP3   OH2 8489   8.182   3.519   6.617
 2849TIP3    H1 8490   8.213   3.431   6.636
 2849TIP3    H2 8491   8.114   3.535   6.682
 2850TIP3   OH2 8492   7.015   4.688   1.426
 2850TIP3    H1 8493   6.996   4.679   1.332
 2850TIP3    H2 8494   7.103   4.727   1.428
 2851TIP3   OH2 8495   5.138   7.371   4.323
 2851TIP3    H1 8496   5.142   7.448   4.267
 2851TIP3    H2 8497   5.159   7.403   4.410
 2852TIP3   OH2 8498   8.210   7.658   1.783
 2852TIP3    H1 8499   8.291   7.693   1.821
 2852TIP3    H2 8500   8.204   7.569   1.818
 2853TIP3   OH2 8501   6.404   3.415   6.148
 2853TIP3    H1 8502   6.335   3.402   6.214
 2853TIP3    H2 8503   6.400   3.508   6.128
 2854TIP3   OH2 8504   4.531   2.637   6.280
 2854TIP3    H1 8505   4.530   2.595   6.366
 2854TIP3    H2 8506   4.454   2.602   6.235
 2855TIP3   OH2 8507   6.997   7.333   0.545
 2855TIP3    H1 8508   6.914   7.342   0.498
 2855TIP3    H2 8509   6.979   7.270   0.614
 2856TIP3   OH2 8510   0.193   7.417   0.247
 2856TIP3    H1 8511   0.131   7.387   0.313
 2856TIP3    H2 8512   0.277   7.419   0.293
 2857TIP3   OH2 8513   6.124   5.882   5.305
 2857TIP3    H1 8514   6.199   5.824   5.304
 2857TIP3    H2 8515   6.152   5.958   5.357
 2858TIP3   OH2 8516   5.561   0.235   4.560
 2858TIP3    H1 8517   5.503   0.302   4.525
 2858TIP3    H2 8518   5.649   0.274   4.558
 2859TIP3   OH2 8519   7.140   1.172   3.657
 2859TIP3    H1 8520   7.137   1.083   3.621
 2859TIP3    H2 8521   7.106   1.163   3.746
 2860TIP3   OH2 8522   4.834   3.007   3.715
 2860TIP3    H1 8523   4.766   3.005   3.783
 2860TIP3    H2 8524   4.850   2.915   3.695
 2861TIP3   OH2 8525   6.285   5.336   2.087
 2861TIP3    H1 8526   6.345   5.405   2.059
 2861TIP3    H2 8527   6.342   5.272   2.130
 2862TIP3   OH2 8528   1.656   7.873   1.232
 2862TIP3    H1 8529   1.696   7.863   1.318
 2862TIP3    H2 8530   1.590   7.804   1.227
 2863TIP3   OH2 8531   6.419   7.117   2.810
 2863TIP3    H1 8532   6.346   7.150   2.863
 2863TIP3    H2 8533   6.415   7.169   2.730
 2864TIP3   OH2 8534   5.900   3.023   6.722
 2864TIP3    H1 8535   5.854   2.985   6.797
 2864TIP3    H2 8536   5.987   3.047   6.757
 2865TIP3   OH2 8537   3.631   1.925   0.004
 2865TIP3    H1 8538   3.670   1.838   0.007
 2865TIP3    H2 8539   3.567   1.925   0.075
 2866TIP3   OH2 8540   3.058   2.156   2.456
 2866TIP3    H1 8541   2.981   2.210   2.442
 2866TIP3    H2 8542   3.124   2.191   2.396
 2867TIP3   OH2 8543   0.441   5.621   4.678
 2867TIP3    H1 8544   0.424   5.530   4.702
 2867TIP3    H2 8545   0.504   5.615   4.605
 2868TIP3   OH2 8546   4.745   6.494   1.054
 2868TIP3    H1 8547   4.719   6.578   1.015
 2868TIP3    H2 8548   4.789   6.518   1.136
 2869TIP3   OH2 8549   2.311   1.491   0.575
 2869TIP3    H1 8550   2.251   1.511   0.647
 2869TIP3    H2 8551   2.346   1.576   0.548
 2870TIP3   OH2 8552   7.316   5.954   2.649
 2870TIP3    H1 8553   7.281   5.865   2.655
 2870TIP3    H2 8554   7.405   5.946   2.682
 2871TIP3   OH2 8555   1.829   3.292   4.725
 2871TIP3    H1 8556   1.737   3.270   4.733
 2871TIP3    H2 8557   1.851   3.337   4.807
 2872TIP3   OH2 8558   7.650   2.141   6.675
 2872TIP3    H1 8559   7.599   2.204   6.726
 2872TIP3    H2 8560   7.657   2.064   6.731
 2873TIP3   OH2 8561   2.754   4.242   5.297
 2873TIP3    H1 8562   2.754   4.313   5.233
 2873TIP3    H2 8563   2.662   4.219   5.308
 2874TIP3   OH2 8564   3.879   2.514   1.872
 2874TIP3    H1 8565   3.934   2.504   1.950
 2874TIP3    H2 8566   3.912   2.448   1.811
 2875TIP3   OH2 8567   0.084   5.710   3.931
 2875TIP3    H1 8568   0.160   5.744   3.978
 2875TIP3    H2 8569   0.120   5.644   3.872
 2876TIP3   OH2 8570   0.318   4.203   2.923
 2876TIP3    H1 8571   0.278   4.264   2.985
 2876TIP3    H2 8572   0.408   4.195   2.952
 2877TIP3   OH2 8573   3.936   5.577   5.615
 2877TIP3    H1 8574   3.921   5.534   5.531
 2877TIP3    H2 8575   3.897   5.664   5.604
 2878TIP3   OH2 8576   1.746   6.398   2.732
 2878TIP3    H1 8577   1.783   6.469   2.679
 2878TIP3    H2 8578   1.699   6.443   2.802
 2879TIP3   OH2 8579   8.060   3.621   1.043
 2879TIP3    H1 8580   8.028   3.534   1.066
 2879TIP3    H2 8581   8.072   3.665   1.127
 2880TIP3   OH2 8582   8.091   7.077   0.232
 2880TIP3    H1 8583   8.019   7.042   0.180
 2880TIP3    H2 8584   8.123   7.002   0.282
 2881TIP3   OH2 8585   8.241   1.374   2.873
 2881TIP3    H1 8586   8.223   1.467   2.881
 2881TIP3    H2 8587   8.159   1.331   2.895
 2882TIP3   OH2 8588   1.757   2.857   1.366
 2882TIP3    H1 8589   1.703   2.894   1.297
 2882TIP3    H2 8590   1.797   2.779   1.327
 2883TIP3   OH2 8591   5.812   0.892   6.366
 2883TIP3    H1 8592   5.789   0.984   6.353
 2883TIP3    H2 8593   5.845   0.888   6.455
 2884TIP3   OH2 8594   0.597   3.207   6.005
 2884TIP3    H1 8595   0.666   3.185   5.944
 2884TIP3    H2 8596   0.519   3.164   5.970
 2885TIP3   OH2 8597   1.350   4.562   6.406
 2885TIP3    H1 8598   1.342   4.556   6.311
 2885TIP3    H2 8599   1.307   4.483   6.439
 2886TIP3   OH2 8600   3.972   0.512   6.231
 2886TIP3    H1 8601   4.021   0.456   6.291
 2886TIP3    H2 8602   4.028   0.520   6.154
 2887TIP3   OH2 8603   4.349   6.150   2.840
 2887TIP3    H1 8604   4.339   6.203   2.761
 2887TIP3    H2 8605   4.263   6.156   2.883
 2888TIP3   OH2 8606   6.966   2.811   5.707
 2888TIP3    H1 8607   7.038   2.869   5.681
 2888TIP3    H2 8608   6.996   2.724   5.683
 2889TIP3   OH2 8609   1.446   0.609   1.622
 2889TIP3    H1 8610   1.355   0.625   1.597
 2889TIP3    H2 8611   1.494   0.686   1.592
 2890TIP3   OH2 8612   8.147   5.069   6.179
 2890TIP3    H1 8613   8.130   5.028   6.094
 2890TIP3    H2 8614   8.230   5.116   6.166
 2891TIP3   OH2 8615   0.409   6.727   5.376
 2891TIP3    H1 8616   0.484   6.735   5.436
 2891TIP3    H2 8617   0.396   6.632   5.367
 2892TIP3   OH2 8618   4.353   7.304   3.416
 2892TIP3    H1 8619   4.383   7.241   3.481
 2892TIP3    H2 8620   4.287   7.256   3.365
 2893TIP3   OH2 8621   4.998   7.601   0.317
 2893TIP3    H1 8622   4.982   7.659   0.243
 2893TIP3    H2 8623   5.039   7.524   0.279
 2894TIP3   OH2 8624   2.549   5.783   4.798
 2894TIP3    H1 8625   2.572   5.865   4.841
 2894TIP3    H2 8626   2.456   5.790   4.778
 2895TIP3   OH2 8627   5.137   0.935   2.200
 2895TIP3    H1 8628   5.169   0.885   2.125
 2895TIP3    H2 8629   5.042   0.931   2.192
 2896TIP3   OH2 8630   7.413   4.856   3.600
 2896TIP3    H1 8631   7.438   4.792   3.667
 2896TIP3    H2 8632   7.334   4.820   3.561
 2897TIP3   OH2 8633   2.523   5.713   2.172
 2897TIP3    H1 8634   2.447   5.716   2.113
 2897TIP3    H2 8635   2.527   5.801   2.211
 2898TIP3   OH2 8636   7.518   3.366   5.532
 2898TIP3    H1 8637   7.553   3.448   5.566
 2898TIP3    H2 8638   7.488   3.388   5.443
 2899TIP3   OH2 8639   3.643   3.933   6.688
 2899TIP3    H1 8640   3.606   3.850   6.657
 2899TIP3    H2 8641   3.733   3.933   6.654
 2900TIP3   OH2 8642   7.939   7.024   4.965
 2900TIP3    H1 8643   7.871   7.086   4.939
 2900TIP3    H2 8644   8.000   7.022   4.891
 2901TIP3   OH2 8645   0.313   1.234   5.088
 2901TIP3    H1 8646   0.258   1.156   5.097
 2901TIP3    H2 8647   0.353   1.245   5.174
 2902TIP3   OH2 8648   3.902   2.240   1.039
 2902TIP3    H1 8649   3.866   2.230   1.127
 2902TIP3    H2 8650   3.920   2.334   1.031
 2903TIP3   OH2 8651   3.498   3.704   5.604
 2903TIP3    H1 8652   3.579   3.666   5.568
 2903TIP3    H2 8653   3.517   3.717   5.697
 2904TIP3   OH2 8654   5.008   5.125   1.786
 2904TIP3    H1 8655   5.095   5.088   1.769
 2904TIP3    H2 8656   4.948   5.064   1.743
 2905TIP3   OH2 8657   7.973   6.535   0.986
 2905TIP3    H1 8658   7.945   6.617   0.946
 2905TIP3    H2 8659   8.018   6.562   1.066
 2906TIP3   OH2 8660   2.032   4.848   1.531
 2906TIP3    H1 8661   1.944   4.885   1.519
 2906TIP3    H2 8662   2.023   4.790   1.607
 2907TIP3   OH2 8663   5.941   6.542   3.798
 2907TIP3    H1 8664   5.950   6.606   3.727
 2907TIP3    H2 8665   5.967   6.591   3.876
 2908TIP3   OH2 8666   2.118   3.882   5.709
 2908TIP3    H1 8667   2.203   3.875   5.665
 2908TIP3    H2 8668   2.071   3.804   5.682
 2909TIP3   OH2 8669   6.924   5.095   2.545
 2909TIP3    H1 8670   6.888   5.144   2.619
 2909TIP3    H2 8671   6.923   5.156   2.472
 2910TIP3   OH2 8672   4.749   0.782   2.722
 2910TIP3    H1 8673   4.844   0.775   2.729
 2910TIP3    H2 8674   4.720   0.696   2.691
 2911TIP3   OH2 8675   3.866   1.244   3.758
 2911TIP3    H1 8676   3.961   1.230   3.758
 2911TIP3    H2 8677   3.829   1.163   3.791
 2912TIP3   OH2 8678   7.584   6.538   5.471
 2912TIP3    H1 8679   7.643   6.463   5.480
 2912TIP3    H2 8680   7.498   6.504   5.495
 2913TIP3   OH2 8681   6.140   7.396   3.903
 2913TIP3    H1 8682   6.166   7.461   3.967
 2913TIP3    H2 8683   6.223   7.369   3.862
 2914TIP3   OH2 8684   3.987   4.198   4.461
 2914TIP3    H1 8685   3.946   4.169   4.380
 2914TIP3    H2 8686   3.930   4.268   4.493
 2915TIP3   OH2 8687   4.843   5.594   4.411
 2915TIP3    H1 8688   4.878   5.619   4.326
 2915TIP3    H2 8689   4.878   5.659   4.472
 2916TIP3   OH2 8690   1.978   1.292   5.718
 2916TIP3    H1 8691   1.983   1.279   5.623
 2916TIP3    H2 8692   1.997   1.205   5.755
 2917TIP3   OH2 8693   6.047   3.669   4.056
 2917TIP3    H1 8694   5.977   3.612   4.089
 2917TIP3    H2 8695   6.001   3.744   4.018
 2918TIP3   OH2 8696   1.710   5.429   2.953
 2918TIP3    H1 8697   1.708   5.343   2.911
 2918TIP3    H2 8698   1.752   5.486   2.888
 2919TIP3   OH2 8699   3.773   6.898   4.170
 2919TIP3    H1 8700   3.744   6.942   4.250
 2919TIP3    H2 8701   3.716   6.821   4.163
 2920TIP3   OH2 8702   4.584   4.756   3.581
 2920TIP3    H1 8703   4.578   4.841   3.625
 2920TIP3    H2 8704   4.595   4.778   3.489
 2921TIP3   OH2 8705   6.130   1.603   2.795
 2921TIP3    H1 8706   6.083   1.649   2.865
 2921TIP3    H2 8707   6.072   1.531   2.770
 2922TIP3   OH2 8708   4.647   2.831   6.590
 2922TIP3    H1 8709   4.571   2.872   6.631
 2922TIP3    H2 8710   4.610   2.764   6.532
 2923TIP3   OH2 8711   1.498   4.332   4.680
 2923TIP3    H1 8712   1.581   4.366   4.712
 2923TIP3    H2 8713   1.432   4.391   4.717
 2924TIP3   OH2 8714   4.242   0.178   1.751
 2924TIP3    H1 8715   4.303   0.117   1.792
 2924TIP3    H2 8716   4.237   0.149   1.660
 2925TIP3   OH2 8717   5.374   5.166   6.530
 2925TIP3    H1 8718   5.470   5.165   6.529
 2925TIP3    H2 8719   5.350   5.101   6.595
 2926TIP3   OH2 8720   1.219   1.682   0.735
 2926TIP3    H1 8721   1.188   1.752   0.678
 2926TIP3    H2 8722   1.273   1.626   0.678
 2927TIP3   OH2 8723   3.099   7.072   2.841
 2927TIP3    H1 8724   3.022   7.052   2.894
 2927TIP3    H2 8725   3.173   7.058   2.900
 2928TIP3   OH2 8726   6.698   6.712   2.999
 2928TIP3    H1 8727   6.715   6.787   2.942
 2928TIP3    H2 8728   6.685   6.750   3.086
 2929TIP3   OH2 8729   2.484   7.131   0.636
 2929TIP3    H1 8730   2.459   7.183   0.560
 2929TIP3    H2 8731   2.401   7.113   0.681
 2930TIP3   OH2 8732   2.729   5.825   6.647
 2930TIP3    H1 8733   2.803   5.856   6.595
 2930TIP3    H2 8734   2.660   5.888   6.630
 2931TIP3   OH2 8735   3.989   6.161   3.268
 2931TIP3    H1 8736   3.943   6.244   3.255
 2931TIP3    H2 8737   3.927   6.094   3.240
 2932TIP3   OH2 8738   5.274   4.606   4.468
 2932TIP3    H1 8739   5.298   4.577   4.379
 2932TIP3    H2 8740   5.217   4.681   4.454
 2933TIP3   OH2 8741   0.006   1.899   2.273
 2933TIP3    H1 8742  -0.088   1.896   2.254
 2933TIP3    H2 8743   0.043   1.826   2.225
 2934TIP3   OH2 8744   0.967   3.465   1.473
 2934TIP3    H1 8745   0.943   3.546   1.518
 2934TIP3    H2 8746   1.058   3.449   1.499
 2935TIP3   OH2 8747   6.828   6.251   0.832
 2935TIP3    H1 8748   6.774   6.172   0.833
 2935TIP3    H2 8749   6.908   6.226   0.878
 2936TIP3   OH2 8750   1.161   5.095   3.840
 2936TIP3    H1 8751   1.119   5.081   3.755
 2936TIP3    H2 8752   1.205   5.012   3.859
 2937TIP3   OH2 8753   5.525   4.650   3.884
 2937TIP3    H1 8754   5.567   4.568   3.859
 2937TIP3    H2 8755   5.531   4.652   3.980
 2938TIP3   OH2 8756   0.087   2.624   1.582
 2938TIP3    H1 8757   0.136   2.659   1.507
 2938TIP3    H2 8758   0.002   2.668   1.577
 2939TIP3   OH2 8759   5.911   6.672   0.682
 2939TIP3    H1 8760   5.857   6.646   0.607
 2939TIP3    H2 8761   5.863   6.641   0.758
 2940TIP3   OH2 8762   5.035   2.044   3.690
 2940TIP3    H1 8763   5.124   2.014   3.667
 2940TIP3    H2 8764   4.986   1.963   3.705
 2941TIP3   OH2 8765   3.097   6.275   4.930
 2941TIP3    H1 8766   3.165   6.250   4.866
 2941TIP3    H2 8767   3.039   6.199   4.933
 2942TIP3   OH2 8768   1.587   0.978   2.199
 2942TIP3    H1 8769   1.540   0.993   2.281
 2942TIP3    H2 8770   1.530   1.013   2.131
 2943TIP3   OH2 8771   0.807   4.324   4.571
 2943TIP3    H1 8772   0.713   4.307   4.576
 2943TIP3    H2 8773   0.813   4.415   4.542
 2944TIP3   OH2 8774   0.250   0.909   4.960
 2944TIP3    H1 8775   0.334   0.877   4.992
 2944TIP3    H2 8776   0.268   0.942   4.872
 2945TIP3   OH2 8777   2.730   7.062   0.328
 2945TIP3    H1 8778   2.819   7.027   0.329
 2945TIP3    H2 8779   2.723   7.112   0.409
 2946TIP3   OH2 8780   4.123   7.427   2.110
 2946TIP3    H1 8781   4.094   7.479   2.185
 2946TIP3    H2 8782   4.213   7.403   2.131
 2947TIP3   OH2 8783   5.036   3.651   5.250
 2947TIP3    H1 8784   5.022   3.737   5.210
 2947TIP3    H2 8785   4.970   3.595   5.211
 2948TIP3   OH2 8786   6.918   6.688   6.319
 2948TIP3    H1 8787   6.825   6.709   6.328
 2948TIP3    H2 8788   6.920   6.610   6.263
 2949TIP3   OH2 8789   0.378   6.101   2.643
 2949TIP3    H1 8790   0.358   6.128   2.553
 2949TIP3    H2 8791   0.351   6.009   2.648
 2950TIP3   OH2 8792   1.491   6.359   4.916
 2950TIP3    H1 8793   1.438   6.414   4.858
 2950TIP3    H2 8794   1.573   6.347   4.869
 2951TIP3   OH2 8795   1.752   2.331   3.904
 2951TIP3    H1 8796   1.716   2.259   3.956
 2951TIP3    H2 8797   1.709   2.409   3.940
 2952TIP3   OH2 8798   1.152   3.033   6.226
 2952TIP3    H1 8799   1.084   3.000   6.168
 2952TIP3    H2 8800   1.228   3.045   6.169
 2953TIP3   OH2 8801   6.830   6.466   6.178
 2953TIP3    H1 8802   6.751   6.454   6.231
 2953TIP3    H2 8803   6.889   6.396   6.207
 2954TIP3   OH2 8804   6.505   3.634   3.269
 2954TIP3    H1 8805   6.549   3.713   3.299
 2954TIP3    H2 8806   6.572   3.566   3.272
 2955TIP3   OH2 8807   3.475   0.439   0.098
 2955TIP3    H1 8808   3.550   0.379   0.104
 2955TIP3    H2 8809   3.426   0.408   0.021
 2956TIP3   OH2 8810   6.759   7.496   4.793
 2956TIP3    H1 8811   6.808   7.414   4.799
 2956TIP3    H2 8812   6.723   7.510   4.880
 2957TIP3   OH2 8813   4.762   3.133   4.822
 2957TIP3    H1 8814   4.762   3.115   4.916
 2957TIP3    H2 8815   4.689   3.194   4.809
 2958TIP3   OH2 8816   3.953   7.209   2.403
 2958TIP3    H1 8817   3.871   7.207   2.451
 2958TIP3    H2 8818   3.963   7.121   2.367
 2959TIP3   OH2 8819   4.951   5.443   2.242
 2959TIP3    H1 8820   5.019   5.481   2.187
 2959TIP3    H2 8821   4.870   5.482   2.211
 2960TIP3   OH2 8822   6.405   5.188   1.679
 2960TIP3    H1 8823   6.365   5.129   1.744
 2960TIP3    H2 8824   6.450   5.129   1.619
 2961TIP3   OH2 8825   5.718   0.483   5.325
 2961TIP3    H1 8826   5.809   0.492   5.354
 2961TIP3    H2 8827   5.675   0.563   5.356
 2962TIP3   OH2 8828   7.547   5.001   6.381
 2962TIP3    H1 8829   7.501   4.978   6.461
 2962TIP3    H2 8830   7.513   4.941   6.315
 2963TIP3   OH2 8831   7.007   0.888   6.009
 2963TIP3    H1 8832   7.021   0.980   6.030
 2963TIP3    H2 8833   6.964   0.889   5.924
 2964TIP3   OH2 8834   7.155   6.575   5.610
 2964TIP3    H1 8835   7.075   6.525   5.623
 2964TIP3    H2 8836   7.182   6.601   5.698
 2965TIP3   OH2 8837   4.706   1.952   2.029
 2965TIP3    H1 8838   4.721   2.046   2.024
 2965TIP3    H2 8839   4.611   1.942   2.032
 2966TIP3   OH2 8840   4.161   6.379   1.805
 2966TIP3    H1 8841   4.226   6.397   1.737
 2966TIP3    H2 8842   4.209   6.329   1.871
 2967TIP3   OH2 8843   5.059   1.800   4.988
 2967TIP3    H1 8844   5.088   1.881   5.030
 2967TIP3    H2 8845   4.963   1.804   4.992
 2968TIP3   OH2 8846   1.313   4.015   4.494
 2968TIP3    H1 8847   1.334   4.039   4.584
 2968TIP3    H2 8848   1.287   4.097   4.452
 2969TIP3   OH2 8849   0.535   1.565   6.726
 2969TIP3    H1 8850   0.575   1.634   6.779
 2969TIP3    H2 8851   0.607   1.529   6.674
 2970TIP3   OH2 8852   7.150   7.610   1.210
 2970TIP3    H1 8853   7.059   7.582   1.221
 2970TIP3    H2 8854   7.158   7.628   1.117
 2971TIP3   OH2 8855   8.128   1.491   0.940
 2971TIP3    H1 8856   8.153   1.583   0.953
 2971TIP3    H2 8857   8.177   1.442   1.006
 2972TIP3   OH2 8858   4.477   5.021   4.382
 2972TIP3    H1 8859   4.497   5.114   4.389
 2972TIP3    H2 8860   4.555   4.978   4.417
 2973TIP3   OH2 8861   1.682   6.384   1.425
 2973TIP3    H1 8862   1.742   6.409   1.495
 2973TIP3    H2 8863   1.650   6.297   1.451
 2974TIP3   OH2 8864   2.717   4.654   6.531
 2974TIP3    H1 8865   2.808   4.637   6.555
 2974TIP3    H2 8866   2.690   4.727   6.588
 2975TIP3   OH2 8867   5.735   5.595   0.107
 2975TIP3    H1 8868   5.783   5.678   0.106
 2975TIP3    H2 8869   5.645   5.619   0.086
 2976TIP3   OH2 8870   5.994   6.995   3.192
 2976TIP3    H1 8871   5.922   7.021   3.249
 2976TIP3    H2 8872   6.061   7.062   3.206
 2977TIP3   OH2 8873   5.523   7.592   2.527
 2977TIP3    H1 8874   5.593   7.591   2.461
 2977TIP3    H2 8875   5.463   7.524   2.500
 2978TIP3   OH2 8876   3.317   2.047   3.184
 2978TIP3    H1 8877   3.359   2.083   3.262
 2978TIP3    H2 8878   3.379   2.065   3.113
 2979TIP3   OH2 8879   7.531   2.744   5.308
 2979TIP3    H1 8880   7.540   2.650   5.323
 2979TIP3    H2 8881   7.469   2.773   5.375
 2980TIP3   OH2 8882   2.205   6.039   1.525
 2980TIP3    H1 8883   2.199   6.066   1.433
 2980TIP3    H2 8884   2.119   6.000   1.544
 2981TIP3   OH2 8885   4.170   3.450   0.181
 2981TIP3    H1 8886   4.210   3.534   0.206
 2981TIP3    H2 8887   4.169   3.399   0.261
 2982TIP3   OH2 8888   1.303   6.207   1.620
 2982TIP3    H1 8889   1.378   6.181   1.567
 2982TIP3    H2 8890   1.316   6.301   1.635
 2983TIP3   OH2 8891   5.004   5.392   4.209
 2983TIP3    H1 8892   5.094   5.360   4.201
 2983TIP3    H2 8893   4.985   5.430   4.123
 2984TIP3   OH2 8894   3.669   4.548   5.350
 2984TIP3    H1 8895   3.581   4.513   5.356
 2984TIP3    H2 8896   3.658   4.635   5.312
 2985TIP3   OH2 8897   6.597   1.443   6.267
 2985TIP3    H1 8898   6.617   1.386   6.341
 2985TIP3    H2 8899   6.568   1.525   6.307
 2986TIP3   OH2 8900   5.141   3.541   5.833
 2986TIP3    H1 8901   5.158   3.580   5.748
 2986TIP3    H2 8902   5.200   3.587   5.893
 2987TIP3   OH2 8903   3.152   6.129   3.194
 2987TIP3    H1 8904   3.129   6.124   3.101
 2987TIP3    H2 8905   3.149   6.039   3.225
 2988TIP3   OH2 8906   7.111   2.839   6.044
 2988TIP3    H1 8907   7.152   2.760   6.079
 2988TIP3    H2 8908   7.183   2.901   6.035
 2989TIP3   OH2 8909   2.157   2.605   6.733
 2989TIP3    H1 8910   2.206   2.537   6.687
 2989TIP3    H2 8911   2.119   2.659   6.664
 2990TIP3   OH2 8912   1.626   7.384   2.264
 2990TIP3    H1 8913   1.595   7.431   2.187
 2990TIP3    H2 8914   1.629   7.293   2.237
 2991TIP3   OH2 8915   1.314   3.692   1.945
 2991TIP3    H1 8916   1.332   3.784   1.965
 2991TIP3    H2 8917   1.342   3.644   2.023
 2992TIP3   OH2 8918   3.104   0.969   3.440
 2992TIP3    H1 8919   3.181   0.937   3.392
 2992TIP3    H2 8920   3.135   1.050   3.482
 2993TIP3   OH2 8921   3.071   7.637   4.318
 2993TIP3    H1 8922   3.148   7.686   4.288
 2993TIP3    H2 8923   3.004   7.703   4.332
 2994TIP3   OH2 8924   6.983   0.290   3.686
 2994TIP3    H1 8925   7.047   0.323   3.750
 2994TIP3    H2 8926   6.903   0.276   3.737
 2995TIP3   OH2 8927   1.702   2.889   5.594
 2995TIP3    H1 8928   1.677   2.897   5.686
 2995TIP3    H2 8929   1.756   2.810   5.590
 2996TIP3   OH2 8930   5.759   0.390   3.269
 2996TIP3    H1 8931   5.813   0.322   3.308
 2996TIP3    H2 8932   5.733   0.354   3.184
 2997TIP3   OH2 8933   0.347   6.295   1.272
 2997TIP3    H1 8934   0.410   6.307   1.200
 2997TIP3    H2 8935   0.345   6.380   1.315
 2998TIP3   OH2 8936   1.713   6.449   0.416
 2998TIP3    H1 8937   1.665   6.466   0.335
 2998TIP3    H2 8938   1.649   6.466   0.485
 2999TIP3   OH2 8939   3.983   6.060   1.447
 2999TIP3    H1 8940   3.942   6.062   1.361
 2999TIP3    H2 8941   4.077   6.055   1.429
 3000TIP3   OH2 8942   0.466   3.635   3.815
 3000TIP3    H1 8943   0.414   3.686   3.754
 3000TIP3    H2 8944   0.510   3.570   3.760
 3001TIP3   OH2 8945   5.765   6.214   0.942
 3001TIP3    H1 8946   5.768   6.133   0.891
 3001TIP3    H2 8947   5.800   6.281   0.884
 3002TIP3   OH2 8948   5.221   3.139   2.123
 3002TIP3    H1 8949   5.249   3.219   2.080
 3002TIP3    H2 8950   5.192   3.167   2.210
 3003TIP3   OH2 8951   1.401   0.005   4.026
 3003TIP3    H1 8952   1.459  -0.055   4.073
 3003TIP3    H2 8953   1.459   0.053   3.967
 3004TIP3   OH2 8954   0.144   0.814   2.307
 3004TIP3    H1 8955   0.073   0.874   2.281
 3004TIP3    H2 8956   0.219   0.842   2.255
 3005TIP3   OH2 8957   6.553   1.826   5.792
 3005TIP3    H1 8958   6.516   1.914   5.789
 3005TIP3    H2 8959   6.647   1.838   5.779
 3006TIP3   OH2 8960   1.943   6.535   3.506
 3006TIP3    H1 8961   1.904   6.493   3.430
 3006TIP3    H2 8962   1.983   6.615   3.472
 3007TIP3   OH2 8963   4.178   3.828   5.288
 3007TIP3    H1 8964   4.235   3.881   5.232
 3007TIP3    H2 8965   4.093   3.874   5.286
 3008TIP3   OH2 8966   2.448   2.876   2.738
 3008TIP3    H1 8967   2.491   2.825   2.806
 3008TIP3    H2 8968   2.508   2.949   2.720
 3009TIP3   OH2 8969   1.933   0.764   4.857
 3009TIP3    H1 8970   1.921   0.725   4.944
 3009TIP3    H2 8971   2.019   0.733   4.829
 3010TIP3   OH2 8972   0.118   6.000   0.927
 3010TIP3    H1 8973   0.116   6.087   0.887
 3010TIP3    H2 8974   0.030   5.987   0.961
 3011TIP3   OH2 8975   0.036   1.451   1.337
 3011TIP3    H1 8976   0.054   1.406   1.253
 3011TIP3    H2 8977   0.008   1.381   1.395
 3012TIP3   OH2 8978   3.721   7.172   2.522
 3012TIP3    H1 8979   3.662   7.225   2.469
 3012TIP3    H2 8980   3.680   7.086   2.526
 3013TIP3   OH2 8981   0.902   6.038   0.090
 3013TIP3    H1 8982   0.946   6.011   0.171
 3013TIP3    H2 8983   0.819   6.076   0.121
 3014TIP3   OH2 8984   1.939   3.973   4.712
 3014TIP3    H1 8985   1.943   3.889   4.668
 3014TIP3    H2 8986   1.885   4.028   4.655
 3015TIP3   OH2 8987   8.140   6.808   5.907
 3015TIP3    H1 8988   8.149   6.718   5.878
 3015TIP3    H2 8989   8.084   6.849   5.842
 3016TIP3   OH2 8990   2.507   5.156   0.286
 3016TIP3    H1 8991   2.515   5.075   0.337
 3016TIP3    H2 8992   2.596   5.176   0.258
 3017TIP3   OH2 8993   1.268   6.601   3.833
 3017TIP3    H1 8994   1.180   6.599   3.869
 3017TIP3    H2 8995   1.256   6.579   3.740
 3018TIP3   OH2 8996   7.757   5.669   2.840
 3018TIP3    H1 8997   7.851   5.686   2.829
 3018TIP3    H2 8998   7.750   5.632   2.927
 3019TIP3   OH2 8999   3.684   5.031   3.183
 3019TIP3    H1 9000   3.737   4.959   3.149
 3019TIP3    H2 9001   3.614   5.042   3.119
 3020TIP3   OH2 9002   1.107   4.200   4.004
 3020TIP3    H1 9003   1.031   4.166   3.956
 3020TIP3    H2 9004   1.139   4.124   4.053
 3021TIP3   OH2 9005   3.512   5.120   1.288
 3021TIP3    H1 9006   3.575   5.188   1.264
 3021TIP3    H2 9007   3.439   5.169   1.328
 3022TIP3   OH2 9008   1.168   4.228   0.047
 3022TIP3    H1 9009   1.119   4.163   0.097
 3022TIP3    H2 9010   1.109   4.303   0.040
 3023TIP3   OH2 9011   7.352   2.593   3.260
 3023TIP3    H1 9012   7.446   2.605   3.271
 3023TIP3    H2 9013   7.313   2.664   3.311
 3024TIP3   OH2 9014   5.731   1.493   4.635
 3024TIP3    H1 9015   5.743   1.557   4.564
 3024TIP3    H2 9016   5.712   1.545   4.712
 3025TIP3   OH2 9017   0.933   7.663   6.085
 3025TIP3    H1 9018   0.998   7.669   6.014
 3025TIP3    H2 9019   0.849   7.680   6.042
 3026TIP3   OH2 9020   1.296   0.713   3.733
 3026TIP3    H1 9021   1.223   0.690   3.676
 3026TIP3    H2 9022   1.372   0.711   3.677
 3027TIP3   OH2 9023   8.054   1.534   4.558
 3027TIP3    H1 9024   8.053   1.470   4.487
 3027TIP3    H2 9025   8.135   1.515   4.606
 3028TIP3   OH2 9026   3.812   1.251   3.480
 3028TIP3    H1 9027   3.848   1.307   3.549
 3028TIP3    H2 9028   3.780   1.173   3.526
 3029TIP3   OH2 9029   6.330   3.638   3.465
 3029TIP3    H1 9030   6.360   3.584   3.538
 3029TIP3    H2 9031   6.382   3.609   3.390
 3030TIP3   OH2 9032   1.120   0.038   1.345
 3030TIP3    H1 9033   1.212   0.019   1.361
 3030TIP3    H2 9034   1.117   0.069   1.255
 3031TIP3   OH2 9035   2.798   4.314   1.231
 3031TIP3    H1 9036   2.724   4.330   1.172
 3031TIP3    H2 9037   2.771   4.355   1.314
 3032TIP3   OH2 9038   4.630   7.652   3.660
 3032TIP3    H1 9039   4.566   7.631   3.592
 3032TIP3    H2 9040   4.675   7.569   3.676
 3033TIP3   OH2 9041   5.278   3.145   6.108
 3033TIP3    H1 9042   5.316   3.059   6.125
 3033TIP3    H2 9043   5.352   3.205   6.108
 3034TIP3   OH2 9044   4.207   1.702   3.224
 3034TIP3    H1 9045   4.159   1.784   3.226
 3034TIP3    H2 9046   4.141   1.635   3.241
 3035TIP3   OH2 9047   2.063   1.680   2.060
 3035TIP3    H1 9048   1.989   1.704   2.116
 3035TIP3    H2 9049   2.140   1.709   2.108
 3036TIP3   OH2 9050   4.540   3.882   3.654
 3036TIP3    H1 9051   4.547   3.827   3.732
 3036TIP3    H2 9052   4.542   3.971   3.687
 3037TIP3   OH2 9053   2.821   5.857   2.241
 3037TIP3    H1 9054   2.814   5.799   2.317
 3037TIP3    H2 9055   2.731   5.868   2.211
 3038TIP3   OH2 9056   4.250   7.277   4.121
 3038TIP3    H1 9057   4.213   7.188   4.117
 3038TIP3    H2 9058   4.344   7.263   4.121
 3039TIP3   OH2 9059   5.161   6.246   4.981
 3039TIP3    H1 9060   5.069   6.265   5.000
 3039TIP3    H2 9061   5.182   6.172   5.039
 3040TIP3   OH2 9062   0.229   7.471   1.139
 3040TIP3    H1 9063   0.226   7.540   1.205
 3040TIP3    H2 9064   0.138   7.443   1.129
 3041TIP3   OH2 9065   7.697   5.780   0.546
 3041TIP3    H1 9066   7.698   5.856   0.488
 3041TIP3    H2 9067   7.658   5.812   0.627
 3042TIP3   OH2 9068   1.146   5.128   2.219
 3042TIP3    H1 9069   1.155   5.100   2.128
 3042TIP3    H2 9070   1.145   5.224   2.215
 3043TIP3   OH2 9071   5.691   7.722   5.698
 3043TIP3    H1 9072   5.759   7.663   5.665
 3043TIP3    H2 9073   5.617   7.664   5.718
 3044TIP3   OH2 9074   8.263   0.771   0.385
 3044TIP3    H1 9075   8.316   0.835   0.433
 3044TIP3    H2 9076   8.304   0.767   0.298
 3045TIP3   OH2 9077   0.204   5.049   4.580
 3045TIP3    H1 9078   0.256   5.007   4.512
 3045TIP3    H2 9079   0.204   4.985   4.652
 3046TIP3   OH2 9080   6.893   6.167   5.316
 3046TIP3    H1 9081   6.893   6.124   5.230
 3046TIP3    H2 9082   6.877   6.259   5.296
 3047TIP3   OH2 9083   2.254   7.126   0.798
 3047TIP3    H1 9084   2.213   7.046   0.834
 3047TIP3    H2 9085   2.258   7.186   0.872
 3048TIP3   OH2 9086   5.740   0.306   6.390
 3048TIP3    H1 9087   5.678   0.366   6.431
 3048TIP3    H2 9088   5.817   0.361   6.371
 3049TIP3   OH2 9089   1.187   6.949   5.059
 3049TIP3    H1 9090   1.248   6.875   5.065
 3049TIP3    H2 9091   1.241   7.026   5.073
 3050TIP3   OH2 9092   1.247   2.462   5.664
 3050TIP3    H1 9093   1.269   2.370   5.648
 3050TIP3    H2 9094   1.203   2.462   5.749
 3051TIP3   OH2 9095   4.043   3.603   1.012
 3051TIP3    H1 9096   4.045   3.507   1.010
 3051TIP3    H2 9097   3.957   3.626   0.979
 3052TIP3   OH2 9098   4.377   1.158   4.011
 3052TIP3    H1 9099   4.360   1.117   4.095
 3052TIP3    H2 9100   4.362   1.089   3.947
 3053TIP3   OH2 9101   1.536   0.091   6.616
 3053TIP3    H1 9102   1.464   0.143   6.651
 3053TIP3    H2 9103   1.507   0.065   6.528
 3054TIP3   OH2 9104   6.187   6.676   4.229
 3054TIP3    H1 9105   6.239   6.743   4.274
 3054TIP3    H2 9106   6.204   6.596   4.278
 3055TIP3   OH2 9107   7.100   3.494   3.564
 3055TIP3    H1 9108   7.072   3.585   3.568
 3055TIP3    H2 9109   7.195   3.498   3.556
 3056TIP3   OH2 9110   3.338   1.858   1.803
 3056TIP3    H1 9111   3.408   1.870   1.867
 3056TIP3    H2 9112   3.310   1.947   1.781
 3057TIP3   OH2 9113   7.834   6.752   1.184
 3057TIP3    H1 9114   7.791   6.753   1.269
 3057TIP3    H2 9115   7.784   6.690   1.132
 3058TIP3   OH2 9116   0.214   2.418   0.718
 3058TIP3    H1 9117   0.214   2.474   0.795
 3058TIP3    H2 9118   0.306   2.408   0.695
 3059TIP3   OH2 9119   7.852   7.016   3.018
 3059TIP3    H1 9120   7.850   6.932   3.064
 3059TIP3    H2 9121   7.831   6.995   2.927
 3060TIP3   OH2 9122   7.049   5.117   3.257
 3060TIP3    H1 9123   7.053   5.024   3.279
 3060TIP3    H2 9124   7.068   5.120   3.163
 3061TIP3   OH2 9125   8.130   6.896   4.293
 3061TIP3    H1 9126   8.215   6.851   4.292
 3061TIP3    H2 9127   8.074   6.844   4.235
 3062TIP3   OH2 9128   4.914   5.744   6.029
 3062TIP3    H1 9129   4.827   5.763   6.064
 3062TIP3    H2 9130   4.908   5.653   5.998
 3063TIP3   OH2 9131   2.034   4.320   0.223
 3063TIP3    H1 9132   1.983   4.366   0.157
 3063TIP3    H2 9133   2.025   4.228   0.200
 3064TIP3   OH2 9134   2.827   3.298   5.743
 3064TIP3    H1 9135   2.781   3.222   5.709
 3064TIP3    H2 9136   2.898   3.314   5.681
 3065TIP3   OH2 9137   4.974   6.761   6.014
 3065TIP3    H1 9138   5.022   6.704   5.954
 3065TIP3    H2 9139   4.927   6.821   5.956
 3066TIP3   OH2 9140   6.523   3.606   1.780
 3066TIP3    H1 9141   6.497   3.680   1.835
 3066TIP3    H2 9142   6.581   3.554   1.836
 3067TIP3   OH2 9143   0.988   2.447   5.151
 3067TIP3    H1 9144   0.978   2.541   5.134
 3067TIP3    H2 9145   0.909   2.408   5.112
 3068TIP3   OH2 9146   3.436   1.872   4.871
 3068TIP3    H1 9147   3.514   1.822   4.846
 3068TIP3    H2 9148   3.362   1.815   4.849
 3069TIP3   OH2 9149   1.251   3.284   1.801
 3069TIP3    H1 9150   1.243   3.327   1.886
 3069TIP3    H2 9151   1.325   3.223   1.811
 3070TIP3   OH2 9152   0.548   0.884   1.029
 3070TIP3    H1 9153   0.553   0.790   1.008
 3070TIP3    H2 9154   0.593   0.892   1.114
 3071TIP3   OH2 9155   2.727   2.024   2.200
 3071TIP3    H1 9156   2.796   2.054   2.141
 3071TIP3    H2 9157   2.647   2.029   2.146
 3072TIP3   OH2 9158   0.853   5.017   5.659
 3072TIP3    H1 9159   0.933   4.977   5.623
 3072TIP3    H2 9160   0.849   4.986   5.749
 3073TIP3   OH2 9161   6.736   5.674   0.676
 3073TIP3    H1 9162   6.692   5.745   0.628
 3073TIP3    H2 9163   6.664   5.617   0.704
 3074TIP3   OH2 9164   3.964   6.308   3.742
 3074TIP3    H1 9165   4.009   6.233   3.779
 3074TIP3    H2 9166   4.027   6.345   3.680
 3075TIP3   OH2 9167   2.186   2.967   3.897
 3075TIP3    H1 9168   2.245   3.042   3.911
 3075TIP3    H2 9169   2.244   2.891   3.894
 3076TIP3   OH2 9170   2.475   4.638   2.503
 3076TIP3    H1 9171   2.473   4.571   2.435
 3076TIP3    H2 9172   2.421   4.710   2.467
 3077TIP3   OH2 9173   5.123   7.182   5.314
 3077TIP3    H1 9174   5.119   7.259   5.257
 3077TIP3    H2 9175   5.109   7.216   5.402
 3078TIP3   OH2 9176   7.997   0.524   2.053
 3078TIP3    H1 9177   8.007   0.431   2.036
 3078TIP3    H2 9178   8.059   0.566   1.993
 3079TIP3   OH2 9179   5.293   6.154   3.111
 3079TIP3    H1 9180   5.283   6.161   3.016
 3079TIP3    H2 9181   5.297   6.245   3.141
 3080TIP3   OH2 9182   0.178   4.047   3.259
 3080TIP3    H1 9183   0.097   4.091   3.233
 3080TIP3    H2 9184   0.151   3.957   3.278
 3081TIP3   OH2 9185   3.515   2.176   2.070
 3081TIP3    H1 9186   3.524   2.084   2.048
 3081TIP3    H2 9187   3.599   2.216   2.046
 3082TIP3   OH2 9188   6.825   7.662   1.093
 3082TIP3    H1 9189   6.836   7.669   0.998
 3082TIP3    H2 9190   6.744   7.711   1.110
 3083TIP3   OH2 9191   2.537   2.916   3.736
 3083TIP3    H1 9192   2.619   2.956   3.766
 3083TIP3    H2 9193   2.542   2.825   3.765
 3084TIP3   OH2 9194   1.620   2.505   3.614
 3084TIP3    H1 9195   1.552   2.571   3.622
 3084TIP3    H2 9196   1.577   2.431   3.571
 3085TIP3   OH2 9197   5.911   5.198   2.337
 3085TIP3    H1 9198   5.938   5.121   2.287
 3085TIP3    H2 9199   5.991   5.227   2.381
 3086TIP3   OH2 9200   2.411   5.579   5.869
 3086TIP3    H1 9201   2.331   5.619   5.903
 3086TIP3    H2 9202   2.479   5.603   5.932
 3087TIP3   OH2 9203   4.584   1.514   1.193
 3087TIP3    H1 9204   4.508   1.460   1.170
 3087TIP3    H2 9205   4.630   1.464   1.261
 3088TIP3   OH2 9206   3.208   0.268   4.466
 3088TIP3    H1 9207   3.159   0.329   4.521
 3088TIP3    H2 9208   3.247   0.323   4.398
 3089TIP3   OH2 9209   1.407   2.222   2.001
 3089TIP3    H1 9210   1.453   2.305   1.990
 3089TIP3    H2 9211   1.415   2.178   1.916
 3090TIP3   OH2 9212   4.906   4.815   3.386
 3090TIP3    H1 9213   4.988   4.790   3.428
 3090TIP3    H2 9214   4.880   4.896   3.429
 3091TIP3   OH2 9215   3.140   1.120   1.683
 3091TIP3    H1 9216   3.095   1.037   1.697
 3091TIP3    H2 9217   3.077   1.173   1.635
 3092TIP3   OH2 9218   2.702   5.415   5.098
 3092TIP3    H1 9219   2.764   5.484   5.125
 3092TIP3    H2 9220   2.620   5.462   5.084
 3093TIP3   OH2 9221   7.419   4.183   0.299
 3093TIP3    H1 9222   7.480   4.177   0.373
 3093TIP3    H2 9223   7.347   4.126   0.323
 3094TIP3   OH2 9224   5.845   2.850   0.583
 3094TIP3    H1 9225   5.900   2.812   0.514
 3094TIP3    H2 9226   5.845   2.944   0.566
 3095TIP3   OH2 9227   4.129   4.659   4.556
 3095TIP3    H1 9228   4.133   4.703   4.471
 3095TIP3    H2 9229   4.175   4.718   4.616
 3096TIP3   OH2 9230   1.254   5.000   1.148
 3096TIP3    H1 9231   1.227   4.982   1.238
 3096TIP3    H2 9232   1.283   4.915   1.115
 3097TIP3   OH2 9233   0.079   5.952   3.723
 3097TIP3    H1 9234   0.048   5.930   3.811
 3097TIP3    H2 9235   0.083   6.047   3.722
 3098TIP3   OH2 9236   3.073   0.321   1.253
 3098TIP3    H1 9237   3.064   0.247   1.193
 3098TIP3    H2 9238   3.098   0.395   1.197
 3099TIP3   OH2 9239   4.676   1.455   0.304
 3099TIP3    H1 9240   4.622   1.380   0.328
 3099TIP3    H2 9241   4.697   1.441   0.211
 3100TIP3   OH2 9242   2.185   0.664   2.158
 3100TIP3    H1 9243   2.162   0.664   2.066
 3100TIP3    H2 9244   2.279   0.682   2.159
 3101TIP3   OH2 9245   1.402   1.158   0.985
 3101TIP3    H1 9246   1.419   1.136   0.894
 3101TIP3    H2 9247   1.488   1.179   1.021
 3102TIP3   OH2 9248   0.894   2.311   1.973
 3102TIP3    H1 9249   0.905   2.248   2.044
 3102TIP3    H2 9250   0.847   2.384   2.013
 3103TIP3   OH2 9251   8.211   5.360   2.214
 3103TIP3    H1 9252   8.221   5.386   2.306
 3103TIP3    H2 9253   8.295   5.321   2.190
 3104TIP3   OH2 9254   6.078   5.123   2.575
 3104TIP3    H1 9255   6.077   5.042   2.524
 3104TIP3    H2 9256   6.160   5.166   2.551
 3105TIP3   OH2 9257   2.578   1.554   0.741
 3105TIP3    H1 9258   2.643   1.526   0.805
 3105TIP3    H2 9259   2.506   1.492   0.751
 3106TIP3   OH2 9260   7.015   5.935   3.692
 3106TIP3    H1 9261   7.044   6.010   3.744
 3106TIP3    H2 9262   7.086   5.919   3.630
 3107TIP3   OH2 9263   0.272   0.611   6.392
 3107TIP3    H1 9264   0.238   0.659   6.316
 3107TIP3    H2 9265   0.356   0.652   6.410
 3108TIP3   OH2 9266   5.227   5.906   3.210
 3108TIP3    H1 9267   5.275   5.918   3.292
 3108TIP3    H2 9268   5.231   5.992   3.167
 3109TIP3   OH2 9269   6.290   6.399   3.870
 3109TIP3    H1 9270   6.201   6.368   3.886
 3109TIP3    H2 9271   6.331   6.400   3.956
 3110TIP3   OH2 9272   2.735   4.071   4.643
 3110TIP3    H1 9273   2.767   4.104   4.559
 3110TIP3    H2 9274   2.662   4.014   4.620
 3111TIP3   OH2 9275   7.359   3.221   3.146
 3111TIP3    H1 9276   7.337   3.167   3.070
 3111TIP3    H2 9277   7.274   3.240   3.187
 3112TIP3   OH2 9278   1.201   7.729   4.333
 3112TIP3    H1 9279   1.272   7.791   4.321
 3112TIP3    H2 9280   1.132   7.779   4.377
 3113TIP3   OH2 9281   7.238   2.472   2.047
 3113TIP3    H1 9282   7.147   2.486   2.073
 3113TIP3    H2 9283   7.288   2.483   2.127
 3114TIP3   OH2 9284   6.025   0.516   5.196
 3114TIP3    H1 9285   6.052   0.425   5.202
 3114TIP3    H2 9286   5.966   0.519   5.121
 3115TIP3   OH2 9287   0.889   1.449   2.715
 3115TIP3    H1 9288   0.831   1.522   2.691
 3115TIP3    H2 9289   0.976   1.490   2.723
 3116TIP3   OH2 9290   8.011   7.239   2.830
 3116TIP3    H1 9291   8.014   7.328   2.794
 3116TIP3    H2 9292   8.049   7.246   2.917
 3117TIP3   OH2 9293   0.798   0.747   4.852
 3117TIP3    H1 9294   0.859   0.750   4.926
 3117TIP3    H2 9295   0.757   0.661   4.858
 3118TIP3   OH2 9296   5.240   7.578   4.494
 3118TIP3    H1 9297   5.331   7.600   4.479
 3118TIP3    H2 9298   5.191   7.654   4.462
 3119TIP3   OH2 9299   1.848   1.267   3.184
 3119TIP3    H1 9300   1.889   1.330   3.125
 3119TIP3    H2 9301   1.906   1.191   3.182
 3120TIP3   OH2 9302   6.290   3.216   6.555
 3120TIP3    H1 9303   6.299   3.243   6.646
 3120TIP3    H2 9304   6.298   3.297   6.505
 3121TIP3   OH2 9305   4.341   1.338   0.379
 3121TIP3    H1 9306   4.269   1.281   0.406
 3121TIP3    H2 9307   4.302   1.400   0.318
 3122TIP3   OH2 9308   4.568   7.824   2.369
 3122TIP3    H1 9309   4.500   7.797   2.431
 3122TIP3    H2 9310   4.632   7.753   2.372
 3123TIP3   OH2 9311   4.027   2.049   0.729
 3123TIP3    H1 9312   4.098   2.031   0.791
 3123TIP3    H2 9313   4.029   1.975   0.668
 3124TIP3   OH2 9314   2.320   0.263   2.593
 3124TIP3    H1 9315   2.293   0.202   2.661
 3124TIP3    H2 9316   2.240   0.312   2.571
 3125TIP3   OH2 9317   7.852   4.321   2.083
 3125TIP3    H1 9318   7.797   4.359   2.014
 3125TIP3    H2 9319   7.792   4.311   2.157
 3126TIP3   OH2 9320   3.456   4.181   3.362
 3126TIP3    H1 9321   3.472   4.201   3.454
 3126TIP3    H2 9322   3.530   4.126   3.336
 3127TIP3   OH2 9323   2.609   0.457   6.129
 3127TIP3    H1 9324   2.676   0.519   6.159
 3127TIP3    H2 9325   2.657   0.377   6.108
 3128TIP3   OH2 9326   6.218   0.317   3.884
 3128TIP3    H1 9327   6.176   0.387   3.834
 3128TIP3    H2 9328   6.166   0.239   3.865
 3129TIP3   OH2 9329   6.887   7.215   0.793
 3129TIP3    H1 9330   6.939   7.274   0.848
 3129TIP3    H2 9331   6.933   7.131   0.799
 3130TIP3   OH2 9332   2.074   7.484   5.431
 3130TIP3    H1 9333   2.115   7.486   5.345
 3130TIP3    H2 9334   1.982   7.506   5.416
 3131TIP3   OH2 9335   5.532   1.288   1.772
 3131TIP3    H1 9336   5.508   1.349   1.841
 3131TIP3    H2 9337   5.619   1.316   1.743
 3132TIP3   OH2 9338   4.155   5.032   3.428
 3132TIP3    H1 9339   4.096   5.021   3.503
 3132TIP3    H2 9340   4.241   5.048   3.467
 3133TIP3   OH2 9341   6.187   1.710   6.174
 3133TIP3    H1 9342   6.233   1.694   6.092
 3133TIP3    H2 9343   6.096   1.725   6.148
 3134TIP3   OH2 9344   6.447   4.511   1.803
 3134TIP3    H1 9345   6.526   4.530   1.752
 3134TIP3    H2 9346   6.416   4.427   1.767
 3135TIP3   OH2 9347   4.657   6.713   0.259
 3135TIP3    H1 9348   4.680   6.725   0.351
 3135TIP3    H2 9349   4.703   6.633   0.233
 3136TIP3   OH2 9350   8.137   0.590   0.732
 3136TIP3    H1 9351   8.100   0.642   0.660
 3136TIP3    H2 9352   8.061   0.548   0.772
 3137TIP3   OH2 9353   2.356   6.015   5.654
 3137TIP3    H1 9354   2.317   5.927   5.654
 3137TIP3    H2 9355   2.333   6.051   5.568
 3138TIP3   OH2 9356   6.922   5.944   4.908
 3138TIP3    H1 9357   6.853   6.007   4.927
 3138TIP3    H2 9358   6.981   5.990   4.849
 3139TIP3   OH2 9359   3.525   6.699   1.131
 3139TIP3    H1 9360   3.524   6.740   1.217
 3139TIP3    H2 9361   3.457   6.632   1.136
 3140TIP3   OH2 9362   6.647   2.661   1.832
 3140TIP3    H1 9363   6.718   2.623   1.781
 3140TIP3    H2 9364   6.681   2.744   1.864
 3141TIP3   OH2 9365   3.785   6.005   2.369
 3141TIP3    H1 9366   3.779   6.060   2.291
 3141TIP3    H2 9367   3.879   5.993   2.383
 3142TIP3   OH2 9368   7.502   7.658   1.032
 3142TIP3    H1 9369   7.567   7.670   0.962
 3142TIP3    H2 9370   7.539   7.705   1.106
 3143TIP3   OH2 9371   4.202   2.351   0.666
 3143TIP3    H1 9372   4.209   2.402   0.585
 3143TIP3    H2 9373   4.115   2.372   0.700
 3144TIP3   OH2 9374   6.042   6.273   3.197
 3144TIP3    H1 9375   6.028   6.260   3.291
 3144TIP3    H2 9376   6.136   6.289   3.189
 3145TIP3   OH2 9377   4.917   2.327   5.566
 3145TIP3    H1 9378   4.946   2.289   5.649
 3145TIP3    H2 9379   4.996   2.334   5.513
 3146TIP3   OH2 9380   2.511   5.967   2.263
 3146TIP3    H1 9381   2.509   5.951   2.357
 3146TIP3    H2 9382   2.449   6.038   2.249
 3147TIP3   OH2 9383   8.045   2.344   2.660
 3147TIP3    H1 9384   8.055   2.406   2.587
 3147TIP3    H2 9385   8.091   2.385   2.733
 3148TIP3   OH2 9386   3.570   1.728   0.844
 3148TIP3    H1 9387   3.574   1.811   0.797
 3148TIP3    H2 9388   3.645   1.730   0.904
 3149TIP3   OH2 9389   7.874   6.092   6.315
 3149TIP3    H1 9390   7.795   6.081   6.368
 3149TIP3    H2 9391   7.843   6.093   6.224
 3150TIP3   OH2 9392   1.929   5.154   0.512
 3150TIP3    H1 9393   1.869   5.219   0.473
 3150TIP3    H2 9394   1.887   5.127   0.593
 3151TIP3   OH2 9395   0.867   7.805   2.454
 3151TIP3    H1 9396   0.914   7.822   2.372
 3151TIP3    H2 9397   0.837   7.714   2.445
 3152TIP3   OH2 9398   0.302   3.351   2.371
 3152TIP3    H1 9399   0.320   3.261   2.343
 3152TIP3    H2 9400   0.388   3.387   2.392
 3153TIP3   OH2 9401   7.726   1.831   4.850
 3153TIP3    H1 9402   7.756   1.873   4.770
 3153TIP3    H2 9403   7.767   1.882   4.920
 3154TIP3   OH2 9404   2.725   7.066   3.228
 3154TIP3    H1 9405   2.737   7.147   3.277
 3154TIP3    H2 9406   2.644   7.029   3.263
 3155TIP3   OH2 9407   2.195   2.628   2.678
 3155TIP3    H1 9408   2.138   2.634   2.601
 3155TIP3    H2 9409   2.277   2.593   2.644
 3156TIP3   OH2 9410   7.803   0.281   4.259
 3156TIP3    H1 9411   7.803   0.377   4.262
 3156TIP3    H2 9412   7.781   0.255   4.349
 3157TIP3   OH2 9413   1.021   0.891   4.270
 3157TIP3    H1 9414   1.077   0.828   4.315
 3157TIP3    H2 9415   1.072   0.916   4.193
 3158TIP3   OH2 9416   0.660   0.856   0.394
 3158TIP3    H1 9417   0.696   0.830   0.309
 3158TIP3    H2 9418   0.642   0.773   0.439
 3159TIP3   OH2 9419   6.705   2.677   4.111
 3159TIP3    H1 9420   6.748   2.695   4.195
 3159TIP3    H2 9421   6.614   2.701   4.126
 3160TIP3   OH2 9422   8.152   1.695   5.370
 3160TIP3    H1 9423   8.181   1.681   5.460
 3160TIP3    H2 9424   8.122   1.786   5.369
 3161TIP3   OH2 9425   1.467   6.919   6.603
 3161TIP3    H1 9426   1.530   6.990   6.610
 3161TIP3    H2 9427   1.456   6.888   6.693
 3162TIP3   OH2 9428   7.391   6.334   5.584
 3162TIP3    H1 9429   7.432   6.247   5.586
 3162TIP3    H2 9430   7.361   6.348   5.673
 3163TIP3   OH2 9431   3.353   2.598   5.778
 3163TIP3    H1 9432   3.276   2.643   5.812
 3163TIP3    H2 9433   3.323   2.556   5.698
 3164TIP3   OH2 9434   7.796   1.466   1.984
 3164TIP3    H1 9435   7.716   1.413   1.984
 3164TIP3    H2 9436   7.867   1.402   1.985
 3165TIP3   OH2 9437   0.530   5.573   0.510
 3165TIP3    H1 9438   0.535   5.537   0.599
 3165TIP3    H2 9439   0.504   5.499   0.456
 3166TIP3   OH2 9440   4.853   4.288   0.787
 3166TIP3    H1 9441   4.943   4.296   0.818
 3166TIP3    H2 9442   4.858   4.312   0.694
 3167TIP3   OH2 9443   5.776   2.309   3.985
 3167TIP3    H1 9444   5.774   2.253   3.907
 3167TIP3    H2 9445   5.766   2.398   3.952
 3168TIP3   OH2 9446   2.174   2.072   4.858
 3168TIP3    H1 9447   2.167   2.120   4.775
 3168TIP3    H2 9448   2.094   2.096   4.906
 3169TIP3   OH2 9449   7.442   5.899   5.063
 3169TIP3    H1 9450   7.537   5.905   5.053
 3169TIP3    H2 9451   7.423   5.806   5.060
 3170TIP3   OH2 9452   7.039   0.056   6.622
 3170TIP3    H1 9453   6.975  -0.012   6.639
 3170TIP3    H2 9454   7.018   0.125   6.685
 3171TIP3   OH2 9455   7.136   7.121   0.967
 3171TIP3    H1 9456   7.146   7.050   0.904
 3171TIP3    H2 9457   7.185   7.194   0.929
 3172TIP3   OH2 9458   7.018   6.370   3.084
 3172TIP3    H1 9459   6.949   6.403   3.026
 3172TIP3    H2 9460   7.088   6.341   3.025
 3173TIP3   OH2 9461   6.264   0.333   3.230
 3173TIP3    H1 9462   6.196   0.314   3.166
 3173TIP3    H2 9463   6.345   0.336   3.179
 3174TIP3   OH2 9464   3.897   0.726   3.620
 3174TIP3    H1 9465   3.899   0.685   3.533
 3174TIP3    H2 9466   3.805   0.749   3.633
 3175TIP3   OH2 9467   6.484   1.447   5.995
 3175TIP3    H1 9468   6.561   1.419   5.946
 3175TIP3    H2 9469   6.506   1.430   6.086
 3176TIP3   OH2 9470   3.929   6.998   4.604
 3176TIP3    H1 9471   3.989   7.062   4.640
 3176TIP3    H2 9472   3.977   6.957   4.532
 3177TIP3   OH2 9473   2.812   5.838   0.028
 3177TIP3    H1 9474   2.802   5.751   0.067
 3177TIP3    H2 9475   2.806   5.898   0.102
 3178TIP3   OH2 9476   3.472   2.608   1.008
 3178TIP3    H1 9477   3.489   2.651   0.924
 3178TIP3    H2 9478   3.535   2.648   1.068
 3179TIP3   OH2 9479   3.403   5.558   2.514
 3179TIP3    H1 9480   3.344   5.490   2.479
 3179TIP3    H2 9481   3.454   5.512   2.580
 3180TIP3   OH2 9482   5.357   7.090   5.998
 3180TIP3    H1 9483   5.279   7.138   5.968
 3180TIP3    H2 9484   5.420   7.158   6.022
 3181TIP3   OH2 9485   1.405   5.637   1.038
 3181TIP3    H1 9486   1.397   5.717   1.089
 3181TIP3    H2 9487   1.480   5.591   1.076
 3182TIP3   OH2 9488   6.363   1.544   5.697
 3182TIP3    H1 9489   6.417   1.580   5.767
 3182TIP3    H2 9490   6.352   1.452   5.720
 3183TIP3   OH2 9491   2.063   6.137   0.505
 3183TIP3    H1 9492   2.011   6.177   0.435
 3183TIP3    H2 9493   2.150   6.127   0.467
 3184TIP3   OH2 9494   6.528   0.705   0.754
 3184TIP3    H1 9495   6.568   0.714   0.667
 3184TIP3    H2 9496   6.582   0.640   0.799
 3185TIP3   OH2 9497   6.819   5.782   2.351
 3185TIP3    H1 9498   6.890   5.788   2.287
 3185TIP3    H2 9499   6.863   5.790   2.436
 3186TIP3   OH2 9500   7.940   6.689   4.741
 3186TIP3    H1 9501   7.959   6.783   4.735
 3186TIP3    H2 9502   7.969   6.654   4.657
 3187TIP3   OH2 9503   3.053   5.567   0.514
 3187TIP3    H1 9504   2.970   5.614   0.521
 3187TIP3    H2 9505   3.071   5.563   0.420
 3188TIP3   OH2 9506   0.336   6.409   5.082
 3188TIP3    H1 9507   0.324   6.360   5.000
 3188TIP3    H2 9508   0.305   6.497   5.062
 3189TIP3   OH2 9509   3.348   3.754   0.519
 3189TIP3    H1 9510   3.442   3.745   0.503
 3189TIP3    H2 9511   3.308   3.684   0.467
 3190TIP3   OH2 9512   1.360   5.621   2.652
 3190TIP3    H1 9513   1.328   5.539   2.614
 3190TIP3    H2 9514   1.373   5.600   2.745
 3191TIP3   OH2 9515   5.548   3.780   0.978
 3191TIP3    H1 9516   5.582   3.844   1.041
 3191TIP3    H2 9517   5.608   3.784   0.904
 3192TIP3   OH2 9518   6.968   1.857   6.222
 3192TIP3    H1 9519   6.924   1.775   6.245
 3192TIP3    H2 9520   6.930   1.882   6.138
 3193TIP3   OH2 9521   7.936   0.399   0.485
 3193TIP3    H1 9522   8.031   0.405   0.474
 3193TIP3    H2 9523   7.923   0.395   0.580
 3194TIP3   OH2 9524   0.298   4.143   4.916
 3194TIP3    H1 9525   0.215   4.106   4.886
 3194TIP3    H2 9526   0.351   4.150   4.837
 3195TIP3   OH2 9527   7.750   0.975   2.199
 3195TIP3    H1 9528   7.676   1.035   2.184
 3195TIP3    H2 9529   7.710   0.897   2.238
 3196TIP3   OH2 9530   3.753   3.449   4.886
 3196TIP3    H1 9531   3.658   3.443   4.876
 3196TIP3    H2 9532   3.785   3.472   4.799
 3197TIP3   OH2 9533   1.806   0.086   1.913
 3197TIP3    H1 9534   1.735   0.082   1.976
 3197TIP3    H2 9535   1.768   0.130   1.837
 3198TIP3   OH2 9536   6.156   4.432   4.249
 3198TIP3    H1 9537   6.178   4.521   4.221
 3198TIP3    H2 9538   6.072   4.442   4.293
 3199TIP3   OH2 9539   6.780   1.558   1.961
 3199TIP3    H1 9540   6.739   1.636   1.923
 3199TIP3    H2 9541   6.871   1.563   1.933
 3200TIP3   OH2 9542   4.821   4.501   4.883
 3200TIP3    H1 9543   4.765   4.527   4.955
 3200TIP3    H2 9544   4.813   4.572   4.819
 3201TIP3   OH2 9545   5.196   3.909   3.328
 3201TIP3    H1 9546   5.135   3.891   3.256
 3201TIP3    H2 9547   5.151   3.975   3.381
 3202TIP3   OH2 9548   4.073   3.382   1.384
 3202TIP3    H1 9549   4.066   3.470   1.347
 3202TIP3    H2 9550   4.047   3.323   1.313
 3203TIP3   OH2 9551   6.017   6.172   1.119
 3203TIP3    H1 9552   6.017   6.185   1.024
 3203TIP3    H2 9553   6.091   6.114   1.135
 3204TIP3   OH2 9554   3.285   1.848   5.251
 3204TIP3    H1 9555   3.259   1.907   5.322
 3204TIP3    H2 9556   3.376   1.828   5.268
 3205TIP3   OH2 9557   4.403   3.000   5.278
 3205TIP3    H1 9558   4.424   2.944   5.353
 3205TIP3    H2 9559   4.349   3.070   5.314
 3206TIP3   OH2 9560   4.653   5.450   1.500
 3206TIP3    H1 9561   4.561   5.457   1.473
 3206TIP3    H2 9562   4.673   5.357   1.493
 3207TIP3   OH2 9563   2.084   1.505   1.620
 3207TIP3    H1 9564   2.104   1.539   1.532
 3207TIP3    H2 9565   2.047   1.579   1.666
 3208TIP3   OH2 9566   6.401   1.370   0.195
 3208TIP3    H1 9567   6.489   1.334   0.190
 3208TIP3    H2 9568   6.354   1.312   0.255
 3209TIP3   OH2 9569   7.615   3.282   6.441
 3209TIP3    H1 9570   7.637   3.325   6.523
 3209TIP3    H2 9571   7.691   3.299   6.384
 3210TIP3   OH2 9572   6.371   0.817   1.499
 3210TIP3    H1 9573   6.465   0.822   1.517
 3210TIP3    H2 9574   6.362   0.845   1.408
 3211TIP3   OH2 9575   3.488   0.070   6.626
 3211TIP3    H1 9576   3.506   0.138   6.561
 3211TIP3    H2 9577   3.461   0.119   6.704
 3212TIP3   OH2 9578   3.043   0.337   2.038
 3212TIP3    H1 9579   3.052   0.333   1.942
 3212TIP3    H2 9580   3.034   0.246   2.065
 3213TIP3   OH2 9581   1.377   3.884   0.836
 3213TIP3    H1 9582   1.352   3.794   0.816
 3213TIP3    H2 9583   1.398   3.922   0.751
 3214TIP3   OH2 9584   1.926   0.737   0.525
 3214TIP3    H1 9585   1.850   0.741   0.583
 3214TIP3    H2 9586   1.989   0.798   0.563
 3215TIP3   OH2 9587   1.946   5.959   2.419
 3215TIP3    H1 9588   1.973   5.875   2.382
 3215TIP3    H2 9589   1.992   5.964   2.503
 3216TIP3   OH2 9590   7.795   7.276   5.408
 3216TIP3    H1 9591   7.747   7.291   5.489
 3216TIP3    H2 9592   7.884   7.307   5.425
 3217TIP3   OH2 9593   6.016   2.562   3.404
 3217TIP3    H1 9594   5.952   2.524   3.464
 3217TIP3    H2 9595   5.980   2.544   3.317
 3218TIP3   OH2 9596   2.391   1.030   3.421
 3218TIP3    H1 9597   2.408   1.026   3.326
 3218TIP3    H2 9598   2.378   0.939   3.447
 3219TIP3   OH2 9599   8.092   2.032   3.174
 3219TIP3    H1 9600   8.107   1.976   3.097
 3219TIP3    H2 9601   8.171   2.023   3.226
 3220TIP3   OH2 9602   5.679   0.545   4.038
 3220TIP3    H1 9603   5.697   0.616   4.100
 3220TIP3    H2 9604   5.669   0.588   3.954
 3221TIP3   OH2 9605   6.692   1.301   4.842
 3221TIP3    H1 9606   6.744   1.358   4.899
 3221TIP3    H2 9607   6.631   1.257   4.902
 3222TIP3   OH2 9608   6.229   1.789   3.731
 3222TIP3    H1 9609   6.267   1.787   3.643
 3222TIP3    H2 9610   6.230   1.698   3.760
 3223TIP3   OH2 9611   5.986   4.627   3.946
 3223TIP3    H1 9612   5.993   4.653   3.854
 3223TIP3    H2 9613   5.904   4.577   3.950
 3224TIP3   OH2 9614   0.274   5.464   4.432
 3224TIP3    H1 9615   0.251   5.422   4.515
 3224TIP3    H2 9616   0.346   5.411   4.397
 3225TIP3   OH2 9617   7.280   5.307   5.989
 3225TIP3    H1 9618   7.363   5.259   5.991
 3225TIP3    H2 9619   7.231   5.268   5.916
 3226TIP3   OH2 9620   3.897   3.074   6.207
 3226TIP3    H1 9621   3.977   3.023   6.220
 3226TIP3    H2 9622   3.826   3.010   6.206
 3227TIP3   OH2 9623   5.940   0.829   2.543
 3227TIP3    H1 9624   5.974   0.909   2.504
 3227TIP3    H2 9625   5.928   0.851   2.636
 3228TIP3   OH2 9626   3.501   1.771   5.395
 3228TIP3    H1 9627   3.474   1.803   5.482
 3228TIP3    H2 9628   3.584   1.726   5.411
 3229TIP3   OH2 9629   7.184   6.374   2.129
 3229TIP3    H1 9630   7.215   6.325   2.053
 3229TIP3    H2 9631   7.261   6.420   2.161
 3230TIP3   OH2 9632   7.665   4.455   2.672
 3230TIP3    H1 9633   7.598   4.476   2.606
 3230TIP3    H2 9634   7.733   4.409   2.624
 3231TIP3   OH2 9635   7.746   6.997   4.073
 3231TIP3    H1 9636   7.762   6.947   3.993
 3231TIP3    H2 9637   7.691   7.070   4.044
 3232TIP3   OH2 9638   8.120   6.593   1.227
 3232TIP3    H1 9639   8.151   6.683   1.232
 3232TIP3    H2 9640   8.193   6.540   1.258
 3233TIP3   OH2 9641   3.885   4.015   2.793
 3233TIP3    H1 9642   3.893   3.920   2.800
 3233TIP3    H2 9643   3.845   4.041   2.876
 3234TIP3   OH2 9644   3.368   3.659   1.133
 3234TIP3    H1 9645   3.366   3.570   1.170
 3234TIP3    H2 9646   3.428   3.653   1.059
 3235TIP3   OH2 9647   1.303   3.570   3.745
 3235TIP3    H1 9648   1.336   3.545   3.832
 3235TIP3    H2 9649   1.380   3.564   3.689
 3236TIP3   OH2 9650   8.095   3.990   2.000
 3236TIP3    H1 9651   8.181   3.960   2.027
 3236TIP3    H2 9652   8.100   3.995   1.905
 3237TIP3   OH2 9653   5.013   5.223   3.944
 3237TIP3    H1 9654   5.082   5.172   3.986
 3237TIP3    H2 9655   4.933   5.175   3.963
 3238TIP3   OH2 9656   2.990   4.092   2.758
 3238TIP3    H1 9657   2.922   4.066   2.695
 3238TIP3    H2 9658   3.066   4.112   2.703
 3239TIP3   OH2 9659   6.389   0.007   0.222
 3239TIP3    H1 9660   6.411   0.046   0.306
 3239TIP3    H2 9661   6.428   0.066   0.157
 3240TIP3   OH2 9662   6.026   5.228   1.148
 3240TIP3    H1 9663   6.068   5.193   1.070
 3240TIP3    H2 9664   5.937   5.193   1.146
 3241TIP3   OH2 9665   5.294   3.733   0.818
 3241TIP3    H1 9666   5.358   3.707   0.751
 3241TIP3    H2 9667   5.326   3.693   0.899
 3242TIP3   OH2 9668   2.640   3.665   5.194
 3242TIP3    H1 9669   2.678   3.701   5.274
 3242TIP3    H2 9670   2.677   3.718   5.123
 3243TIP3   OH2 9671   6.987   5.455   1.195
 3243TIP3    H1 9672   7.075   5.418   1.191
 3243TIP3    H2 9673   6.990   5.516   1.269
 3244TIP3   OH2 9674   2.207   6.269   6.122
 3244TIP3    H1 9675   2.230   6.351   6.077
 3244TIP3    H2 9676   2.278   6.209   6.101
 3245TIP3   OH2 9677   4.753   5.722   0.475
 3245TIP3    H1 9678   4.826   5.686   0.526
 3245TIP3    H2 9679   4.727   5.801   0.523
 3246TIP3   OH2 9680   0.320   7.185   1.421
 3246TIP3    H1 9681   0.232   7.194   1.456
 3246TIP3    H2 9682   0.376   7.167   1.497
 3247TIP3   OH2 9683   7.816   7.694   4.034
 3247TIP3    H1 9684   7.818   7.663   4.124
 3247TIP3    H2 9685   7.724   7.691   4.009
 3248TIP3   OH2 9686   2.382   7.032   5.060
 3248TIP3    H1 9687   2.318   7.018   5.129
 3248TIP3    H2 9688   2.453   7.081   5.102
 3249TIP3   OH2 9689   6.333   5.692   5.302
 3249TIP3    H1 9690   6.404   5.749   5.272
 3249TIP3    H2 9691   6.375   5.607   5.316
 3250TIP3   OH2 9692   3.673   1.722   5.026
 3250TIP3    H1 9693   3.612   1.666   5.074
 3250TIP3    H2 9694   3.716   1.664   4.964
 3251TIP3   OH2 9695   8.046   4.362   2.672
 3251TIP3    H1 9696   8.068   4.389   2.761
 3251TIP3    H2 9697   7.952   4.374   2.665
 3252TIP3   OH2 9698   4.906   6.389   3.475
 3252TIP3    H1 9699   4.998   6.366   3.461
 3252TIP3    H2 9700   4.893   6.381   3.569
 3253TIP3   OH2 9701   0.459   1.761   2.474
 3253TIP3    H1 9702   0.387   1.739   2.415
 3253TIP3    H2 9703   0.477   1.681   2.523
 3254TIP3   OH2 9704   7.296   3.043   3.529
 3254TIP3    H1 9705   7.205   3.074   3.528
 3254TIP3    H2 9706   7.344   3.110   3.481
 3255TIP3   OH2 9707   5.985   0.170   4.515
 3255TIP3    H1 9708   5.984   0.220   4.434
 3255TIP3    H2 9709   6.066   0.118   4.510
 3256TIP3   OH2 9710   3.567   5.685   1.788
 3256TIP3    H1 9711   3.618   5.604   1.776
 3256TIP3    H2 9712   3.478   5.654   1.806
 3257TIP3   OH2 9713   4.597   4.678   4.879
 3257TIP3    H1 9714   4.554   4.679   4.965
 3257TIP3    H2 9715   4.525   4.669   4.817
 3258TIP3   OH2 9716   0.365   0.199   4.946
 3258TIP3    H1 9717   0.459   0.179   4.941
 3258TIP3    H2 9718   0.353   0.269   4.882
 3259TIP3   OH2 9719   5.872   6.309   3.696
 3259TIP3    H1 9720   5.785   6.298   3.733
 3259TIP3    H2 9721   5.901   6.394   3.728
 3260TIP3   OH2 9722   4.583   7.837   3.858
 3260TIP3    H1 9723   4.505   7.808   3.905
 3260TIP3    H2 9724   4.603   7.765   3.799
 3261TIP3   OH2 9725   2.427   4.211   5.026
 3261TIP3    H1 9726   2.488   4.199   4.953
 3261TIP3    H2 9727   2.358   4.146   5.011
 3262TIP3   OH2 9728   1.196   5.293   4.399
 3262TIP3    H1 9729   1.123   5.247   4.440
 3262TIP3    H2 9730   1.169   5.304   4.308
 3263TIP3   OH2 9731   6.665   6.076   4.426
 3263TIP3    H1 9732   6.600   6.021   4.383
 3263TIP3    H2 9733   6.744   6.066   4.373
 3264TIP3   OH2 9734   3.021   5.081   3.194
 3264TIP3    H1 9735   2.946   5.055   3.248
 3264TIP3    H2 9736   3.065   4.999   3.174
 3265TIP3   OH2 9737   4.697   4.268   1.174
 3265TIP3    H1 9738   4.655   4.183   1.188
 3265TIP3    H2 9739   4.699   4.277   1.079
 3266TIP3   OH2 9740   0.725   1.306   3.825
 3266TIP3    H1 9741   0.715   1.385   3.773
 3266TIP3    H2 9742   0.813   1.311   3.861
 3267TIP3   OH2 9743   6.096   4.384   3.807
 3267TIP3    H1 9744   6.074   4.461   3.755
 3267TIP3    H2 9745   6.039   4.389   3.884
 3268TIP3   OH2 9746   4.689   0.678   0.169
 3268TIP3    H1 9747   4.601   0.692   0.134
 3268TIP3    H2 9748   4.687   0.589   0.204
 3269TIP3   OH2 9749   6.765   2.593   1.245
 3269TIP3    H1 9750   6.790   2.649   1.319
 3269TIP3    H2 9751   6.791   2.644   1.168
 3270TIP3   OH2 9752   7.130   4.956   1.475
 3270TIP3    H1 9753   7.210   4.934   1.521
 3270TIP3    H2 9754   7.160   4.989   1.390
 3271TIP3   OH2 9755   6.870   2.216   5.387
 3271TIP3    H1 9756   6.945   2.244   5.439
 3271TIP3    H2 9757   6.884   2.256   5.301
 3272TIP3   OH2 9758   2.257   1.952   6.302
 3272TIP3    H1 9759   2.306   1.967   6.220
 3272TIP3    H2 9760   2.256   1.857   6.312
 3273TIP3   OH2 9761   1.066   0.348   2.306
 3273TIP3    H1 9762   0.977   0.314   2.309
 3273TIP3    H2 9763   1.056   0.443   2.297
 3274TIP3   OH2 9764   1.759   4.118   4.565
 3274TIP3    H1 9765   1.694   4.141   4.631
 3274TIP3    H2 9766   1.795   4.201   4.536
 3275TIP3   OH2 9767   3.339   3.471   2.069
 3275TIP3    H1 9768   3.392   3.416   2.126
 3275TIP3    H2 9769   3.311   3.413   1.998
 3276TIP3   OH2 9770   3.302   1.984   0.052
 3276TIP3    H1 9771   3.337   2.073   0.061
 3276TIP3    H2 9772   3.279   1.976  -0.041
 3277TIP3   OH2 9773   4.294   6.044   6.419
 3277TIP3    H1 9774   4.332   5.972   6.368
 3277TIP3    H2 9775   4.332   6.123   6.382
 3278TIP3   OH2 9776   7.207   5.305   6.685
 3278TIP3    H1 9777   7.210   5.400   6.678
 3278TIP3    H2 9778   7.296   5.276   6.666
 3279TIP3   OH2 9779   4.446   5.092   1.391
 3279TIP3    H1 9780   4.524   5.092   1.446
 3279TIP3    H2 9781   4.380   5.138   1.443
 3280TIP3   OH2 9782   0.685   6.063   0.965
 3280TIP3    H1 9783   0.757   6.003   0.982
 3280TIP3    H2 9784   0.698   6.093   0.875
 3281TIP3   OH2 9785   4.812   7.685   0.720
 3281TIP3    H1 9786   4.812   7.638   0.637
 3281TIP3    H2 9787   4.820   7.778   0.695
 3282TIP3   OH2 9788   2.221   2.718   0.548
 3282TIP3    H1 9789   2.248   2.809   0.533
 3282TIP3    H2 9790   2.302   2.668   0.538
 3283TIP3   OH2 9791   4.742   7.462   5.780
 3283TIP3    H1 9792   4.665   7.405   5.768
 3283TIP3    H2 9793   4.726   7.507   5.863
 3284TIP3   OH2 9794   1.072   5.816   0.008
 3284TIP3    H1 9795   1.139   5.840  -0.056
 3284TIP3    H2 9796   1.028   5.899   0.029
 3285TIP3   OH2 9797   0.585   1.441   4.359
 3285TIP3    H1 9798   0.605   1.506   4.291
 3285TIP3    H2 9799   0.647   1.370   4.341
 3286TIP3   OH2 9800   0.206   4.362   4.292
 3286TIP3    H1 9801   0.132   4.403   4.337
 3286TIP3    H2 9802   0.193   4.386   4.200
 3287TIP3   OH2 9803   4.467   5.019   6.485
 3287TIP3    H1 9804   4.477   5.114   6.494
 3287TIP3    H2 9805   4.513   4.998   6.404
 3288TIP3   OH2 9806   7.867   0.166   0.310
 3288TIP3    H1 9807   7.795   0.151   0.249
 3288TIP3    H2 9808   7.843   0.246   0.357
 3289TIP3   OH2 9809   6.246   1.244   3.217
 3289TIP3    H1 9810   6.326   1.203   3.251
 3289TIP3    H2 9811   6.202   1.278   3.295
 3290TIP3   OH2 9812   4.138   5.365   3.014
 3290TIP3    H1 9813   4.113   5.288   3.065
 3290TIP3    H2 9814   4.119   5.439   3.073
 3291TIP3   OH2 9815   1.281   7.412   2.582
 3291TIP3    H1 9816   1.202   7.457   2.614
 3291TIP3    H2 9817   1.349   7.479   2.583
 3292TIP3   OH2 9818   7.541   6.236   0.039
 3292TIP3    H1 9819   7.525   6.260   0.130
 3292TIP3    H2 9820   7.474   6.170   0.020
 3293TIP3   OH2 9821   7.956   1.047   3.952
 3293TIP3    H1 9822   7.909   1.109   3.896
 3293TIP3    H2 9823   7.904   1.043   4.033
 3294TIP3   OH2 9824   3.952   7.500   6.626
 3294TIP3    H1 9825   4.045   7.525   6.620
 3294TIP3    H2 9826   3.907   7.563   6.570
 3295TIP3   OH2 9827   2.504   0.022   3.928
 3295TIP3    H1 9828   2.502   0.099   3.985
 3295TIP3    H2 9829   2.428  -0.029   3.955
 3296TIP3   OH2 9830   6.693   3.349   0.212
 3296TIP3    H1 9831   6.761   3.327   0.276
 3296TIP3    H2 9832   6.681   3.443   0.220
 3297TIP3   OH2 9833   4.706   7.181   4.204
 3297TIP3    H1 9834   4.724   7.122   4.277
 3297TIP3    H2 9835   4.785   7.236   4.198
 3298TIP3   OH2 9836   0.281   2.384   4.038
 3298TIP3    H1 9837   0.193   2.419   4.050
 3298TIP3    H2 9838   0.336   2.461   4.025
 3299TIP3   OH2 9839   0.084   2.857   4.898
 3299TIP3    H1 9840   0.041   2.927   4.947
 3299TIP3    H2 9841   0.154   2.827   4.956
 3300TIP3   OH2 9842   7.862   0.997   0.893
 3300TIP3    H1 9843   7.822   1.043   0.968
 3300TIP3    H2 9844   7.788   0.957   0.848
 3301TIP3   OH2 9845   0.262   7.541   1.586
 3301TIP3    H1 9846   0.168   7.550   1.570
 3301TIP3    H2 9847   0.270   7.461   1.638
 3302TIP3   OH2 9848   2.742   3.188   4.291
 3302TIP3    H1 9849   2.722   3.169   4.383
 3302TIP3    H2 9850   2.827   3.233   4.294
 3303TIP3   OH2 9851   6.064   1.892   0.306
 3303TIP3    H1 9852   6.009   1.945   0.249
 3303TIP3    H2 9853   6.027   1.906   0.394
 3304TIP3   OH2 9854   1.534   4.850   2.526
 3304TIP3    H1 9855   1.474   4.913   2.487
 3304TIP3    H2 9856   1.532   4.870   2.620
 3305TIP3   OH2 9857   0.465   5.921   5.414
 3305TIP3    H1 9858   0.480   5.876   5.498
 3305TIP3    H2 9859   0.428   5.854   5.358
 3306TIP3   OH2 9860   1.794   7.855   0.386
 3306TIP3    H1 9861   1.849   7.853   0.308
 3306TIP3    H2 9862   1.836   7.793   0.446
 3307TIP3   OH2 9863   6.446   6.102   0.530
 3307TIP3    H1 9864   6.479   6.139   0.448
 3307TIP3    H2 9865   6.436   6.177   0.588
 3308TIP3   OH2 9866   3.994   1.796   6.098
 3308TIP3    H1 9867   4.071   1.758   6.057
 3308TIP3    H2 9868   4.026   1.831   6.181
 3309TIP3   OH2 9869   1.741   2.597   3.142
 3309TIP3    H1 9870   1.832   2.604   3.169
 3309TIP3    H2 9871   1.693   2.576   3.222
 3310TIP3   OH2 9872   2.057   4.730   2.550
 3310TIP3    H1 9873   2.083   4.638   2.559
 3310TIP3    H2 9874   2.138   4.779   2.565
 3311TIP3   OH2 9875   2.157   0.051   6.500
 3311TIP3    H1 9876   2.097   0.016   6.434
 3311TIP3    H2 9877   2.231   0.084   6.450
 3312TIP3   OH2 9878   2.677   1.804   2.655
 3312TIP3    H1 9879   2.686   1.861   2.732
 3312TIP3    H2 9880   2.644   1.861   2.586
 3313TIP3   OH2 9881   2.299   5.635   0.417
 3313TIP3    H1 9882   2.222   5.665   0.368
 3313TIP3    H2 9883   2.316   5.547   0.385
 3314TIP3   OH2 9884   4.092   3.209   6.465
 3314TIP3    H1 9885   4.028   3.139   6.467
 3314TIP3    H2 9886   4.052   3.281   6.513
 3315TIP3   OH2 9887   1.643   2.281   5.417
 3315TIP3    H1 9888   1.665   2.218   5.485
 3315TIP3    H2 9889   1.550   2.300   5.430
 3316TIP3   OH2 9890   6.344   4.186   3.866
 3316TIP3    H1 9891   6.260   4.214   3.828
 3316TIP3    H2 9892   6.322   4.110   3.919
 3317TIP3   OH2 9893   5.112   1.274   2.517
 3317TIP3    H1 9894   5.079   1.273   2.427
 3317TIP3    H2 9895   5.104   1.366   2.544
 3318TIP3   OH2 9896   6.634   7.046   3.636
 3318TIP3    H1 9897   6.570   7.027   3.567
 3318TIP3    H2 9898   6.719   7.036   3.593
 3319TIP3   OH2 9899   2.663   0.980   5.697
 3319TIP3    H1 9900   2.700   0.979   5.609
 3319TIP3    H2 9901   2.570   0.998   5.684
 3320TIP3   OH2 9902   7.834   2.669   3.984
 3320TIP3    H1 9903   7.800   2.745   3.935
 3320TIP3    H2 9904   7.901   2.633   3.927
 3321TIP3   OH2 9905   1.135   3.505   1.203
 3321TIP3    H1 9906   1.081   3.476   1.276
 3321TIP3    H2 9907   1.075   3.556   1.148
 3322TIP3   OH2 9908   7.857   2.714   3.700
 3322TIP3    H1 9909   7.778   2.748   3.658
 3322TIP3    H2 9910   7.916   2.789   3.705
 3323TIP3   OH2 9911   3.485   0.580   1.682
 3323TIP3    H1 9912   3.486   0.675   1.691
 3323TIP3    H2 9913   3.402   0.552   1.721
 3324TIP3   OH2 9914   2.512   6.474   5.288
 3324TIP3    H1 9915   2.603   6.452   5.311
 3324TIP3    H2 9916   2.460   6.443   5.362
 3325TIP3   OH2 9917   4.669   4.105   4.250
 3325TIP3    H1 9918   4.651   4.187   4.205
 3325TIP3    H2 9919   4.730   4.129   4.320
 3326TIP3   OH2 9920   0.808   4.056   1.153
 3326TIP3    H1 9921   0.858   3.996   1.098
 3326TIP3    H2 9922   0.746   4.000   1.200
 3327TIP3   OH2 9923   0.221   4.828   1.944
 3327TIP3    H1 9924   0.237   4.850   1.852
 3327TIP3    H2 9925   0.304   4.845   1.988
 3328TIP3   OH2 9926   4.449   6.270   3.852
 3328TIP3    H1 9927   4.528   6.286   3.904
 3328TIP3    H2 9928   4.396   6.349   3.864
 3329TIP3   OH2 9929   4.505   6.792   3.044
 3329TIP3    H1 9930   4.564   6.792   2.969
 3329TIP3    H2 9931   4.419   6.769   3.008
 3330TIP3   OH2 9932   1.378   1.586   2.286
 3330TIP3    H1 9933   1.332   1.502   2.282
 3330TIP3    H2 9934   1.365   1.624   2.199
 3331TIP3   OH2 9935   6.300   4.526   1.448
 3331TIP3    H1 9936   6.354   4.533   1.527
 3331TIP3    H2 9937   6.350   4.570   1.380
 3332TIP3   OH2 9938   6.195   2.912   4.733
 3332TIP3    H1 9939   6.242   2.874   4.808
 3332TIP3    H2 9940   6.111   2.867   4.732
 3333TIP3   OH2 9941   5.445   0.436   5.908
 3333TIP3    H1 9942   5.501   0.364   5.881
 3333TIP3    H2 9943   5.457   0.441   6.003
 3334TIP3   OH2 9944   1.165   2.120   0.793
 3334TIP3    H1 9945   1.130   2.137   0.880
 3334TIP3    H2 9946   1.166   2.205   0.750
 3335TIP3   OH2 9947   4.448   1.194   5.845
 3335TIP3    H1 9948   4.411   1.117   5.888
 3335TIP3    H2 9949   4.491   1.243   5.915
 3336TIP3   OH2 9950   1.321   1.813   5.990
 3336TIP3    H1 9951   1.233   1.846   6.012
 3336TIP3    H2 9952   1.305   1.734   5.938
 3337TIP3   OH2 9953   8.212   1.598   6.375
 3337TIP3    H1 9954   8.223   1.505   6.397
 3337TIP3    H2 9955   8.123   1.604   6.342
 3338TIP3   OH2 9956   6.791   7.266   3.881
 3338TIP3    H1 9957   6.735   7.203   3.836
 3338TIP3    H2 9958   6.807   7.228   3.967
 3339TIP3   OH2 9959   4.015   3.711   5.693
 3339TIP3    H1 9960   3.989   3.771   5.763
 3339TIP3    H2 9961   3.940   3.652   5.683
 3340TIP3   OH2 9962   3.440   5.350   1.005
 3340TIP3    H1 9963   3.467   5.427   1.056
 3340TIP3    H2 9964   3.520   5.324   0.958
 3341TIP3   OH2 9965   6.166   2.296   3.913
 3341TIP3    H1 9966   6.220   2.376   3.915
 3341TIP3    H2 9967   6.085   2.323   3.870
 3342TIP3   OH2 9968   0.498   7.636   4.695
 3342TIP3    H1 9969   0.452   7.596   4.621
 3342TIP3    H2 9970   0.545   7.710   4.657
 3343TIP3   OH2 9971   5.141   1.272   6.167
 3343TIP3    H1 9972   5.211   1.210   6.144
 3343TIP3    H2 9973   5.101   1.234   6.246
 3344TIP3   OH2 9974   3.818   2.036   2.150
 3344TIP3    H1 9975   3.865   2.013   2.230
 3344TIP3    H2 9976   3.734   1.992   2.159
 3345TIP3   OH2 9977   5.462   1.217   3.815
 3345TIP3    H1 9978   5.433   1.126   3.801
 3345TIP3    H2 9979   5.509   1.239   3.735
 3346TIP3   OH2 9980   5.524   5.250   0.461
 3346TIP3    H1 9981   5.611   5.280   0.487
 3346TIP3    H2 9982   5.522   5.158   0.488
 3347TIP3   OH2 9983   6.696   2.176   3.140
 3347TIP3    H1 9984   6.647   2.252   3.173
 3347TIP3    H2 9985   6.779   2.180   3.187
 3348TIP3   OH2 9986   3.528   2.394   6.753
 3348TIP3    H1 9987   3.513   2.425   6.663
 3348TIP3    H2 9988   3.465   2.443   6.806
 3349TIP3   OH2 9989   6.860   3.121   3.328
 3349TIP3    H1 9990   6.806   3.178   3.273
 3349TIP3    H2 9991   6.828   3.136   3.417
 3350TIP3   OH2 9992   0.758   3.017   1.004
 3350TIP3    H1 9993   0.675   3.059   0.979
 3350TIP3    H2 9994   0.781   2.963   0.928
 3351TIP3   OH2 9995   1.275   3.708   0.647
 3351TIP3    H1 9996   1.305   3.672   0.564
 3351TIP3    H2 9997   1.195   3.756   0.625
 3352TIP3   OH2 9998   1.628   1.448   1.981
 3352TIP3    H1 9999   1.700   1.414   1.928
 3352TIP3    H210000   1.609   1.378   2.043
 3353TIP3   OH210001   3.595   5.635   4.378
 3353TIP3    H110002   3.522   5.681   4.420
 3353TIP3    H210003   3.640   5.703   4.327
 3354TIP3   OH210004   1.876   1.203   6.240
 3354TIP3    H110005   1.972   1.209   6.232
 3354TIP3    H210006   1.845   1.291   6.221
 3355TIP3   OH210007   4.059   3.053   0.684
 3355TIP3    H110008   4.144   3.048   0.639
 3355TIP3    H210009   3.998   3.082   0.615
 3356TIP3   OH210010   4.245   0.471   5.219
 3356TIP3    H110011   4.173   0.502   5.163
 3356TIP3    H210012   4.282   0.551   5.256
 3357TIP3   OH210013   6.257   5.875   5.617
 3357TIP3    H110014   6.300   5.919   5.544
 3357TIP3    H210015   6.323   5.817   5.654
 3358TIP3   OH210016   3.053   5.043   0.126
 3358TIP3    H110017   3.120   4.977   0.109
 3358TIP3    H210018   2.993   5.002   0.188
 3359TIP3   OH210019   1.490   0.006   3.440
 3359TIP3    H110020   1.440  -0.016   3.518
 3359TIP3    H210021   1.455   0.091   3.413
 3360TIP3   OH210022   1.702   2.901   0.064
 3360TIP3    H110023   1.761   2.963   0.021
 3360TIP3    H210024   1.756   2.860   0.131
 3361TIP3   OH210025   7.972   0.603   2.986
 3361TIP3    H110026   7.943   0.653   2.910
 3361TIP3    H210027   7.977   0.667   3.057
 3362TIP3   OH210028   3.183   6.335   1.318
 3362TIP3    H110029   3.196   6.247   1.351
 3362TIP3    H210030   3.100   6.363   1.356
 3363TIP3   OH210031   2.374   1.440   1.864
 3363TIP3    H110032   2.439   1.426   1.795
 3363TIP3    H210033   2.323   1.515   1.834
 3364TIP3   OH210034   4.255   2.634   4.641
 3364TIP3    H110035   4.299   2.564   4.689
 3364TIP3    H210036   4.299   2.635   4.556
 3365TIP3   OH210037   6.121   7.591   3.042
 3365TIP3    H110038   6.182   7.652   3.001
 3365TIP3    H210039   6.040   7.601   2.992
 3366TIP3   OH210040   4.353   6.243   1.556
 3366TIP3    H110041   4.387   6.274   1.639
 3366TIP3    H210042   4.406   6.166   1.535
 3367TIP3   OH210043   6.644   0.785   1.542
 3367TIP3    H110044   6.624   0.699   1.580
 3367TIP3    H210045   6.701   0.765   1.467
 3368TIP3   OH210046   2.301   5.315   2.772
 3368TIP3    H110047   2.268   5.316   2.682
 3368TIP3    H210048   2.231   5.355   2.824
 3369TIP3   OH210049   3.441   3.666   5.042
 3369TIP3    H110050   3.425   3.662   5.136
 3369TIP3    H210051   3.461   3.575   5.018
 3370TIP3   OH210052   4.405   1.079   5.305
 3370TIP3    H110053   4.434   1.120   5.223
 3370TIP3    H210054   4.340   1.014   5.277
 3371TIP3   OH210055   2.721   6.533   3.727
 3371TIP3    H110056   2.814   6.528   3.705
 3371TIP3    H210057   2.702   6.627   3.726
 3372TIP3   OH210058   2.008   4.161   1.752
 3372TIP3    H110059   2.098   4.184   1.776
 3372TIP3    H210060   1.979   4.235   1.698
 3373TIP3   OH210061   6.016   2.066   4.048
 3373TIP3    H110062   6.054   2.056   4.135
 3373TIP3    H210063   6.000   2.160   4.040
 3374TIP3   OH210064   4.740   6.593   6.392
 3374TIP3    H110065   4.777   6.578   6.305
 3374TIP3    H210066   4.803   6.554   6.452
 3375TIP3   OH210067   0.958   3.913   2.223
 3375TIP3    H110068   0.960   3.845   2.156
 3375TIP3    H210069   1.013   3.983   2.188
 3376TIP3   OH210070   3.664   6.246   3.048
 3376TIP3    H110071   3.601   6.211   3.111
 3376TIP3    H210072   3.730   6.291   3.100
 3377TIP3   OH210073   3.273   5.097   1.401
 3377TIP3    H110074   3.190   5.054   1.385
 3377TIP3    H210075   3.322   5.036   1.457
 3378TIP3   OH210076   6.667   5.580   5.069
 3378TIP3    H110077   6.676   5.640   4.995
 3378TIP3    H210078   6.755   5.544   5.081
 3379TIP3   OH210079   4.533   4.244   5.836
 3379TIP3    H110080   4.483   4.255   5.755
 3379TIP3    H210081   4.623   4.268   5.812
 3380TIP3   OH210082   7.845   0.564   2.448
 3380TIP3    H110083   7.919   0.585   2.392
 3380TIP3    H210084   7.768   0.581   2.393
 3381TIP3   OH210085   6.107   1.909   6.508
 3381TIP3    H110086   6.024   1.916   6.461
 3381TIP3    H210087   6.137   1.999   6.516
 3382TIP3   OH210088   4.219   4.134   6.471
 3382TIP3    H110089   4.310   4.109   6.490
 3382TIP3    H210090   4.217   4.149   6.377
 3383TIP3   OH210091   2.097   1.436   1.923
 3383TIP3    H110092   2.076   1.469   2.010
 3383TIP3    H210093   2.131   1.512   1.875
 3384TIP3   OH210094   3.837   0.487   1.140
 3384TIP3    H110095   3.764   0.497   1.201
 3384TIP3    H210096   3.798   0.503   1.054
 3385TIP3   OH210097   7.926   3.115   5.649
 3385TIP3    H110098   7.918   3.170   5.727
 3385TIP3    H210099   8.015   3.081   5.652
 3386TIP3   OH210100   0.288   3.827   6.472
 3386TIP3    H110101   0.288   3.873   6.556
 3386TIP3    H210102   0.248   3.742   6.490
 3387TIP3   OH210103   0.375   4.011   5.157
 3387TIP3    H110104   0.355   4.063   5.079
 3387TIP3    H210105   0.294   3.961   5.173
 3388TIP3   OH210106   4.414   0.445   2.331
 3388TIP3    H110107   4.325   0.470   2.305
 3388TIP3    H210108   4.401   0.382   2.402
 3389TIP3   OH210109   7.364   6.135   1.589
 3389TIP3    H110110   7.314   6.089   1.657
 3389TIP3    H210111   7.443   6.083   1.578
 3390TIP3   OH210112   3.440   5.834   5.923
 3390TIP3    H110113   3.401   5.842   6.010
 3390TIP3    H210114   3.432   5.921   5.885
 3391TIP3   OH210115   5.209   1.083   3.913
 3391TIP3    H110116   5.253   1.067   3.829
 3391TIP3    H210117   5.130   1.029   3.909
 3392TIP3   OH210118   1.372   4.218   2.462
 3392TIP3    H110119   1.295   4.161   2.462
 3392TIP3    H210120   1.419   4.194   2.542
 3393TIP3   OH210121   7.127   4.037   4.876
 3393TIP3    H110122   7.120   3.962   4.936
 3393TIP3    H210123   7.088   4.005   4.795
 3394TIP3   OH210124   3.061   0.433   4.673
 3394TIP3    H110125   3.036   0.404   4.760
 3394TIP3    H210126   3.031   0.524   4.669
 3395TIP3   OH210127   0.043   0.571   3.474
 3395TIP3    H110128  -0.042   0.615   3.467
 3395TIP3    H210129   0.040   0.526   3.559
 3396TIP3   OH210130   1.426   1.083   0.722
 3396TIP3    H110131   1.507   1.052   0.682
 3396TIP3    H210132   1.371   1.110   0.648
 3397TIP3   OH210133   4.954   1.956   0.655
 3397TIP3    H110134   4.938   1.925   0.744
 3397TIP3    H210135   4.878   2.009   0.634
 3398TIP3   OH210136   1.896   4.986   3.093
 3398TIP3    H110137   1.819   4.972   3.149
 3398TIP3    H210138   1.867   4.962   3.005
 3399TIP3   OH210139   5.191   2.101   0.680
 3399TIP3    H110140   5.123   2.072   0.619
 3399TIP3    H210141   5.175   2.050   0.759
 3400TIP3   OH210142   8.181   7.006   3.235
 3400TIP3    H110143   8.272   7.023   3.259
 3400TIP3    H210144   8.140   7.093   3.233
 3401TIP3   OH210145   7.349   0.172   5.215
 3401TIP3    H110146   7.290   0.247   5.219
 3401TIP3    H210147   7.417   0.197   5.152
 3402TIP3   OH210148   3.626   2.628   1.667
 3402TIP3    H110149   3.648   2.548   1.618
 3402TIP3    H210150   3.573   2.680   1.607
 3403TIP3   OH210151  -0.013   4.466   0.680
 3403TIP3    H110152   0.002   4.445   0.588
 3403TIP3    H210153   0.068   4.441   0.725
 3404TIP3   OH210154   4.658   3.665   5.245
 3404TIP3    H110155   4.619   3.703   5.324
 3404TIP3    H210156   4.733   3.721   5.226
 3405TIP3   OH210157   3.304   4.707   3.237
 3405TIP3    H110158   3.331   4.772   3.303
 3405TIP3    H210159   3.359   4.631   3.254
 3406TIP3   OH210160   1.900   4.265   5.510
 3406TIP3    H110161   1.981   4.283   5.462
 3406TIP3    H210162   1.881   4.347   5.556
 3407TIP3   OH210163   7.804   7.102   3.455
 3407TIP3    H110164   7.824   7.161   3.382
 3407TIP3    H210165   7.889   7.081   3.493
 3408TIP3   OH210166   8.111   6.896   6.735
 3408TIP3    H110167   8.130   6.861   6.822
 3408TIP3    H210168   8.054   6.971   6.750
 3409TIP3   OH210169   7.490   0.075   2.696
 3409TIP3    H110170   7.450   0.122   2.769
 3409TIP3    H210171   7.566   0.129   2.672
 3410TIP3   OH210172   5.566   2.802   0.985
 3410TIP3    H110173   5.582   2.851   0.904
 3410TIP3    H210174   5.470   2.793   0.988
 3411TIP3   OH210175   0.948   1.352   3.075
 3411TIP3    H110176   0.938   1.259   3.054
 3411TIP3    H210177   0.867   1.392   3.043
 3412TIP3   OH210178   3.951   7.558   4.469
 3412TIP3    H110179   3.939   7.499   4.395
 3412TIP3    H210180   4.045   7.578   4.469
 3413TIP3   OH210181   4.457   7.705   3.196
 3413TIP3    H110182   4.485   7.674   3.110
 3413TIP3    H210183   4.532   7.753   3.231
 3414TIP3   OH210184   8.261   6.200   2.440
 3414TIP3    H110185   8.323   6.201   2.513
 3414TIP3    H210186   8.175   6.189   2.482
 3415TIP3   OH210187   4.940   1.437   3.214
 3415TIP3    H110188   4.871   1.373   3.199
 3415TIP3    H210189   4.904   1.519   3.182
 3416TIP3   OH210190   7.291   0.468   0.832
 3416TIP3    H110191   7.288   0.458   0.737
 3416TIP3    H210192   7.200   0.483   0.857
 3417TIP3   OH210193   8.247   0.035   3.423
 3417TIP3    H110194   8.291  -0.005   3.348
 3417TIP3    H210195   8.251   0.129   3.406
 3418TIP3   OH210196   6.272   2.072   3.193
 3418TIP3    H110197   6.238   1.994   3.236
 3418TIP3    H210198   6.212   2.088   3.120
 3419TIP3   OH210199   6.940   4.002   1.179
 3419TIP3    H110200   6.993   4.007   1.259
 3419TIP3    H210201   6.973   4.073   1.124
 3420TIP3   OH210202   0.124   7.024   6.322
 3420TIP3    H110203   0.195   6.990   6.267
 3420TIP3    H210204   0.143   7.117   6.331
 3421TIP3   OH210205   0.094   0.050   0.453
 3421TIP3    H110206   0.045  -0.026   0.422
 3421TIP3    H210207   0.185   0.023   0.450
 3422TIP3   OH210208   5.149   7.064   5.766
 3422TIP3    H110209   5.120   7.009   5.838
 3422TIP3    H210210   5.087   7.137   5.765
 3423TIP3   OH210211   0.363   6.492   6.264
 3423TIP3    H110212   0.311   6.416   6.289
 3423TIP3    H210213   0.421   6.507   6.339
 3424TIP3   OH210214   6.387   5.048   0.057
 3424TIP3    H110215   6.306   5.084   0.093
 3424TIP3    H210216   6.361   4.962   0.022
 3425TIP3   OH210217   6.704   2.580   4.677
 3425TIP3    H110218   6.637   2.632   4.633
 3425TIP3    H210219   6.777   2.577   4.615
 3426TIP3   OH210220   7.953   5.937   2.396
 3426TIP3    H110221   7.969   6.016   2.449
 3426TIP3    H210222   7.858   5.938   2.381
 3427TIP3   OH210223   1.706   5.453   6.459
 3427TIP3    H110224   1.713   5.545   6.432
 3427TIP3    H210225   1.630   5.452   6.518
 3428TIP3   OH210226   0.805   2.206   4.037
 3428TIP3    H110227   0.777   2.293   4.009
 3428TIP3    H210228   0.867   2.221   4.108
 3429TIP3   OH210229   2.841   0.924   5.345
 3429TIP3    H110230   2.896   0.994   5.381
 3429TIP3    H210231   2.876   0.844   5.384
 3430TIP3   OH210232   2.012   1.812   5.574
 3430TIP3    H110233   2.030   1.814   5.668
 3430TIP3    H210234   2.090   1.774   5.535
 3431TIP3   OH210235   2.262   0.777   1.898
 3431TIP3    H110236   2.242   0.773   1.805
 3431TIP3    H210237   2.356   0.796   1.901
 3432TIP3   OH210238   7.092   7.658   1.819
 3432TIP3    H110239   7.102   7.753   1.812
 3432TIP3    H210240   7.033   7.646   1.893
 3433TIP3   OH210241   7.498   7.143   6.709
 3433TIP3    H110242   7.416   7.111   6.745
 3433TIP3    H210243   7.539   7.190   6.781
 3434TIP3   OH210244   1.305   1.226   6.502
 3434TIP3    H110245   1.388   1.187   6.530
 3434TIP3    H210246   1.285   1.290   6.571
 3435TIP3   OH210247   7.994   5.098   1.332
 3435TIP3    H110248   8.022   5.055   1.413
 3435TIP3    H210249   7.946   5.031   1.284
 3436TIP3   OH210250   6.999   5.762   0.191
 3436TIP3    H110251   6.920   5.729   0.147
 3436TIP3    H210252   6.999   5.856   0.172
 3437TIP3   OH210253   5.811   3.229   3.543
 3437TIP3    H110254   5.790   3.322   3.535
 3437TIP3    H210255   5.848   3.221   3.631
 3438TIP3   OH210256   0.137   5.208   0.288
 3438TIP3    H110257   0.138   5.163   0.373
 3438TIP3    H210258   0.077   5.281   0.300
 3439TIP3   OH210259   7.931   1.894   3.667
 3439TIP3    H110260   7.971   1.945   3.597
 3439TIP3    H210261   7.841   1.926   3.671
 3440TIP3   OH210262   6.815   0.683   3.370
 3440TIP3    H110263   6.747   0.641   3.317
 3440TIP3    H210264   6.771   0.759   3.410
 3441TIP3   OH210265   5.228   2.089   6.100
 3441TIP3    H110266   5.135   2.109   6.111
 3441TIP3    H210267   5.260   2.157   6.041
 3442TIP3   OH210268   7.011   1.093   4.116
 3442TIP3    H110269   7.072   1.045   4.173
 3442TIP3    H210270   6.924   1.063   4.144
 3443TIP3   OH210271   5.450   1.465   0.499
 3443TIP3    H110272   5.449   1.439   0.407
 3443TIP3    H210273   5.532   1.431   0.533
 3444TIP3   OH210274   4.845   1.244   1.677
 3444TIP3    H110275   4.879   1.322   1.722
 3444TIP3    H210276   4.890   1.243   1.593
 3445TIP3   OH210277   1.378   5.005   2.368
 3445TIP3    H110278   1.398   5.096   2.346
 3445TIP3    H210279   1.293   4.988   2.327
 3446TIP3   OH210280   8.030   4.415   1.214
 3446TIP3    H110281   8.094   4.439   1.147
 3446TIP3    H210282   7.979   4.495   1.227
 3447TIP3   OH210283   6.155   7.529   1.592
 3447TIP3    H110284   6.109   7.552   1.511
 3447TIP3    H210285   6.248   7.527   1.567
 3448TIP3   OH210286   1.133   0.218   6.600
 3448TIP3    H110287   1.175   0.247   6.681
 3448TIP3    H210288   1.203   0.175   6.551
 3449TIP3   OH210289   5.446   2.565   2.049
 3449TIP3    H110290   5.416   2.564   1.958
 3449TIP3    H210291   5.396   2.496   2.092
 3450TIP3   OH210292   7.746   4.883   4.702
 3450TIP3    H110293   7.758   4.877   4.797
 3450TIP3    H210294   7.797   4.960   4.676
 3451TIP3   OH210295   1.468   3.763   5.314
 3451TIP3    H110296   1.489   3.723   5.230
 3451TIP3    H210297   1.373   3.780   5.309
 3452TIP3   OH210298   5.806   4.177   6.396
 3452TIP3    H110299   5.795   4.263   6.438
 3452TIP3    H210300   5.863   4.194   6.321
 3453TIP3   OH210301   4.063   2.311   5.993
 3453TIP3    H110302   4.076   2.319   5.899
 3453TIP3    H210303   3.968   2.308   6.005
 3454TIP3   OH210304   1.285   5.332   6.044
 3454TIP3    H110305   1.313   5.306   6.131
 3454TIP3    H210306   1.352   5.297   5.986
 3455TIP3   OH210307   4.259   4.078   6.208
 3455TIP3    H110308   4.277   3.985   6.224
 3455TIP3    H210309   4.224   4.081   6.119
 3456TIP3   OH210310   1.948   2.132   4.990
 3456TIP3    H110311   1.939   2.174   5.076
 3456TIP3    H210312   1.892   2.055   4.996
 3457TIP3   OH210313   7.767   1.918   2.163
 3457TIP3    H110314   7.672   1.919   2.172
 3457TIP3    H210315   7.783   1.934   2.070
 3458TIP3   OH210316   7.115   0.610   5.632
 3458TIP3    H110317   7.044   0.547   5.622
 3458TIP3    H210318   7.115   0.660   5.551
 3459TIP3   OH210319   3.036   1.550   4.287
 3459TIP3    H110320   3.071   1.622   4.339
 3459TIP3    H210321   3.102   1.534   4.220
 3460TIP3   OH210322   6.930   6.514   4.105
 3460TIP3    H110323   6.960   6.562   4.181
 3460TIP3    H210324   6.937   6.422   4.130
 3461TIP3   OH210325   0.719   0.835   5.515
 3461TIP3    H110326   0.749   0.810   5.603
 3461TIP3    H210327   0.697   0.928   5.523
 3462TIP3   OH210328   7.887   7.196   4.246
 3462TIP3    H110329   7.878   7.159   4.158
 3462TIP3    H210330   7.804   7.176   4.289
 3463TIP3   OH210331   7.502   6.671   0.489
 3463TIP3    H110332   7.415   6.705   0.467
 3463TIP3    H210333   7.551   6.676   0.406
 3464TIP3   OH210334   3.003   5.773   1.185
 3464TIP3    H110335   3.011   5.835   1.257
 3464TIP3    H210336   2.916   5.789   1.150
 3465TIP3   OH210337   2.664   1.727   1.413
 3465TIP3    H110338   2.629   1.730   1.324
 3465TIP3    H210339   2.681   1.634   1.429
 3466TIP3   OH210340   6.385   7.164   1.893
 3466TIP3    H110341   6.300   7.209   1.894
 3466TIP3    H210342   6.369   7.083   1.942
 3467TIP3   OH210343   8.236   2.262   2.958
 3467TIP3    H110344   8.162   2.278   3.016
 3467TIP3    H210345   8.243   2.341   2.905
 3468TIP3   OH210346   2.975   1.682   5.197
 3468TIP3    H110347   2.935   1.686   5.284
 3468TIP3    H210348   3.046   1.745   5.200
 3469TIP3   OH210349   7.721   5.639   5.962
 3469TIP3    H110350   7.662   5.671   6.030
 3469TIP3    H210351   7.730   5.711   5.900
 3470TIP3   OH210352   5.872   2.372   4.631
 3470TIP3    H110353   5.888   2.438   4.563
 3470TIP3    H210354   5.783   2.389   4.662
 3471TIP3   OH210355   3.337   5.354   4.121
 3471TIP3    H110356   3.331   5.380   4.212
 3471TIP3    H210357   3.366   5.262   4.124
 3472TIP3   OH210358   6.559   3.611   0.623
 3472TIP3    H110359   6.488   3.565   0.667
 3472TIP3    H210360   6.530   3.702   0.618
 3473TIP3   OH210361   0.156   3.428   5.299
 3473TIP3    H110362   0.124   3.397   5.384
 3473TIP3    H210363   0.251   3.422   5.305
 3474TIP3   OH210364   5.188   5.597   2.339
 3474TIP3    H110365   5.269   5.647   2.327
 3474TIP3    H210366   5.202   5.516   2.290
 3475TIP3   OH210367   6.447   7.156   1.489
 3475TIP3    H110368   6.366   7.181   1.446
 3475TIP3    H210369   6.464   7.067   1.459
 3476TIP3   OH210370   4.979   1.103   4.824
 3476TIP3    H110371   4.963   1.098   4.918
 3476TIP3    H210372   5.016   1.190   4.810
 3477TIP3   OH210373   7.333   1.594   3.257
 3477TIP3    H110374   7.420   1.554   3.250
 3477TIP3    H210375   7.341   1.676   3.208
 3478TIP3   OH210376   6.024   7.053   6.127
 3478TIP3    H110377   6.075   7.091   6.056
 3478TIP3    H210378   5.940   7.031   6.087
 3479TIP3   OH210379   5.932   5.352   0.194
 3479TIP3    H110380   5.881   5.401   0.129
 3479TIP3    H210381   6.020   5.350   0.157
 3480TIP3   OH210382   0.773   0.911   0.141
 3480TIP3    H110383   0.822   0.829   0.144
 3480TIP3    H210384   0.839   0.978   0.125
 3481TIP3   OH210385   5.654   6.820   1.326
 3481TIP3    H110386   5.610   6.771   1.395
 3481TIP3    H210387   5.709   6.883   1.372
 3482TIP3   OH210388   0.919   3.572   4.658
 3482TIP3    H110389   0.869   3.581   4.739
 3482TIP3    H210390   0.962   3.656   4.647
 3483TIP3   OH210391   0.911   1.727   3.880
 3483TIP3    H110392   0.922   1.649   3.825
 3483TIP3    H210393   0.855   1.785   3.828
 3484TIP3   OH210394   3.660   5.352   4.408
 3484TIP3    H110395   3.633   5.444   4.405
 3484TIP3    H210396   3.607   5.314   4.479
 3485TIP3   OH210397   2.259   4.387   3.230
 3485TIP3    H110398   2.313   4.460   3.200
 3485TIP3    H210399   2.177   4.428   3.259
 3486TIP3   OH210400   5.735   7.145   1.672
 3486TIP3    H110401   5.769   7.228   1.705
 3486TIP3    H210402   5.775   7.079   1.728
 3487TIP3   OH210403   2.399   6.059   6.112
 3487TIP3    H110404   2.417   6.035   6.021
 3487TIP3    H210405   2.478   6.031   6.160
 3488TIP3   OH210406   5.947   1.958   5.938
 3488TIP3    H110407   5.919   2.050   5.935
 3488TIP3    H210408   6.032   1.961   5.984
 3489TIP3   OH210409   3.838   3.582   5.142
 3489TIP3    H110410   3.887   3.532   5.207
 3489TIP3    H210411   3.817   3.518   5.074
 3490TIP3   OH210412   6.751   4.017   2.655
 3490TIP3    H110413   6.748   3.926   2.625
 3490TIP3    H210414   6.828   4.021   2.712
 3491TIP3   OH210415   3.236   1.405   0.166
 3491TIP3    H110416   3.261   1.486   0.122
 3491TIP3    H210417   3.288   1.337   0.123
 3492TIP3   OH210418   7.192   5.020   4.716
 3492TIP3    H110419   7.120   5.062   4.669
 3492TIP3    H210420   7.271   5.050   4.670
 3493TIP3   OH210421   8.287   0.224   6.553
 3493TIP3    H110422   8.335   0.300   6.519
 3493TIP3    H210423   8.273   0.245   6.645
 3494TIP3   OH210424   1.774   3.874   5.276
 3494TIP3    H110425   1.703   3.939   5.272
 3494TIP3    H210426   1.744   3.811   5.343
 3495TIP3   OH210427   0.601   2.766   3.215
 3495TIP3    H110428   0.616   2.852   3.255
 3495TIP3    H210429   0.554   2.716   3.283
 3496TIP3   OH210430   7.501   4.358   2.435
 3496TIP3    H110431   7.517   4.275   2.390
 3496TIP3    H210432   7.408   4.356   2.457
 3497TIP3   OH210433   2.058   6.652   2.989
 3497TIP3    H110434   2.105   6.636   3.071
 3497TIP3    H210435   2.087   6.581   2.931
 3498TIP3   OH210436   0.232   6.537   6.664
 3498TIP3    H110437   0.160   6.532   6.726
 3498TIP3    H210438   0.232   6.452   6.619
 3499TIP3   OH210439   2.507   5.940   0.486
 3499TIP3    H110440   2.600   5.942   0.507
 3499TIP3    H210441   2.464   5.932   0.572
 3500TIP3   OH210442   1.234   3.421   2.026
 3500TIP3    H110443   1.319   3.425   2.070
 3500TIP3    H210444   1.187   3.352   2.072
 3501TIP3   OH210445   6.460   2.733   4.697
 3501TIP3    H110446   6.523   2.765   4.762
 3501TIP3    H210447   6.377   2.772   4.722
 3502TIP3   OH210448   7.444   0.607   4.123
 3502TIP3    H110449   7.503   0.541   4.087
 3502TIP3    H210450   7.501   0.679   4.150
 3503TIP3   OH210451   2.866   3.451   4.234
 3503TIP3    H110452   2.797   3.507   4.198
 3503TIP3    H210453   2.943   3.472   4.182
 3504TIP3   OH210454   4.849   6.210   2.660
 3504TIP3    H110455   4.916   6.144   2.642
 3504TIP3    H210456   4.779   6.190   2.598
 3505TIP3   OH210457   6.033   5.052   5.764
 3505TIP3    H110458   5.967   4.984   5.775
 3505TIP3    H210459   5.985   5.127   5.728
 3506TIP3   OH210460   4.699   1.934   1.283
 3506TIP3    H110461   4.650   1.932   1.365
 3506TIP3    H210462   4.702   2.026   1.259
 3507TIP3   OH210463   5.597   3.134   3.340
 3507TIP3    H110464   5.592   3.166   3.250
 3507TIP3    H210465   5.682   3.167   3.372
 3508TIP3   OH210466   0.616   0.746   4.446
 3508TIP3    H110467   0.533   0.723   4.487
 3508TIP3    H210468   0.615   0.842   4.445
 3509TIP3   OH210469   1.748   2.919   0.926
 3509TIP3    H110470   1.759   2.824   0.918
 3509TIP3    H210471   1.834   2.955   0.906
 3510TIP3   OH210472   3.109   6.749   1.647
 3510TIP3    H110473   3.077   6.749   1.557
 3510TIP3    H210474   3.196   6.790   1.641
 3511TIP3   OH210475   0.608   5.373   1.767
 3511TIP3    H110476   0.673   5.309   1.739
 3511TIP3    H210477   0.549   5.381   1.692
 3512TIP3   OH210478   4.159   2.536   3.262
 3512TIP3    H110479   4.213   2.468   3.303
 3512TIP3    H210480   4.188   2.618   3.302
 3513TIP3   OH210481   0.225   0.258   5.867
 3513TIP3    H110482   0.260   0.178   5.905
 3513TIP3    H210483   0.280   0.274   5.790
 3514TIP3   OH210484   6.534   3.475   4.578
 3514TIP3    H110485   6.623   3.451   4.554
 3514TIP3    H210486   6.489   3.392   4.593
 3515TIP3   OH210487   7.550   3.512   4.362
 3515TIP3    H110488   7.572   3.605   4.360
 3515TIP3    H210489   7.584   3.477   4.279
 3516TIP3   OH210490   6.646   6.024   5.322
 3516TIP3    H110491   6.675   6.075   5.398
 3516TIP3    H210492   6.692   6.063   5.248
 3517TIP3   OH210493   3.780   3.597   2.480
 3517TIP3    H110494   3.736   3.629   2.559
 3517TIP3    H210495   3.729   3.520   2.455
 3518TIP3   OH210496   3.922   4.506   2.547
 3518TIP3    H110497   3.867   4.498   2.624
 3518TIP3    H210498   3.912   4.598   2.520
 3519TIP3   OH210499   5.051   0.200   5.047
 3519TIP3    H110500   5.064   0.148   4.968
 3519TIP3    H210501   4.998   0.275   5.019
 3520TIP3   OH210502   5.296   4.159   2.338
 3520TIP3    H110503   5.340   4.205   2.409
 3520TIP3    H210504   5.326   4.204   2.258
 3521TIP3   OH210505   4.876   4.710   2.232
 3521TIP3    H110506   4.858   4.803   2.244
 3521TIP3    H210507   4.884   4.700   2.137
 3522TIP3   OH210508   3.480   0.684   2.246
 3522TIP3    H110509   3.461   0.691   2.340
 3522TIP3    H210510   3.424   0.612   2.217
 3523TIP3   OH210511   8.138   6.994   1.505
 3523TIP3    H110512   8.167   6.980   1.415
 3523TIP3    H210513   8.214   7.030   1.550
 3524TIP3   OH210514   5.971   6.326   5.585
 3524TIP3    H110515   5.914   6.316   5.662
 3524TIP3    H210516   6.022   6.245   5.582
 3525TIP3   OH210517   2.046   5.538   4.329
 3525TIP3    H110518   2.055   5.633   4.318
 3525TIP3    H210519   2.121   5.513   4.383
 3526TIP3   OH210520   3.321   2.962   1.373
 3526TIP3    H110521   3.246   2.973   1.431
 3526TIP3    H210522   3.284   2.933   1.290
 3527TIP3   OH210523   7.673   4.403   0.180
 3527TIP3    H110524   7.622   4.364   0.109
 3527TIP3    H210525   7.721   4.474   0.138
 3528TIP3   OH210526   5.342   3.773   2.859
 3528TIP3    H110527   5.399   3.838   2.901
 3528TIP3    H210528   5.263   3.772   2.914
 3529TIP3   OH210529   1.411   7.682   5.353
 3529TIP3    H110530   1.402   7.744   5.281
 3529TIP3    H210531   1.499   7.697   5.388
 3530TIP3   OH210532   1.226   1.048   1.189
 3530TIP3    H110533   1.177   1.119   1.231
 3530TIP3    H210534   1.280   1.093   1.123
 3531TIP3   OH210535   0.132   5.027   1.379
 3531TIP3    H110536   0.036   5.022   1.386
 3531TIP3    H210537   0.161   4.936   1.388
 3532TIP3   OH210538   7.708   3.196   0.174
 3532TIP3    H110539   7.724   3.288   0.197
 3532TIP3    H210540   7.625   3.175   0.216
 3533TIP3   OH210541   4.411   4.516   1.667
 3533TIP3    H110542   4.334   4.522   1.610
 3533TIP3    H210543   4.463   4.444   1.630
 3534TIP3   OH210544   3.870   1.620   6.572
 3534TIP3    H110545   3.865   1.527   6.549
 3534TIP3    H210546   3.790   1.657   6.534
 3535TIP3   OH210547   2.825   3.942   6.066
 3535TIP3    H110548   2.888   4.011   6.084
 3535TIP3    H210549   2.878   3.867   6.037
 3536TIP3   OH210550   6.856   4.686   3.790
 3536TIP3    H110551   6.871   4.731   3.873
 3536TIP3    H210552   6.792   4.617   3.811
 3537TIP3   OH210553   0.774   6.220   2.707
 3537TIP3    H110554   0.837   6.292   2.707
 3537TIP3    H210555   0.689   6.263   2.694
 3538TIP3   OH210556   8.300   7.625   3.562
 3538TIP3    H110557   8.299   7.578   3.646
 3538TIP3    H210558   8.255   7.567   3.502
 3539TIP3   OH210559   8.208   0.199   4.361
 3539TIP3    H110560   8.277   0.135   4.342
 3539TIP3    H210561   8.165   0.213   4.277
 3540TIP3   OH210562   4.047   3.791   2.887
 3540TIP3    H110563   4.085   3.776   2.800
 3540TIP3    H210564   4.111   3.752   2.947
 3541TIP3   OH210565   8.233   2.930   1.234
 3541TIP3    H110566   8.157   2.878   1.261
 3541TIP3    H210567   8.215   3.018   1.267
 3542TIP3   OH210568   8.035   5.575   0.325
 3542TIP3    H110569   7.979   5.504   0.294
 3542TIP3    H210570   8.118   5.533   0.348
 3543TIP3   OH210571   0.245   7.002   4.320
 3543TIP3    H110572   0.331   6.985   4.359
 3543TIP3    H210573   0.189   7.022   4.395
 3544TIP3   OH210574   6.056   4.392   4.742
 3544TIP3    H110575   6.009   4.330   4.687
 3544TIP3    H210576   6.143   4.398   4.703
 3545TIP3   OH210577   7.978   2.689   2.663
 3545TIP3    H110578   7.987   2.682   2.758
 3545TIP3    H210579   7.893   2.650   2.644
 3546TIP3   OH210580   5.501   5.649   1.097
 3546TIP3    H110581   5.491   5.620   1.187
 3546TIP3    H210582   5.440   5.594   1.047
 3547TIP3   OH210583   6.778   1.241   3.690
 3547TIP3    H110584   6.683   1.235   3.702
 3547TIP3    H210585   6.806   1.152   3.672
 3548TIP3   OH210586   1.641   0.124   4.845
 3548TIP3    H110587   1.645   0.075   4.762
 3548TIP3    H210588   1.636   0.215   4.818
 3549TIP3   OH210589   6.719   6.237   1.319
 3549TIP3    H110590   6.684   6.325   1.311
 3549TIP3    H210591   6.778   6.241   1.395
 3550TIP3   OH210592   1.672   5.534   5.516
 3550TIP3    H110593   1.678   5.627   5.495
 3550TIP3    H210594   1.666   5.531   5.612
 3551TIP3   OH210595   5.182   0.142   2.915
 3551TIP3    H110596   5.135   0.074   2.964
 3551TIP3    H210597   5.270   0.108   2.906
 3552TIP3   OH210598   1.259   4.186   5.643
 3552TIP3    H110599   1.258   4.264   5.700
 3552TIP3    H210600   1.246   4.113   5.704
 3553TIP3   OH210601   3.618   5.741   4.914
 3553TIP3    H110602   3.589   5.815   4.967
 3553TIP3    H210603   3.538   5.703   4.878
 3554TIP3   OH210604   3.795   4.698   6.654
 3554TIP3    H110605   3.754   4.741   6.579
 3554TIP3    H210606   3.873   4.656   6.617
 3555TIP3   OH210607   6.689   2.429   0.554
 3555TIP3    H110608   6.654   2.508   0.514
 3555TIP3    H210609   6.784   2.435   0.542
 3556TIP3   OH210610   7.784   3.886   0.694
 3556TIP3    H110611   7.720   3.835   0.745
 3556TIP3    H210612   7.817   3.950   0.756
 3557TIP3   OH210613   0.387   4.606   2.993
 3557TIP3    H110614   0.346   4.533   3.041
 3557TIP3    H210615   0.313   4.651   2.952
 3558TIP3   OH210616   2.996   0.150   0.209
 3558TIP3    H110617   3.078   0.102   0.223
 3558TIP3    H210618   3.023   0.239   0.187
 3559TIP3   OH210619   1.317   6.486   1.627
 3559TIP3    H110620   1.227   6.494   1.658
 3559TIP3    H210621   1.365   6.555   1.673
 3560TIP3   OH210622   3.164   2.532   0.868
 3560TIP3    H110623   3.214   2.531   0.786
 3560TIP3    H210624   3.186   2.615   0.909
 3561TIP3   OH210625   3.698   7.267   0.415
 3561TIP3    H110626   3.642   7.219   0.475
 3561TIP3    H210627   3.781   7.220   0.415
 3562TIP3   OH210628   5.792   3.916   2.852
 3562TIP3    H110629   5.828   3.862   2.782
 3562TIP3    H210630   5.863   3.926   2.915
 3563TIP3   OH210631   3.913   0.132   3.189
 3563TIP3    H110632   3.913   0.226   3.171
 3563TIP3    H210633   4.002   0.103   3.165
 3564TIP3   OH210634   3.916   3.410   6.622
 3564TIP3    H110635   3.872   3.434   6.704
 3564TIP3    H210636   3.849   3.417   6.555
 3565TIP3   OH210637   6.371   4.027   5.193
 3565TIP3    H110638   6.458   4.014   5.231
 3565TIP3    H210639   6.311   4.013   5.266
 3566TIP3   OH210640   7.407   4.334   0.553
 3566TIP3    H110641   7.428   4.354   0.462
 3566TIP3    H210642   7.492   4.325   0.596
 3567TIP3   OH210643   3.877   1.484   4.839
 3567TIP3    H110644   3.857   1.515   4.750
 3567TIP3    H210645   3.793   1.451   4.872
 3568TIP3   OH210646   3.713   3.484   1.696
 3568TIP3    H110647   3.802   3.450   1.707
 3568TIP3    H210648   3.680   3.442   1.617
 3569TIP3   OH210649   4.975   3.065   5.188
 3569TIP3    H110650   4.937   3.113   5.262
 3569TIP3    H210651   4.899   3.034   5.139
 3570TIP3   OH210652   1.695   6.428   1.142
 3570TIP3    H110653   1.668   6.410   1.232
 3570TIP3    H210654   1.709   6.523   1.141
 3571TIP3   OH210655   1.093   5.957   3.737
 3571TIP3    H110656   1.092   5.934   3.644
 3571TIP3    H210657   1.156   5.896   3.776
 3572TIP3   OH210658   4.108   5.097   2.024
 3572TIP3    H110659   4.161   5.026   2.060
 3572TIP3    H210660   4.055   5.056   1.956
 3573TIP3   OH210661   8.202   1.810   1.733
 3573TIP3    H110662   8.140   1.741   1.758
 3573TIP3    H210663   8.222   1.855   1.814
 3574TIP3   OH210664   0.324   1.722   6.728
 3574TIP3    H110665   0.386   1.655   6.697
 3574TIP3    H210666   0.346   1.800   6.678
 3575TIP3   OH210667   6.017   5.225   4.021
 3575TIP3    H110668   6.023   5.140   4.065
 3575TIP3    H210669   6.053   5.287   4.083
 3576TIP3   OH210670   0.995   4.097   0.220
 3576TIP3    H110671   1.004   4.110   0.314
 3576TIP3    H210672   0.903   4.076   0.206
 3577TIP3   OH210673   0.016   3.360   3.592
 3577TIP3    H110674  -0.032   3.288   3.553
 3577TIP3    H210675   0.042   3.415   3.517
 3578TIP3   OH210676   3.197   2.973   3.201
 3578TIP3    H110677   3.124   3.028   3.230
 3578TIP3    H210678   3.209   2.995   3.109
 3579TIP3   OH210679   1.118   2.644   4.918
 3579TIP3    H110680   1.158   2.730   4.904
 3579TIP3    H210681   1.024   2.659   4.906
 3580TIP3   OH210682   7.399   1.235   3.773
 3580TIP3    H110683   7.414   1.141   3.787
 3580TIP3    H210684   7.311   1.241   3.737
 3581TIP3   OH210685   7.826   3.063   2.336
 3581TIP3    H110686   7.837   2.969   2.350
 3581TIP3    H210687   7.862   3.079   2.249
 3582TIP3   OH210688   4.980   2.838   6.477
 3582TIP3    H110689   4.940   2.760   6.438
 3582TIP3    H210690   4.947   2.911   6.425
 3583TIP3   OH210691   5.633   4.090   4.705
 3583TIP3    H110692   5.566   4.027   4.679
 3583TIP3    H210693   5.584   4.161   4.745
 3584TIP3   OH210694   5.319   1.130   6.419
 3584TIP3    H110695   5.386   1.085   6.471
 3584TIP3    H210696   5.328   1.093   6.332
 3585TIP3   OH210697   0.327   2.573   4.850
 3585TIP3    H110698   0.317   2.620   4.934
 3585TIP3    H210699   0.401   2.616   4.808
 3586TIP3   OH210700   1.119   2.683   2.586
 3586TIP3    H110701   1.081   2.690   2.673
 3586TIP3    H210702   1.156   2.595   2.582
 3587TIP3   OH210703   4.292   5.763   2.054
 3587TIP3    H110704   4.351   5.799   2.121
 3587TIP3    H210705   4.335   5.684   2.023
 3588TIP3   OH210706   7.810   6.482   4.849
 3588TIP3    H110707   7.844   6.571   4.838
 3588TIP3    H210708   7.794   6.451   4.760
 3589TIP3   OH210709   0.043   2.787   6.713
 3589TIP3    H110710  -0.050   2.796   6.735
 3589TIP3    H210711   0.049   2.700   6.673
 3590TIP3   OH210712   3.366   4.810   3.491
 3590TIP3    H110713   3.301   4.834   3.556
 3590TIP3    H210714   3.413   4.891   3.473
 3591TIP3   OH210715   1.944   5.891   0.452
 3591TIP3    H110716   1.982   5.824   0.508
 3591TIP3    H210717   1.984   5.973   0.481
 3592TIP3   OH210718   0.289   0.470   5.241
 3592TIP3    H110719   0.213   0.521   5.265
 3592TIP3    H210720   0.292   0.398   5.305
 3593TIP3   OH210721   3.251   6.651   6.449
 3593TIP3    H110722   3.188   6.656   6.377
 3593TIP3    H210723   3.336   6.647   6.406
 3594TIP3   OH210724   7.534   4.766   2.227
 3594TIP3    H110725   7.581   4.683   2.211
 3594TIP3    H210726   7.516   4.766   2.321
 3595TIP3   OH210727   1.976   7.531   3.356
 3595TIP3    H110728   1.948   7.584   3.282
 3595TIP3    H210729   1.921   7.559   3.428
 3596TIP3   OH210730   0.697   6.667   3.715
 3596TIP3    H110731   0.754   6.613   3.660
 3596TIP3    H210732   0.685   6.615   3.795
 3597TIP3   OH210733   6.509   3.765   4.765
 3597TIP3    H110734   6.588   3.816   4.782
 3597TIP3    H210735   6.443   3.801   4.825
 3598TIP3   OH210736   8.042   4.371   0.033
 3598TIP3    H110737   7.982   4.299   0.013
 3598TIP3    H210738   8.104   4.370  -0.040
 3599TIP3   OH210739   6.444   2.378   5.726
 3599TIP3    H110740   6.368   2.386   5.669
 3599TIP3    H210741   6.513   2.427   5.680
 3600TIP3   OH210742   4.644   6.285   0.901
 3600TIP3    H110743   4.708   6.338   0.949
 3600TIP3    H210744   4.562   6.298   0.949
 3601TIP3   OH210745   1.118   2.296   6.518
 3601TIP3    H110746   1.148   2.268   6.604
 3601TIP3    H210747   1.025   2.276   6.517
 3602TIP3   OH210748   4.075   1.795   5.506
 3602TIP3    H110749   4.083   1.879   5.550
 3602TIP3    H210750   4.144   1.797   5.439
 3603TIP3   OH210751   1.412   7.744   4.686
 3603TIP3    H110752   1.506   7.736   4.698
 3603TIP3    H210753   1.377   7.749   4.775
 3604TIP3   OH210754   4.232   3.379   2.217
 3604TIP3    H110755   4.155   3.396   2.164
 3604TIP3    H210756   4.306   3.406   2.162
 3605TIP3   OH210757   5.261   5.380   3.096
 3605TIP3    H110758   5.176   5.395   3.054
 3605TIP3    H210759   5.283   5.464   3.136
 3606TIP3   OH210760   4.611   5.725   6.386
 3606TIP3    H110761   4.673   5.664   6.427
 3606TIP3    H210762   4.642   5.734   6.296
 3607TIP3   OH210763   5.575   4.611   0.109
 3607TIP3    H110764   5.631   4.610   0.186
 3607TIP3    H210765   5.534   4.697   0.109
 3608TIP3   OH210766   5.102   7.634   2.311
 3608TIP3    H110767   5.138   7.722   2.296
 3608TIP3    H210768   5.119   7.616   2.403
 3609TIP3   OH210769   1.123   7.649   2.884
 3609TIP3    H110770   1.089   7.561   2.904
 3609TIP3    H210771   1.077   7.706   2.945
 3610TIP3   OH210772   4.980   6.250   3.777
 3610TIP3    H110773   5.066   6.291   3.780
 3610TIP3    H210774   4.928   6.297   3.842
 3611TIP3   OH210775   4.727   4.163   3.433
 3611TIP3    H110776   4.697   4.250   3.410
 3611TIP3    H210777   4.784   4.137   3.360
 3612TIP3   OH210778   7.995   5.142   4.413
 3612TIP3    H110779   8.091   5.135   4.415
 3612TIP3    H210780   7.970   5.103   4.329
 3613TIP3   OH210781   1.085   5.378   0.704
 3613TIP3    H110782   1.056   5.444   0.640
 3613TIP3    H210783   1.142   5.427   0.764
 3614TIP3   OH210784   3.493   4.185   3.643
 3614TIP3    H110785   3.404   4.165   3.673
 3614TIP3    H210786   3.545   4.109   3.671
 3615TIP3   OH210787   1.667   4.988   3.256
 3615TIP3    H110788   1.620   5.017   3.334
 3615TIP3    H210789   1.599   4.977   3.189
 3616TIP3   OH210790   5.461   7.189   1.637
 3616TIP3    H110791   5.552   7.172   1.663
 3616TIP3    H210792   5.409   7.147   1.706
 3617TIP3   OH210793   1.647   4.684   2.957
 3617TIP3    H110794   1.710   4.611   2.956
 3617TIP3    H210795   1.579   4.655   3.018
 3618TIP3   OH210796   3.610   7.831   6.284
 3618TIP3    H110797   3.553   7.871   6.218
 3618TIP3    H210798   3.692   7.814   6.238
 3619TIP3   OH210799   7.743   5.104   3.772
 3619TIP3    H110800   7.828   5.149   3.776
 3619TIP3    H210801   7.681   5.169   3.805
 3620TIP3   OH210802   4.631   7.270   1.414
 3620TIP3    H110803   4.634   7.357   1.454
 3620TIP3    H210804   4.539   7.258   1.389
 3621TIP3   OH210805   3.769   0.208   3.769
 3621TIP3    H110806   3.756   0.245   3.681
 3621TIP3    H210807   3.681   0.205   3.806
 3622TIP3   OH210808   7.927   1.299   1.588
 3622TIP3    H110809   7.918   1.267   1.498
 3622TIP3    H210810   7.899   1.225   1.642
 3623TIP3   OH210811   1.019   7.614   4.662
 3623TIP3    H110812   0.967   7.651   4.590
 3623TIP3    H210813   1.094   7.573   4.619
 3624TIP3   OH210814   7.255   3.028   5.233
 3624TIP3    H110815   7.266   2.974   5.311
 3624TIP3    H210816   7.176   2.994   5.191
 3625TIP3   OH210817  -0.005   2.390   0.382
 3625TIP3    H110818  -0.023   2.364   0.472
 3625TIP3    H210819   0.089   2.373   0.370
 3626TIP3   OH210820   5.368   1.700   1.646
 3626TIP3    H110821   5.382   1.777   1.702
 3626TIP3    H210822   5.372   1.734   1.557
 3627TIP3   OH210823   5.088   6.379   2.686
 3627TIP3    H110824   5.048   6.294   2.670
 3627TIP3    H210825   5.045   6.438   2.624
 3628TIP3   OH210826   7.579   1.031   4.307
 3628TIP3    H110827   7.645   1.091   4.271
 3628TIP3    H210828   7.516   1.089   4.351
 3629TIP3   OH210829   3.275   3.227   1.502
 3629TIP3    H110830   3.253   3.191   1.588
 3629TIP3    H210831   3.313   3.153   1.454
 3630TIP3   OH210832   2.425   6.605   2.725
 3630TIP3    H110833   2.406   6.610   2.631
 3630TIP3    H210834   2.513   6.642   2.733
 3631TIP3   OH210835   4.895   7.750   3.125
 3631TIP3    H110836   4.827   7.701   3.170
 3631TIP3    H210837   4.849   7.823   3.083
 3632TIP3   OH210838   3.931   6.748   4.760
 3632TIP3    H110839   3.914   6.831   4.715
 3632TIP3    H210840   3.922   6.768   4.853
 3633TIP3   OH210841   3.925   4.733   1.920
 3633TIP3    H110842   3.916   4.826   1.900
 3633TIP3    H210843   3.840   4.708   1.957
 3634TIP3   OH210844   0.203   2.899   1.548
 3634TIP3    H110845   0.136   2.964   1.571
 3634TIP3    H210846   0.214   2.909   1.453
 3635TIP3   OH210847   6.949   1.625   2.305
 3635TIP3    H110848   6.880   1.690   2.313
 3635TIP3    H210849   6.971   1.602   2.395
 3636TIP3   OH210850   3.462   2.276   5.560
 3636TIP3    H110851   3.433   2.229   5.482
 3636TIP3    H210852   3.401   2.349   5.568
 3637TIP3   OH210853   8.032   3.780   2.417
 3637TIP3    H110854   8.002   3.864   2.382
 3637TIP3    H210855   8.123   3.796   2.443
 3638TIP3   OH210856   1.054   7.751   0.581
 3638TIP3    H110857   1.149   7.759   0.594
 3638TIP3    H210858   1.022   7.841   0.580
 3639TIP3   OH210859   3.535   2.648   0.738
 3639TIP3    H110860   3.540   2.727   0.684
 3639TIP3    H210861   3.487   2.586   0.684
 3640TIP3   OH210862   5.507   3.800   4.247
 3640TIP3    H110863   5.595   3.835   4.263
 3640TIP3    H210864   5.522   3.717   4.203
 3641TIP3   OH210865   1.768   2.203   0.424
 3641TIP3    H110866   1.686   2.191   0.375
 3641TIP3    H210867   1.739   2.215   0.515
 3642TIP3   OH210868   3.460   6.405   0.646
 3642TIP3    H110869   3.438   6.457   0.723
 3642TIP3    H210870   3.459   6.467   0.573
 3643TIP3   OH210871   6.776   1.755   5.568
 3643TIP3    H110872   6.718   1.819   5.527
 3643TIP3    H210873   6.850   1.748   5.508
 3644TIP3   OH210874   3.591   2.693   5.296
 3644TIP3    H110875   3.620   2.767   5.243
 3644TIP3    H210876   3.513   2.660   5.251
 3645TIP3   OH210877   5.303   3.920   4.791
 3645TIP3    H110878   5.351   3.843   4.760
 3645TIP3    H210879   5.278   3.966   4.711
 3646TIP3   OH210880   2.377   4.397   5.463
 3646TIP3    H110881   2.420   4.321   5.502
 3646TIP3    H210882   2.382   4.382   5.369
 3647TIP3   OH210883   7.466   5.828   0.276
 3647TIP3    H110884   7.517   5.760   0.319
 3647TIP3    H210885   7.425   5.784   0.201
 3648TIP3   OH210886   2.516   5.069   5.451
 3648TIP3    H110887   2.427   5.052   5.418
 3648TIP3    H210888   2.573   5.056   5.375
 3649TIP3   OH210889   0.090   3.413   5.606
 3649TIP3    H110890   0.140   3.495   5.607
 3649TIP3    H210891   0.134   3.357   5.670
 3650TIP3   OH210892   7.493   0.102   4.913
 3650TIP3    H110893   7.558   0.134   4.975
 3650TIP3    H210894   7.534   0.025   4.873
 3651TIP3   OH210895   6.528   1.679   0.872
 3651TIP3    H110896   6.583   1.628   0.931
 3651TIP3    H210897   6.543   1.770   0.898
 3652TIP3   OH210898   2.527   2.283   1.919
 3652TIP3    H110899   2.623   2.286   1.911
 3652TIP3    H210900   2.495   2.317   1.836
 3653TIP3   OH210901   7.129   4.287   0.546
 3653TIP3    H110902   7.219   4.300   0.576
 3653TIP3    H210903   7.078   4.350   0.595
 3654TIP3   OH210904   4.293   0.764   2.468
 3654TIP3    H110905   4.229   0.693   2.459
 3654TIP3    H210906   4.247   0.842   2.436
 3655TIP3   OH210907   5.060   1.328   4.497
 3655TIP3    H110908   5.097   1.313   4.584
 3655TIP3    H210909   5.026   1.243   4.470
 3656TIP3   OH210910   2.805   2.201   1.875
 3656TIP3    H110911   2.869   2.181   1.944
 3656TIP3    H210912   2.855   2.195   1.794
 3657TIP3   OH210913   0.534   5.722   2.389
 3657TIP3    H110914   0.539   5.636   2.347
 3657TIP3    H210915   0.514   5.782   2.317
 3658TIP3   OH210916   0.271   7.560   3.087
 3658TIP3    H110917   0.277   7.487   3.026
 3658TIP3    H210918   0.202   7.615   3.052
 3659TIP3   OH210919   4.981   6.609   1.866
 3659TIP3    H110920   4.902   6.597   1.918
 3659TIP3    H210921   5.027   6.681   1.908
 3660TIP3   OH210922   7.285   2.158   1.420
 3660TIP3    H110923   7.374   2.194   1.413
 3660TIP3    H210924   7.282   2.090   1.353
 3661TIP3   OH210925   4.270   4.994   6.696
 3661TIP3    H110926   4.197   5.028   6.645
 3661TIP3    H210927   4.347   5.012   6.643
 3662TIP3   OH210928   4.608   3.696   2.408
 3662TIP3    H110929   4.535   3.750   2.378
 3662TIP3    H210930   4.596   3.690   2.503
 3663TIP3   OH210931   4.386   2.511   5.349
 3663TIP3    H110932   4.346   2.588   5.390
 3663TIP3    H210933   4.312   2.457   5.322
 3664TIP3   OH210934   4.456   4.653   3.881
 3664TIP3    H110935   4.445   4.729   3.825
 3664TIP3    H210936   4.369   4.633   3.914
 3665TIP3   OH210937   6.041   2.896   3.173
 3665TIP3    H110938   6.029   2.991   3.176
 3665TIP3    H210939   5.970   2.865   3.117
 3666TIP3   OH210940   0.874   4.331   3.293
 3666TIP3    H110941   0.823   4.252   3.273
 3666TIP3    H210942   0.809   4.401   3.298
 3667TIP3   OH210943   4.376   7.149   2.735
 3667TIP3    H110944   4.336   7.207   2.800
 3667TIP3    H210945   4.391   7.205   2.659
 3668TIP3   OH210946   3.784   6.495   2.280
 3668TIP3    H110947   3.867   6.454   2.305
 3668TIP3    H210948   3.740   6.429   2.226
 3669TIP3   OH210949   5.691   1.783   2.489
 3669TIP3    H110950   5.712   1.802   2.398
 3669TIP3    H210951   5.773   1.752   2.527
 3670TIP3   OH210952   4.626   7.299   1.885
 3670TIP3    H110953   4.714   7.327   1.909
 3670TIP3    H210954   4.603   7.235   1.953
 3671TIP3   OH210955   2.902   0.367   6.463
 3671TIP3    H110956   2.966   0.436   6.483
 3671TIP3    H210957   2.952   0.286   6.470
 3672TIP3   OH210958   3.746   0.695   5.726
 3672TIP3    H110959   3.751   0.600   5.735
 3672TIP3    H210960   3.654   0.712   5.704
 3673TIP3   OH210961   3.760   2.317   5.972
 3673TIP3    H110962   3.761   2.231   6.015
 3673TIP3    H210963   3.670   2.326   5.939
 3674TIP3   OH210964   1.654   3.451   2.334
 3674TIP3    H110965   1.667   3.509   2.410
 3674TIP3    H210966   1.635   3.366   2.373
 3675TIP3   OH210967   3.985   3.796   4.005
 3675TIP3    H110968   3.907   3.763   4.049
 3675TIP3    H210969   4.034   3.717   3.980
 3676TIP3   OH210970   0.254   1.068   0.330
 3676TIP3    H110971   0.330   1.010   0.336
 3676TIP3    H210972   0.289   1.155   0.348
 3677TIP3   OH210973   0.622   6.165   4.614
 3677TIP3    H110974   0.556   6.140   4.549
 3677TIP3    H210975   0.646   6.255   4.590
 3678TIP3   OH210976   2.558   2.460   2.812
 3678TIP3    H110977   2.505   2.396   2.859
 3678TIP3    H210978   2.647   2.445   2.844
 3679TIP3   OH210979   4.985   7.315   0.556
 3679TIP3    H110980   4.981   7.250   0.627
 3679TIP3    H210981   5.035   7.388   0.592
 3680TIP3   OH210982   3.634   4.861   5.483
 3680TIP3    H110983   3.640   4.859   5.388
 3680TIP3    H210984   3.575   4.788   5.505
 3681TIP3   OH210985   1.459   1.410   4.602
 3681TIP3    H110986   1.455   1.493   4.553
 3681TIP3    H210987   1.529   1.423   4.665
 3682TIP3   OH210988   8.272   3.143   2.848
 3682TIP3    H110989   8.274   3.048   2.862
 3682TIP3    H210990   8.191   3.158   2.798
 3683TIP3   OH210991   4.557   7.346   5.146
 3683TIP3    H110992   4.612   7.378   5.218
 3683TIP3    H210993   4.584   7.398   5.071
 3684TIP3   OH210994   2.490   7.033   1.169
 3684TIP3    H110995   2.497   7.049   1.075
 3684TIP3    H210996   2.571   7.069   1.206
 3685TIP3   OH210997   7.398   7.523   1.374
 3685TIP3    H110998   7.312   7.527   1.332
 3685TIP3    H210999   7.411   7.610   1.411
 3686TIP3   OH211000   5.715   2.523   1.592
 3686TIP3    H111001   5.635   2.569   1.565
 3686TIP3    H211002   5.786   2.575   1.556
 3687TIP3   OH211003   0.908   0.265   5.862
 3687TIP3    H111004   0.863   0.303   5.937
 3687TIP3    H211005   0.986   0.224   5.899
 3688TIP3   OH211006   3.600   6.871   0.745
 3688TIP3    H111007   3.647   6.823   0.814
 3688TIP3    H211008   3.507   6.863   0.769
 3689TIP3   OH211009   7.084   4.523   4.704
 3689TIP3    H111010   7.119   4.612   4.709
 3689TIP3    H211011   7.134   4.474   4.769
 3690TIP3   OH211012   0.946   6.708   2.211
 3690TIP3    H111013   0.974   6.762   2.137
 3690TIP3    H211014   0.861   6.744   2.237
 3691TIP3   OH211015   4.777   0.096   2.797
 3691TIP3    H111016   4.816   0.062   2.877
 3691TIP3    H211017   4.796   0.190   2.799
 3692TIP3   OH211018   4.581   5.381   2.888
 3692TIP3    H111019   4.647   5.450   2.880
 3692TIP3    H211020   4.631   5.303   2.914
 3693TIP3   OH211021   0.542   4.404   3.389
 3693TIP3    H111022   0.568   4.398   3.481
 3693TIP3    H211023   0.500   4.319   3.371
 3694TIP3   OH211024   6.978   1.870   4.335
 3694TIP3    H111025   7.061   1.917   4.348
 3694TIP3    H211026   6.984   1.835   4.246
 3695TIP3   OH211027   7.134   7.365   1.630
 3695TIP3    H111028   7.097   7.367   1.719
 3695TIP3    H211029   7.189   7.287   1.628
 3696TIP3   OH211030   6.562   5.011   5.846
 3696TIP3    H111031   6.469   5.033   5.838
 3696TIP3    H211032   6.600   5.082   5.897
 3697TIP3   OH211033   4.906   2.855   2.362
 3697TIP3    H111034   4.969   2.805   2.310
 3697TIP3    H211035   4.928   2.836   2.453
 3698TIP3   OH211036   5.078   3.779   1.117
 3698TIP3    H111037   5.132   3.855   1.140
 3698TIP3    H211038   5.017   3.812   1.051
 3699TIP3   OH211039   4.340   3.308   3.316
 3699TIP3    H111040   4.430   3.281   3.296
 3699TIP3    H211041   4.339   3.318   3.411
 3700TIP3   OH211042   0.306   3.180   4.194
 3700TIP3    H111043   0.347   3.254   4.240
 3700TIP3    H211044   0.311   3.108   4.257
 3701TIP3   OH211045   6.173   5.553   6.655
 3701TIP3    H111046   6.161   5.459   6.641
 3701TIP3    H211047   6.246   5.558   6.717
 3702TIP3   OH211048   4.058   5.485   5.028
 3702TIP3    H111049   3.991   5.550   5.049
 3702TIP3    H211050   4.074   5.497   4.934
 3703TIP3   OH211051   2.150   5.723   5.930
 3703TIP3    H111052   2.151   5.681   6.016
 3703TIP3    H211053   2.169   5.815   5.948
 3704TIP3   OH211054   6.817   6.395   3.757
 3704TIP3    H111055   6.725   6.409   3.778
 3704TIP3    H211056   6.837   6.308   3.792
 3705TIP3   OH211057   7.624   3.739   2.448
 3705TIP3    H111058   7.531   3.731   2.468
 3705TIP3    H211059   7.627   3.795   2.370
 3706TIP3   OH211060   7.445   3.002   0.662
 3706TIP3    H111061   7.354   3.013   0.635
 3706TIP3    H211062   7.463   3.078   0.717
 3707TIP3   OH211063   2.766   4.040   5.486
 3707TIP3    H111064   2.689   4.050   5.541
 3707TIP3    H211065   2.774   4.124   5.440
 3708TIP3   OH211066   6.417   6.939   4.061
 3708TIP3    H111067   6.393   6.856   4.103
 3708TIP3    H211068   6.351   7.001   4.091
 3709TIP3   OH211069   5.275   7.407   2.581
 3709TIP3    H111070   5.237   7.383   2.496
 3709TIP3    H211071   5.261   7.501   2.588
 3710TIP3   OH211072   2.497   3.202   0.666
 3710TIP3    H111073   2.592   3.191   0.658
 3710TIP3    H211074   2.476   3.272   0.605
 3711TIP3   OH211075   6.113   1.542   5.596
 3711TIP3    H111076   6.204   1.551   5.624
 3711TIP3    H211077   6.112   1.463   5.542
 3712TIP3   OH211078   0.752   3.132   4.885
 3712TIP3    H111079   0.779   3.219   4.914
 3712TIP3    H211080   0.813   3.072   4.928
 3713TIP3   OH211081   5.345   7.515   5.233
 3713TIP3    H111082   5.393   7.433   5.243
 3713TIP3    H211083   5.358   7.560   5.317
 3714TIP3   OH211084   2.912   1.574   4.756
 3714TIP3    H111085   2.983   1.549   4.697
 3714TIP3    H211086   2.837   1.592   4.699
 3715TIP3   OH211087   6.090   5.062   3.008
 3715TIP3    H111088   6.159   5.079   2.943
 3715TIP3    H211089   6.022   5.016   2.958
 3716TIP3   OH211090   8.168   5.963   1.341
 3716TIP3    H111091   8.258   5.975   1.313
 3716TIP3    H211092   8.116   5.974   1.262
 3717TIP3   OH211093   7.822   1.864   1.730
 3717TIP3    H111094   7.884   1.934   1.710
 3717TIP3    H211095   7.812   1.817   1.647
 3718TIP3   OH211096   0.306   6.768   6.554
 3718TIP3    H111097   0.218   6.801   6.571
 3718TIP3    H211098   0.310   6.685   6.603
 3719TIP3   OH211099   6.991   4.919   2.014
 3719TIP3    H111100   7.061   4.896   1.953
 3719TIP3    H211101   6.995   5.015   2.020
 3720TIP3   OH211102   1.213   6.441   5.229
 3720TIP3    H111103   1.238   6.485   5.148
 3720TIP3    H211104   1.246   6.351   5.219
 3721TIP3   OH211105   7.149   4.302   1.185
 3721TIP3    H111106   7.116   4.344   1.264
 3721TIP3    H211107   7.205   4.231   1.216
 3722TIP3   OH211108   2.428   6.716   2.455
 3722TIP3    H111109   2.456   6.788   2.512
 3722TIP3    H211110   2.507   6.690   2.408
 3723TIP3   OH211111   2.556   1.029   1.040
 3723TIP3    H111112   2.470   1.009   1.076
 3723TIP3    H211113   2.603   1.070   1.113
 3724TIP3   OH211114   7.963   5.020   0.363
 3724TIP3    H111115   7.882   5.068   0.345
 3724TIP3    H211116   8.024   5.087   0.394
 3725TIP3   OH211117   6.837   0.829   6.729
 3725TIP3    H111118   6.815   0.847   6.637
 3725TIP3    H211119   6.903   0.760   6.724
 3726TIP3   OH211120   4.172   5.532   1.740
 3726TIP3    H111121   4.167   5.462   1.675
 3726TIP3    H211122   4.087   5.531   1.784
 3727TIP3   OH211123   6.487   5.516   0.680
 3727TIP3    H111124   6.436   5.457   0.735
 3727TIP3    H211125   6.538   5.458   0.623
 3728TIP3   OH211126   7.098   4.394   4.386
 3728TIP3    H111127   7.159   4.337   4.432
 3728TIP3    H211128   7.030   4.335   4.354
 3729TIP3   OH211129   4.796   5.218   4.165
 3729TIP3    H111130   4.872   5.258   4.207
 3729TIP3    H211131   4.797   5.127   4.196
 3730TIP3   OH211132   1.673   3.478   6.327
 3730TIP3    H111133   1.612   3.470   6.254
 3730TIP3    H211134   1.709   3.567   6.320
 3731TIP3   OH211135   2.714   1.626   4.541
 3731TIP3    H111136   2.694   1.568   4.468
 3731TIP3    H211137   2.629   1.647   4.580
 3732TIP3   OH211138   7.887   7.221   0.816
 3732TIP3    H111139   7.798   7.256   0.804
 3732TIP3    H211140   7.933   7.247   0.736
 3733TIP3   OH211141   6.899   1.030   2.743
 3733TIP3    H111142   6.939   1.117   2.744
 3733TIP3    H211143   6.964   0.975   2.700
 3734TIP3   OH211144   5.584   0.019   1.239
 3734TIP3    H111145   5.555  -0.033   1.313
 3734TIP3    H211146   5.615   0.101   1.277
 3735TIP3   OH211147   2.854   1.414   4.156
 3735TIP3    H111148   2.900   1.331   4.152
 3735TIP3    H211149   2.914   1.472   4.203
 3736TIP3   OH211150   3.696   6.467   0.372
 3736TIP3    H111151   3.731   6.400   0.430
 3736TIP3    H211152   3.653   6.418   0.302
 3737TIP3   OH211153   7.351   1.019   2.940
 3737TIP3    H111154   7.366   0.925   2.936
 3737TIP3    H211155   7.426   1.054   2.989
 3738TIP3   OH211156   5.788   2.243   3.327
 3738TIP3    H111157   5.718   2.305   3.310
 3738TIP3    H211158   5.839   2.283   3.397
 3739TIP3   OH211159   3.555   7.343   3.686
 3739TIP3    H111160   3.464   7.371   3.680
 3739TIP3    H211161   3.583   7.369   3.774
 3740TIP3   OH211162   4.295   1.653   1.227
 3740TIP3    H111163   4.252   1.702   1.297
 3740TIP3    H211164   4.367   1.607   1.270
 3741TIP3   OH211165   1.351   2.794   2.691
 3741TIP3    H111166   1.272   2.751   2.657
 3741TIP3    H211167   1.423   2.750   2.646
 3742TIP3   OH211168   2.982   5.239   1.026
 3742TIP3    H111169   3.077   5.245   1.040
 3742TIP3    H211170   2.973   5.220   0.933
 3743TIP3   OH211171   2.391   7.126   2.446
 3743TIP3    H111172   2.329   7.197   2.465
 3743TIP3    H211173   2.476   7.160   2.474
 3744TIP3   OH211174   4.673   3.231   1.596
 3744TIP3    H111175   4.669   3.159   1.658
 3744TIP3    H211176   4.694   3.189   1.512
 3745TIP3   OH211177   0.539   1.686   1.040
 3745TIP3    H111178   0.623   1.654   1.007
 3745TIP3    H211179   0.556   1.706   1.132
 3746TIP3   OH211180   2.988   3.016   5.906
 3746TIP3    H111181   3.001   3.084   5.839
 3746TIP3    H211182   3.061   3.027   5.966
 3747TIP3   OH211183   1.021   7.441   4.074
 3747TIP3    H111184   1.008   7.434   3.980
 3747TIP3    H211185   1.116   7.443   4.085
 3748TIP3   OH211186   4.666   4.087   6.339
 3748TIP3    H111187   4.634   4.112   6.253
 3748TIP3    H211188   4.741   4.144   6.355
 3749TIP3   OH211189   5.310   1.120   2.626
 3749TIP3    H111190   5.314   1.059   2.552
 3749TIP3    H211191   5.243   1.184   2.600
 3750TIP3   OH211192   1.803   2.287   6.416
 3750TIP3    H111193   1.816   2.368   6.467
 3750TIP3    H211194   1.891   2.258   6.394
 3751TIP3   OH211195   4.447   5.564   0.635
 3751TIP3    H111196   4.481   5.573   0.546
 3751TIP3    H211197   4.491   5.633   0.685
 3752TIP3   OH211198   4.482   3.271   0.339
 3752TIP3    H111199   4.405   3.291   0.391
 3752TIP3    H211200   4.552   3.323   0.378
 3753TIP3   OH211201   6.078   0.159   0.442
 3753TIP3    H111202   6.169   0.133   0.458
 3753TIP3    H211203   6.053   0.111   0.363
 3754TIP3   OH211204   3.239   2.255   2.865
 3754TIP3    H111205   3.322   2.231   2.907
 3754TIP3    H211206   3.266   2.297   2.782
 3755TIP3   OH211207   0.275   2.716   3.317
 3755TIP3    H111208   0.259   2.643   3.377
 3755TIP3    H211209   0.254   2.681   3.230
 3756TIP3   OH211210   0.541   7.757   5.694
 3756TIP3    H111211   0.506   7.754   5.605
 3756TIP3    H211212   0.492   7.690   5.741
 3757TIP3   OH211213   2.350   1.159   1.821
 3757TIP3    H111214   2.370   1.253   1.818
 3757TIP3    H211215   2.357   1.136   1.913
 3758TIP3   OH211216   5.684   6.108   5.223
 3758TIP3    H111217   5.627   6.142   5.154
 3758TIP3    H211218   5.736   6.184   5.250
 3759TIP3   OH211219   0.240   1.405   4.721
 3759TIP3    H111220   0.224   1.429   4.812
 3759TIP3    H211221   0.332   1.377   4.719
 3760TIP3   OH211222   7.933   0.292   6.601
 3760TIP3    H111223   8.018   0.279   6.642
 3760TIP3    H211224   7.911   0.383   6.621
 3761TIP3   OH211225   7.962   0.421   6.053
 3761TIP3    H111226   7.985   0.355   6.118
 3761TIP3    H211227   7.867   0.413   6.045
 3762TIP3   OH211228   0.574   5.173   2.848
 3762TIP3    H111229   0.633   5.146   2.918
 3762TIP3    H211230   0.587   5.267   2.841
 3763TIP3   OH211231   2.642   6.804   5.216
 3763TIP3    H111232   2.644   6.841   5.304
 3763TIP3    H211233   2.708   6.853   5.168
 3764TIP3   OH211234   8.041   7.361   3.693
 3764TIP3    H111235   7.981   7.362   3.767
 3764TIP3    H211236   8.121   7.404   3.726
 3765TIP3   OH211237   4.130   3.579   3.851
 3765TIP3    H111238   4.106   3.517   3.920
 3765TIP3    H211239   4.223   3.563   3.836
 3766TIP3   OH211240   5.143   5.837   6.199
 3766TIP3    H111241   5.060   5.808   6.162
 3766TIP3    H211242   5.209   5.783   6.155
 3767TIP3   OH211243   3.173   0.149   6.293
 3767TIP3    H111244   3.116   0.120   6.364
 3767TIP3    H211245   3.260   0.118   6.318
 3768TIP3   OH211246   6.680   6.263   3.278
 3768TIP3    H111247   6.689   6.238   3.186
 3768TIP3    H211248   6.602   6.216   3.308
 3769TIP3   OH211249   5.318   5.918   2.249
 3769TIP3    H111250   5.338   5.830   2.279
 3769TIP3    H211251   5.383   5.974   2.293
 3770TIP3   OH211252   7.923   6.518   1.386
 3770TIP3    H111253   7.940   6.425   1.403
 3770TIP3    H211254   7.992   6.544   1.325
 3771TIP3   OH211255   1.065   7.741   1.988
 3771TIP3    H111256   1.127   7.752   1.915
 3771TIP3    H211257   1.112   7.686   2.051
 3772TIP3   OH211258   4.092   5.617   0.576
 3772TIP3    H111259   4.187   5.610   0.586
 3772TIP3    H211260   4.069   5.701   0.615
 3773TIP3   OH211261   1.254   5.385   5.163
 3773TIP3    H111262   1.328   5.407   5.220
 3773TIP3    H211263   1.189   5.453   5.182
 3774TIP3   OH211264   1.254   5.192   0.555
 3774TIP3    H111265   1.259   5.104   0.594
 3774TIP3    H211266   1.181   5.234   0.600
 3775TIP3   OH211267   5.010   4.213   5.532
 3775TIP3    H111268   4.934   4.267   5.554
 3775TIP3    H211269   5.022   4.156   5.608
 3776TIP3   OH211270   4.569   1.969   6.293
 3776TIP3    H111271   4.599   2.022   6.367
 3776TIP3    H211272   4.487   1.929   6.323
 3777TIP3   OH211273   2.143   7.013   4.898
 3777TIP3    H111274   2.177   7.063   4.824
 3777TIP3    H211275   2.207   7.027   4.968
 3778TIP3   OH211276   8.287   6.567   3.885
 3778TIP3    H111277   8.241   6.633   3.833
 3778TIP3    H211278   8.343   6.521   3.822
 3779TIP3   OH211279   7.490   0.803   3.474
 3779TIP3    H111280   7.455   0.737   3.414
 3779TIP3    H211281   7.518   0.875   3.417
 3780TIP3   OH211282   7.963   2.472   2.389
 3780TIP3    H111283   7.950   2.566   2.379
 3780TIP3    H211284   7.880   2.440   2.424
 3781TIP3   OH211285   7.915   6.291   5.044
 3781TIP3    H111286   7.873   6.356   4.987
 3781TIP3    H211287   7.978   6.247   4.988
 3782TIP3   OH211288   2.180   0.643   4.810
 3782TIP3    H111289   2.160   0.558   4.851
 3782TIP3    H211290   2.213   0.621   4.723
 3783TIP3   OH211291   1.756   1.048   4.863
 3783TIP3    H111292   1.828   0.995   4.897
 3783TIP3    H211293   1.704   0.987   4.811
 3784TIP3   OH211294   1.371   0.741   2.528
 3784TIP3    H111295   1.367   0.832   2.499
 3784TIP3    H211296   1.457   0.732   2.568
 3785TIP3   OH211297   7.273   1.951   2.116
 3785TIP3    H111298   7.228   2.033   2.134
 3785TIP3    H211299   7.280   1.948   2.020
 3786TIP3   OH211300   5.581   1.532   5.869
 3786TIP3    H111301   5.610   1.596   5.933
 3786TIP3    H211302   5.557   1.455   5.921
 3787TIP3   OH211303   1.841   6.472   5.657
 3787TIP3    H111304   1.925   6.512   5.638
 3787TIP3    H211305   1.857   6.378   5.649
 3788TIP3   OH211306   3.459   3.117   3.048
 3788TIP3    H111307   3.490   3.027   3.039
 3788TIP3    H211308   3.528   3.170   3.008
 3789TIP3   OH211309   3.485   2.815   4.575
 3789TIP3    H111310   3.392   2.835   4.591
 3789TIP3    H211311   3.520   2.795   4.661
 3790TIP3   OH211312   0.821   3.799   1.933
 3790TIP3    H111313   0.900   3.759   1.898
 3790TIP3    H211314   0.785   3.850   1.860
 3791TIP3   OH211315   5.262   2.776   5.643
 3791TIP3    H111316   5.336   2.793   5.584
 3791TIP3    H211317   5.219   2.860   5.653
 3792TIP3   OH211318   0.021   6.262   5.697
 3792TIP3    H111319   0.036   6.332   5.633
 3792TIP3    H211320   0.023   6.307   5.782
 3793TIP3   OH211321   4.523   2.992   4.444
 3793TIP3    H111322   4.453   2.950   4.495
 3793TIP3    H211323   4.477   3.054   4.387
 3794TIP3   OH211324   0.220   6.636   4.524
 3794TIP3    H111325   0.246   6.640   4.432
 3794TIP3    H211326   0.244   6.547   4.552
 3795TIP3   OH211327   2.178   6.997   3.635
 3795TIP3    H111328   2.100   7.050   3.647
 3795TIP3    H211329   2.251   7.057   3.650
 3796TIP3   OH211330   0.628   7.474   0.553
 3796TIP3    H111331   0.714   7.496   0.517
 3796TIP3    H211332   0.629   7.512   0.641
 3797TIP3   OH211333   4.432   3.769   4.608
 3797TIP3    H111334   4.513   3.807   4.640
 3797TIP3    H211335   4.412   3.818   4.528
 3798TIP3   OH211336   0.213   0.007   6.177
 3798TIP3    H111337   0.182   0.090   6.140
 3798TIP3    H211338   0.220   0.024   6.271
 3799TIP3   OH211339   2.991   2.546   5.954
 3799TIP3    H111340   3.034   2.600   5.889
 3799TIP3    H211341   2.973   2.463   5.909
 3800TIP3   OH211342   1.114   0.670   5.858
 3800TIP3    H111343   1.200   0.677   5.901
 3800TIP3    H211344   1.124   0.598   5.796
 3801TIP3   OH211345   1.876   7.578   2.011
 3801TIP3    H111346   1.924   7.660   1.999
 3801TIP3    H211347   1.850   7.552   1.922
 3802TIP3   OH211348   3.983   0.439   0.737
 3802TIP3    H111349   4.070   0.401   0.721
 3802TIP3    H211350   3.948   0.457   0.650
 3803TIP3   OH211351   5.819   2.174   5.813
 3803TIP3    H111352   5.847   2.145   5.726
 3803TIP3    H211353   5.827   2.269   5.811
 3804TIP3   OH211354   7.880   5.966   4.455
 3804TIP3    H111355   7.798   6.014   4.445
 3804TIP3    H211356   7.917   5.997   4.537
 3805TIP3   OH211357   0.034   0.287   1.790
 3805TIP3    H111358   0.123   0.253   1.787
 3805TIP3    H211359   0.037   0.369   1.742
 3806TIP3   OH211360   7.452  -0.017   5.380
 3806TIP3    H111361   7.489   0.057   5.428
 3806TIP3    H211362   7.415   0.022   5.301
 3807TIP3   OH211363   2.474   3.586   4.530
 3807TIP3    H111364   2.484   3.571   4.624
 3807TIP3    H211365   2.555   3.552   4.491
 3808TIP3   OH211366   2.372   7.080   6.079
 3808TIP3    H111367   2.367   7.063   6.173
 3808TIP3    H211368   2.281   7.096   6.053
 3809TIP3   OH211369   7.995   0.339   3.663
 3809TIP3    H111370   8.024   0.427   3.639
 3809TIP3    H211371   8.072   0.298   3.702
 3810TIP3   OH211372   6.447   2.302   6.286
 3810TIP3    H111373   6.494   2.266   6.361
 3810TIP3    H211374   6.514   2.348   6.235
 3811TIP3   OH211375   2.170   3.871   1.083
 3811TIP3    H111376   2.263   3.850   1.074
 3811TIP3    H211377   2.126   3.789   1.061
 3812TIP3   OH211378   2.256   0.079   0.678
 3812TIP3    H111379   2.199   0.145   0.720
 3812TIP3    H211380   2.225   0.076   0.588
 3813TIP3   OH211381   0.976   0.805   5.055
 3813TIP3    H111382   0.901   0.857   5.084
 3813TIP3    H211383   1.044   0.869   5.035
 3814TIP3   OH211384   1.564   0.830   3.066
 3814TIP3    H111385   1.579   0.740   3.037
 3814TIP3    H211386   1.481   0.828   3.112
 3815TIP3   OH211387   7.602   6.845   4.628
 3815TIP3    H111388   7.689   6.885   4.623
 3815TIP3    H211389   7.610   6.762   4.581
 3816TIP3   OH211390   6.825   0.411   5.561
 3816TIP3    H111391   6.867   0.333   5.524
 3816TIP3    H211392   6.733   0.405   5.534
 3817TIP3   OH211393   2.159   0.251   6.697
 3817TIP3    H111394   2.145   0.175   6.640
 3817TIP3    H211395   2.252   0.272   6.685
 3818TIP3   OH211396   0.498   4.149   1.745
 3818TIP3    H111397   0.579   4.198   1.754
 3818TIP3    H211398   0.503   4.110   1.658
 3819TIP3   OH211399   6.454   1.133   3.923
 3819TIP3    H111400   6.466   1.038   3.932
 3819TIP3    H211401   6.381   1.153   3.981
 3820TIP3   OH211402   0.336   7.183   5.016
 3820TIP3    H111403   0.388   7.242   4.962
 3820TIP3    H211404   0.400   7.128   5.061
 3821TIP3   OH211405   4.962   5.781   2.356
 3821TIP3    H111406   5.026   5.710   2.367
 3821TIP3    H211407   4.883   5.749   2.397
 3822TIP3   OH211408   5.541   3.893   3.019
 3822TIP3    H111409   5.607   3.834   3.056
 3822TIP3    H211410   5.588   3.940   2.950
 3823TIP3   OH211411   2.933   1.156   4.683
 3823TIP3    H111412   2.916   1.093   4.753
 3823TIP3    H211413   2.846   1.188   4.658
 3824TIP3   OH211414   0.778   3.623   4.888
 3824TIP3    H111415   0.682   3.618   4.889
 3824TIP3    H211416   0.798   3.694   4.950
 3825TIP3   OH211417   5.360   2.644   0.772
 3825TIP3    H111418   5.380   2.700   0.698
 3825TIP3    H211419   5.329   2.703   0.840
 3826TIP3   OH211420   3.763   1.961   1.309
 3826TIP3    H111421   3.850   1.945   1.270
 3826TIP3    H211422   3.765   1.913   1.391
 3827TIP3   OH211423   4.187   6.613   4.774
 3827TIP3    H111424   4.106   6.664   4.776
 3827TIP3    H211425   4.158   6.522   4.785
 3828TIP3   OH211426   7.212   3.814   5.929
 3828TIP3    H111427   7.141   3.812   5.992
 3828TIP3    H211428   7.214   3.725   5.892
 3829TIP3   OH211429   4.247   1.237   5.492
 3829TIP3    H111430   4.299   1.167   5.454
 3829TIP3    H211431   4.228   1.296   5.419
 3830TIP3   OH211432   3.995   4.736   0.439
 3830TIP3    H111433   3.931   4.760   0.506
 3830TIP3    H211434   3.946   4.682   0.377
 3831TIP3   OH211435   2.494   4.128   0.305
 3831TIP3    H111436   2.439   4.099   0.378
 3831TIP3    H211437   2.483   4.061   0.238
 3832TIP3   OH211438   7.138   3.708   1.388
 3832TIP3    H111439   7.048   3.677   1.394
 3832TIP3    H211440   7.163   3.725   1.479
 3833TIP3   OH211441   4.287   6.080   4.003
 3833TIP3    H111442   4.333   6.126   3.933
 3833TIP3    H211443   4.216   6.139   4.029
 3834TIP3   OH211444   1.827   0.552   2.986
 3834TIP3    H111445   1.897   0.486   2.990
 3834TIP3    H211446   1.763   0.522   3.051
 3835TIP3   OH211447   5.445   1.263   5.676
 3835TIP3    H111448   5.523   1.318   5.668
 3835TIP3    H211449   5.477   1.174   5.670
 3836TIP3   OH211450   3.045   0.485   2.721
 3836TIP3    H111451   2.990   0.559   2.745
 3836TIP3    H211452   3.042   0.483   2.625
 3837TIP3   OH211453   3.106   6.040   0.386
 3837TIP3    H111454   3.157   6.013   0.310
 3837TIP3    H211455   3.057   6.116   0.357
 3838TIP3   OH211456   1.741   3.682   1.544
 3838TIP3    H111457   1.816   3.692   1.603
 3838TIP3    H211458   1.750   3.753   1.481
 3839TIP3   OH211459   2.847   3.497   1.337
 3839TIP3    H111460   2.857   3.587   1.367
 3839TIP3    H211461   2.778   3.460   1.392
 3840TIP3   OH211462   4.508   3.964   0.600
 3840TIP3    H111463   4.590   3.915   0.610
 3840TIP3    H211464   4.473   3.971   0.689
 3841TIP3   OH211465   5.815   2.477   5.721
 3841TIP3    H111466   5.846   2.566   5.742
 3841TIP3    H211467   5.871   2.449   5.648
 3842TIP3   OH211468   0.127   1.540   0.316
 3842TIP3    H111469   0.160   1.601   0.383
 3842TIP3    H211470   0.116   1.593   0.238
 3843TIP3   OH211471   3.333   5.253   2.009
 3843TIP3    H111472   3.374   5.167   1.996
 3843TIP3    H211473   3.391   5.298   2.071
 3844TIP3   OH211474   1.561   7.512   6.513
 3844TIP3    H111475   1.489   7.572   6.531
 3844TIP3    H211476   1.554   7.493   6.419
 3845TIP3   OH211477   2.354   6.195   2.231
 3845TIP3    H111478   2.266   6.231   2.240
 3845TIP3    H211479   2.412   6.271   2.236
 3846TIP3   OH211480   3.351   6.995   2.940
 3846TIP3    H111481   3.335   7.024   3.030
 3846TIP3    H211482   3.445   7.003   2.928
 3847TIP3   OH211483   3.013   7.582   0.533
 3847TIP3    H111484   3.107   7.568   0.545
 3847TIP3    H211485   3.001   7.676   0.543
 3848TIP3   OH211486   0.743   7.252   4.962
 3848TIP3    H111487   0.762   7.294   4.878
 3848TIP3    H211488   0.820   7.199   4.981
 3849TIP3   OH211489   5.724   4.557   0.347
 3849TIP3    H111490   5.748   4.612   0.422
 3849TIP3    H211491   5.807   4.518   0.319
 3850TIP3   OH211492   4.101   5.727   1.526
 3850TIP3    H111493   4.145   5.807   1.556
 3850TIP3    H211494   4.139   5.657   1.580
 3851TIP3   OH211495   0.965   4.113   4.516
 3851TIP3    H111496   0.903   4.184   4.530
 3851TIP3    H211497   0.928   4.038   4.563
 3852TIP3   OH211498   5.107   3.833   2.421
 3852TIP3    H111499   5.189   3.867   2.387
 3852TIP3    H211500   5.040   3.889   2.381
 3853TIP3   OH211501   2.611   2.986   1.442
 3853TIP3    H111502   2.565   3.022   1.518
 3853TIP3    H211503   2.670   3.055   1.415
 3854TIP3   OH211504   0.776   2.018   4.921
 3854TIP3    H111505   0.754   2.037   4.830
 3854TIP3    H211506   0.693   1.986   4.959
 3855TIP3   OH211507   7.638   3.599   5.672
 3855TIP3    H111508   7.661   3.597   5.765
 3855TIP3    H211509   7.677   3.681   5.641
 3856TIP3   OH211510   2.245   4.922   5.919
 3856TIP3    H111511   2.335   4.953   5.928
 3856TIP3    H211512   2.194   4.976   5.979
 3857TIP3   OH211513   3.492   3.242   0.473
 3857TIP3    H111514   3.432   3.176   0.506
 3857TIP3    H211515   3.572   3.229   0.523
 3858TIP3   OH211516   5.681   6.869   3.543
 3858TIP3    H111517   5.704   6.915   3.623
 3858TIP3    H211518   5.749   6.801   3.534
 3859TIP3   OH211519   0.925   2.683   6.090
 3859TIP3    H111520   0.841   2.637   6.084
 3859TIP3    H211521   0.989   2.613   6.108
 3860TIP3   OH211522   8.044   2.220   4.631
 3860TIP3    H111523   8.105   2.294   4.637
 3860TIP3    H211524   7.963   2.260   4.598
 3861TIP3   OH211525   3.309   7.512   6.246
 3861TIP3    H111526   3.236   7.450   6.246
 3861TIP3    H211527   3.360   7.490   6.168
 3862TIP3   OH211528   2.010   4.337   3.833
 3862TIP3    H111529   2.029   4.276   3.762
 3862TIP3    H211530   2.094   4.353   3.876
 3863TIP3   OH211531   6.198   7.290   4.974
 3863TIP3    H111532   6.147   7.340   4.910
 3863TIP3    H211533   6.271   7.348   4.997
 3864TIP3   OH211534   6.405   0.376   1.010
 3864TIP3    H111535   6.416   0.440   1.080
 3864TIP3    H211536   6.447   0.297   1.043
 3865TIP3   OH211537   0.139   2.439   5.835
 3865TIP3    H111538   0.132   2.367   5.773
 3865TIP3    H211539   0.095   2.407   5.914
 3866TIP3   OH211540   3.050   3.995   4.029
 3866TIP3    H111541   3.021   4.026   4.114
 3866TIP3    H211542   3.048   3.899   4.036
 3867TIP3   OH211543   1.363   6.056   3.371
 3867TIP3    H111544   1.354   5.961   3.368
 3867TIP3    H211545   1.427   6.077   3.303
 3868TIP3   OH211546   7.041   4.079   4.564
 3868TIP3    H111547   7.060   3.996   4.519
 3868TIP3    H211548   7.118   4.133   4.547
 3869TIP3   OH211549   0.296   2.085   4.658
 3869TIP3    H111550   0.293   2.153   4.591
 3869TIP3    H211551   0.229   2.112   4.722
 3870TIP3   OH211552   5.877   2.286   1.319
 3870TIP3    H111553   5.799   2.311   1.368
 3870TIP3    H211554   5.906   2.367   1.278
 3871TIP3   OH211555   2.409   5.915   3.084
 3871TIP3    H111556   2.384   5.962   3.164
 3871TIP3    H211557   2.331   5.918   3.029
 3872TIP3   OH211558   6.252   2.439   0.799
 3872TIP3    H111559   6.341   2.418   0.770
 3872TIP3    H211560   6.241   2.391   0.881
 3873TIP3   OH211561   0.060   3.251   4.093
 3873TIP3    H111562   0.057   3.344   4.115
 3873TIP3    H211563   0.135   3.217   4.142
 3874TIP3   OH211564   3.758   5.118   2.433
 3874TIP3    H111565   3.829   5.136   2.371
 3874TIP3    H211566   3.761   5.190   2.495
 3875TIP3   OH211567   1.252   0.357   5.232
 3875TIP3    H111568   1.250   0.305   5.152
 3875TIP3    H211569   1.345   0.379   5.244
 3876TIP3   OH211570   0.839   6.710   4.580
 3876TIP3    H111571   0.878   6.751   4.503
 3876TIP3    H211572   0.766   6.767   4.603
 3877TIP3   OH211573   6.917   5.713   4.054
 3877TIP3    H111574   6.887   5.625   4.075
 3877TIP3    H211575   6.929   5.756   4.139
 3878TIP3   OH211576   0.574   7.338   2.339
 3878TIP3    H111577   0.505   7.287   2.381
 3878TIP3    H211578   0.603   7.284   2.265
 3879TIP3   OH211579   5.181   0.502   5.931
 3879TIP3    H111580   5.271   0.481   5.905
 3879TIP3    H211581   5.145   0.419   5.961
 3880TIP3   OH211582   0.548   7.655   4.254
 3880TIP3    H111583   0.515   7.566   4.264
 3880TIP3    H211584   0.602   7.652   4.175
 3881TIP3   OH211585   3.305   5.228   3.816
 3881TIP3    H111586   3.321   5.185   3.732
 3881TIP3    H211587   3.393   5.246   3.850
 3882TIP3   OH211588   2.129   2.793   4.907
 3882TIP3    H111589   2.046   2.823   4.946
 3882TIP3    H211590   2.175   2.873   4.885
 3883TIP3   OH211591   0.548   2.087   0.689
 3883TIP3    H111592   0.511   2.009   0.647
 3883TIP3    H211593   0.563   2.061   0.780
 3884TIP3   OH211594   5.710   2.881   3.603
 3884TIP3    H111595   5.793   2.897   3.559
 3884TIP3    H211596   5.660   2.962   3.592
 3885TIP3   OH211597   7.882   2.531   4.774
 3885TIP3    H111598   7.807   2.537   4.714
 3885TIP3    H211599   7.956   2.565   4.724
 3886TIP3   OH211600   3.947   6.788   5.037
 3886TIP3    H111601   3.997   6.723   5.086
 3886TIP3    H211602   4.014   6.845   4.999
 3887TIP3   OH211603   6.675   2.851   4.797
 3887TIP3    H111604   6.716   2.765   4.786
 3887TIP3    H211605   6.681   2.868   4.891
 3888TIP3   OH211606   6.851   1.331   1.097
 3888TIP3    H111607   6.883   1.294   1.015
 3888TIP3    H211608   6.772   1.281   1.118
 3889TIP3   OH211609   4.021   2.875   2.629
 3889TIP3    H111610   3.999   2.788   2.661
 3889TIP3    H211611   3.936   2.917   2.613
 3890TIP3   OH211612   8.274   3.203   1.317
 3890TIP3    H111613   8.279   3.297   1.304
 3890TIP3    H211614   8.339   3.184   1.385
 3891TIP3   OH211615   2.639   5.109   3.758
 3891TIP3    H111616   2.681   5.162   3.689
 3891TIP3    H211617   2.547   5.134   3.755
 3892TIP3   OH211618   0.321   4.452   0.281
 3892TIP3    H111619   0.316   4.386   0.350
 3892TIP3    H211620   0.241   4.439   0.230
 3893TIP3   OH211621   2.910   0.868   4.195
 3893TIP3    H111622   2.843   0.851   4.262
 3893TIP3    H211623   2.980   0.806   4.215
 3894TIP3   OH211624   0.672   4.909   0.435
 3894TIP3    H111625   0.630   4.995   0.438
 3894TIP3    H211626   0.695   4.890   0.526
 3895TIP3   OH211627   6.484   0.446   6.750
 3895TIP3    H111628   6.408   0.390   6.739
 3895TIP3    H211629   6.459   0.530   6.711
 3896TIP3   OH211630   3.776   5.790   5.523
 3896TIP3    H111631   3.798   5.882   5.508
 3896TIP3    H211632   3.686   5.791   5.555
 3897TIP3   OH211633   1.101   4.405   1.671
 3897TIP3    H111634   1.037   4.390   1.742
 3897TIP3    H211635   1.155   4.327   1.671
 3898TIP3   OH211636   2.412   6.745   1.765
 3898TIP3    H111637   2.426   6.695   1.846
 3898TIP3    H211638   2.324   6.722   1.737
 3899TIP3   OH211639   3.881   6.753   1.351
 3899TIP3    H111640   3.925   6.833   1.380
 3899TIP3    H211641   3.912   6.740   1.261
 3900TIP3   OH211642   7.001   6.179   2.106
 3900TIP3    H111643   7.051   6.167   2.026
 3900TIP3    H211644   7.029   6.265   2.139
 3901TIP3   OH211645   2.539   3.256   6.207
 3901TIP3    H111646   2.446   3.233   6.211
 3901TIP3    H211647   2.547   3.310   6.128
 3902TIP3   OH211648   3.836   7.255   3.190
 3902TIP3    H111649   3.847   7.208   3.272
 3902TIP3    H211650   3.791   7.192   3.133
 3903TIP3   OH211651   6.523   6.588   5.120
 3903TIP3    H111652   6.600   6.628   5.161
 3903TIP3    H211653   6.459   6.659   5.115
 3904TIP3   OH211654   6.555   4.392   4.895
 3904TIP3    H111655   6.563   4.474   4.944
 3904TIP3    H211656   6.634   4.390   4.840
 3905TIP3   OH211657   5.551   5.050   0.279
 3905TIP3    H111658   5.557   5.145   0.290
 3905TIP3    H211659   5.563   5.015   0.367
 3906TIP3   OH211660   8.287   3.117   0.482
 3906TIP3    H111661   8.325   3.030   0.492
 3906TIP3    H211662   8.199   3.109   0.517
 3907TIP3   OH211663   3.898   2.189   6.395
 3907TIP3    H111664   3.916   2.271   6.348
 3907TIP3    H211665   3.850   2.217   6.473
 3908TIP3   OH211666   3.825   1.233   2.211
 3908TIP3    H111667   3.752   1.177   2.237
 3908TIP3    H211668   3.858   1.268   2.294
 3909TIP3   OH211669   6.436   2.754   5.559
 3909TIP3    H111670   6.521   2.719   5.586
 3909TIP3    H211671   6.397   2.787   5.640
 3910TIP3   OH211672   2.273   2.971   0.452
 3910TIP3    H111673   2.210   2.993   0.384
 3910TIP3    H211674   2.358   2.983   0.410
 3911TIP3   OH211675   3.251   0.367   2.342
 3911TIP3    H111676   3.345   0.352   2.348
 3911TIP3    H211677   3.237   0.398   2.253
 3912TIP3   OH211678   3.154   7.203   3.168
 3912TIP3    H111679   3.244   7.200   3.200
 3912TIP3    H211680   3.106   7.144   3.227
 3913TIP3   OH211681   5.819   7.590   0.589
 3913TIP3    H111682   5.726   7.605   0.606
 3913TIP3    H211683   5.857   7.575   0.676
 3914TIP3   OH211684   6.848   6.593   1.532
 3914TIP3    H111685   6.852   6.685   1.555
 3914TIP3    H211686   6.883   6.589   1.442
 3915TIP3   OH211687   6.168   2.010   0.970
 3915TIP3    H111688   6.216   1.993   0.888
 3915TIP3    H211689   6.165   2.106   0.976
 3916TIP3   OH211690   4.669   0.764   1.961
 3916TIP3    H111691   4.630   0.686   2.000
 3916TIP3    H211692   4.683   0.741   1.869
 3917TIP3   OH211693   6.093   4.090   3.510
 3917TIP3    H111694   6.117   4.137   3.431
 3917TIP3    H211695   6.147   4.011   3.509
 3918TIP3   OH211696   7.060   0.098   4.911
 3918TIP3    H111697   7.118   0.062   4.977
 3918TIP3    H211698   7.031   0.181   4.947
 3919TIP3   OH211699   4.721   2.494   2.721
 3919TIP3    H111700   4.666   2.533   2.788
 3919TIP3    H211701   4.661   2.472   2.650
 3920TIP3   OH211702   6.852   0.730   2.831
 3920TIP3    H111703   6.873   0.774   2.748
 3920TIP3    H211704   6.821   0.801   2.887
 3921TIP3   OH211705   6.348   3.954   4.925
 3921TIP3    H111706   6.328   4.035   4.879
 3921TIP3    H211707   6.361   3.979   5.016
 3922TIP3   OH211708   1.399   0.737   4.470
 3922TIP3    H111709   1.429   0.827   4.452
 3922TIP3    H211710   1.442   0.714   4.552
 3923TIP3   OH211711   2.636   0.045   3.680
 3923TIP3    H111712   2.588   0.016   3.758
 3923TIP3    H211713   2.691  -0.030   3.658
 3924TIP3   OH211714   4.009   5.662   1.139
 3924TIP3    H111715   3.941   5.716   1.178
 3924TIP3    H211716   4.085   5.720   1.131
 3925TIP3   OH211717   6.118   1.600   5.862
 3925TIP3    H111718   6.213   1.588   5.857
 3925TIP3    H211719   6.085   1.565   5.779
 3926TIP3   OH211720   6.940   1.221   0.051
 3926TIP3    H111721   6.977   1.287   0.110
 3926TIP3    H211722   7.014   1.169   0.022
 3927TIP3   OH211723   4.356   0.306   5.448
 3927TIP3    H111724   4.327   0.355   5.370
 3927TIP3    H211725   4.316   0.353   5.521
 3928TIP3   OH211726   5.532   1.139   2.387
 3928TIP3    H111727   5.509   1.196   2.460
 3928TIP3    H211728   5.464   1.071   2.387
 3929TIP3   OH211729   7.745   4.698   4.502
 3929TIP3    H111730   7.666   4.647   4.518
 3929TIP3    H211731   7.761   4.744   4.584
 3930TIP3   OH211732   8.017   4.665   4.867
 3930TIP3    H111733   8.096   4.719   4.861
 3930TIP3    H211734   7.956   4.717   4.919
 3931TIP3   OH211735   4.696   7.082   3.291
 3931TIP3    H111736   4.750   7.013   3.252
 3931TIP3    H211737   4.607   7.047   3.288
 3932TIP3   OH211738   6.699   6.160   3.849
 3932TIP3    H111739   6.606   6.156   3.872
 3932TIP3    H211740   6.738   6.083   3.890
 3933TIP3   OH211741   2.373   5.978   6.708
 3933TIP3    H111742   2.278   5.980   6.716
 3933TIP3    H211743   2.389   5.955   6.616
 3934TIP3   OH211744   5.889   6.262   5.330
 3934TIP3    H111745   5.923   6.343   5.293
 3934TIP3    H211746   5.872   6.283   5.422
 3935TIP3   OH211747   1.684   6.032   2.440
 3935TIP3    H111748   1.771   5.992   2.433
 3935TIP3    H211749   1.660   6.054   2.350
 3936TIP3   OH211750   0.746   1.304   0.385
 3936TIP3    H111751   0.712   1.271   0.302
 3936TIP3    H211752   0.701   1.252   0.452
 3937TIP3   OH211753   8.244   2.334   3.881
 3937TIP3    H111754   8.328   2.333   3.835
 3937TIP3    H211755   8.221   2.241   3.892
 3938TIP3   OH211756   5.261   0.583   5.612
 3938TIP3    H111757   5.311   0.664   5.607
 3938TIP3    H211758   5.224   0.583   5.700
 3939TIP3   OH211759   4.775   4.238   2.302
 3939TIP3    H111760   4.759   4.315   2.357
 3939TIP3    H211761   4.747   4.265   2.214
 3940TIP3   OH211762   6.867   0.615   4.649
 3940TIP3    H111763   6.884   0.522   4.633
 3940TIP3    H211764   6.945   0.659   4.614
 3941TIP3   OH211765   5.461   0.423   6.615
 3941TIP3    H111766   5.526   0.480   6.574
 3941TIP3    H211767   5.438   0.359   6.548
 3942TIP3   OH211768   3.122   3.606   6.274
 3942TIP3    H111769   3.174   3.683   6.295
 3942TIP3    H211770   3.033   3.630   6.300
 3943TIP3   OH211771   1.894   6.257   0.341
 3943TIP3    H111772   1.841   6.327   0.379
 3943TIP3    H211773   1.927   6.294   0.259
 3944TIP3   OH211774   6.914   6.599   3.260
 3944TIP3    H111775   6.903   6.521   3.314
 3944TIP3    H211776   6.953   6.566   3.179
 3945TIP3   OH211777   4.836   4.786   0.623
 3945TIP3    H111778   4.912   4.795   0.681
 3945TIP3    H211779   4.858   4.713   0.566
 3946TIP3   OH211780   2.859   1.349   4.946
 3946TIP3    H111781   2.892   1.261   4.963
 3946TIP3    H211782   2.765   1.337   4.931
 3947TIP3   OH211783   0.269   1.633   2.319
 3947TIP3    H111784   0.219   1.676   2.249
 3947TIP3    H211785   0.210   1.634   2.394
 3948TIP3   OH211786   3.424   0.879   4.328
 3948TIP3    H111787   3.404   0.971   4.344
 3948TIP3    H211788   3.419   0.870   4.233
 3949TIP3   OH211789   8.242   4.491   3.139
 3949TIP3    H111790   8.250   4.490   3.234
 3949TIP3    H211791   8.214   4.580   3.117
 3950TIP3   OH211792   4.654   6.229   0.163
 3950TIP3    H111793   4.735   6.179   0.161
 3950TIP3    H211794   4.639   6.247   0.256
 3951TIP3   OH211795   0.156   4.617   0.890
 3951TIP3    H111796   0.235   4.602   0.838
 3951TIP3    H211797   0.186   4.671   0.963
 3952TIP3   OH211798   7.286   4.167   2.673
 3952TIP3    H111799   7.232   4.101   2.630
 3952TIP3    H211800   7.315   4.125   2.754
 3953TIP3   OH211801   0.273   1.643   0.996
 3953TIP3    H111802   0.366   1.662   0.985
 3953TIP3    H211803   0.270   1.564   1.049
 3954TIP3   OH211804   0.083   5.247   3.719
 3954TIP3    H111805   0.103   5.254   3.625
 3954TIP3    H211806   0.125   5.166   3.747
 3955TIP3   OH211807   5.229   5.264   1.002
 3955TIP3    H111808   5.222   5.358   0.985
 3955TIP3    H211809   5.199   5.253   1.092
 3956TIP3   OH211810   2.173   6.176   2.642
 3956TIP3    H111811   2.235   6.175   2.715
 3956TIP3    H211812   2.175   6.086   2.608
 3957TIP3   OH211813   1.018   0.845   3.478
 3957TIP3    H111814   0.977   0.795   3.407
 3957TIP3    H211815   1.054   0.779   3.536
 3958TIP3   OH211816   4.001   6.083   5.164
 3958TIP3    H111817   3.934   6.039   5.217
 3958TIP3    H211818   3.972   6.174   5.159
 3959TIP3   OH211819   3.523   0.470   5.768
 3959TIP3    H111820   3.448   0.415   5.793
 3959TIP3    H211821   3.485   0.544   5.722
 3960TIP3   OH211822   5.174   5.729   5.271
 3960TIP3    H111823   5.102   5.723   5.333
 3960TIP3    H211824   5.248   5.685   5.314
 3961TIP3   OH211825   3.367   4.916   5.866
 3961TIP3    H111826   3.349   5.010   5.876
 3961TIP3    H211827   3.309   4.874   5.929
 3962TIP3   OH211828   5.773   5.960   0.431
 3962TIP3    H111829   5.739   6.037   0.386
 3962TIP3    H211830   5.865   5.956   0.406
 3963TIP3   OH211831   5.707   6.541   0.501
 3963TIP3    H111832   5.770   6.500   0.442
 3963TIP3    H211833   5.658   6.601   0.445
 3964TIP3   OH211834   0.666   4.373   3.609
 3964TIP3    H111835   0.758   4.357   3.630
 3964TIP3    H211836   0.620   4.366   3.692
 3965TIP3   OH211837   1.400   0.227   3.241
 3965TIP3    H111838   1.437   0.225   3.153
 3965TIP3    H211839   1.306   0.240   3.229
 3966TIP3   OH211840   6.060   7.090   0.559
 3966TIP3    H111841   6.138   7.133   0.523
 3966TIP3    H211842   6.003   7.161   0.586
 3967TIP3   OH211843   1.000   2.359   2.695
 3967TIP3    H111844   1.005   2.412   2.774
 3967TIP3    H211845   0.907   2.337   2.686
 3968TIP3   OH211846   6.739   3.808   3.559
 3968TIP3    H111847   6.697   3.723   3.570
 3968TIP3    H211848   6.711   3.858   3.636
 3969TIP3   OH211849   0.281   0.745   0.219
 3969TIP3    H111850   0.341   0.704   0.156
 3969TIP3    H211851   0.196   0.704   0.202
 3970TIP3   OH211852   7.053   5.887   2.948
 3970TIP3    H111853   6.979   5.870   3.006
 3970TIP3    H211854   7.013   5.924   2.869
 3971TIP3   OH211855   5.618   4.888   5.458
 3971TIP3    H111856   5.555   4.942   5.409
 3971TIP3    H211857   5.704   4.922   5.432
 3972TIP3   OH211858   4.810   4.562   6.081
 3972TIP3    H111859   4.741   4.615   6.041
 3972TIP3    H211860   4.765   4.505   6.143
 3973TIP3   OH211861   5.166   1.542   2.608
 3973TIP3    H111862   5.161   1.577   2.697
 3973TIP3    H211863   5.206   1.613   2.557
 3974TIP3   OH211864   6.272   6.684   3.834
 3974TIP3    H111865   6.309   6.726   3.911
 3974TIP3    H211866   6.279   6.590   3.852
 3975TIP3   OH211867   1.856   3.484   2.143
 3975TIP3    H111868   1.830   3.409   2.090
 3975TIP3    H211869   1.801   3.477   2.222
 3976TIP3   OH211870   6.009   4.920   2.770
 3976TIP3    H111871   6.041   5.004   2.736
 3976TIP3    H211872   6.003   4.864   2.693
 3977TIP3   OH211873   5.563   1.026   6.587
 3977TIP3    H111874   5.656   1.050   6.587
 3977TIP3    H211875   5.561   0.941   6.631
 3978TIP3   OH211876   0.865   7.049   5.639
 3978TIP3    H111877   0.811   7.036   5.561
 3978TIP3    H211878   0.845   6.975   5.696
 3979TIP3   OH211879   8.298   0.458   3.730
 3979TIP3    H111880   8.258   0.372   3.746
 3979TIP3    H211881   8.248   0.518   3.786
 3980TIP3   OH211882   5.271   3.011   6.378
 3980TIP3    H111883   5.364   3.033   6.381
 3980TIP3    H211884   5.240   3.027   6.467
 3981TIP3   OH211885   0.600   1.748   3.209
 3981TIP3    H111886   0.553   1.774   3.289
 3981TIP3    H211887   0.614   1.830   3.162
 3982TIP3   OH211888   1.750   6.331   6.085
 3982TIP3    H111889   1.789   6.257   6.039
 3982TIP3    H211890   1.789   6.408   6.045
 3983TIP3   OH211891   1.965   0.495   6.711
 3983TIP3    H111892   1.987   0.558   6.642
 3983TIP3    H211893   1.968   0.409   6.668
 3984TIP3   OH211894   3.400   4.680   0.755
 3984TIP3    H111895   3.444   4.706   0.836
 3984TIP3    H211896   3.416   4.753   0.695
 3985TIP3   OH211897   5.253   5.891   4.323
 3985TIP3    H111898   5.248   5.797   4.302
 3985TIP3    H211899   5.246   5.894   4.419
 3986TIP3   OH211900   2.420   3.472   1.652
 3986TIP3    H111901   2.359   3.398   1.651
 3986TIP3    H211902   2.375   3.540   1.702
 3987TIP3   OH211903   7.452   4.286   5.487
 3987TIP3    H111904   7.503   4.213   5.450
 3987TIP3    H211905   7.441   4.263   5.579
 3988TIP3   OH211906   0.627   3.197   3.058
 3988TIP3    H111907   0.658   3.166   2.973
 3988TIP3    H211908   0.707   3.211   3.109
 3989TIP3   OH211909   1.977   6.747   0.679
 3989TIP3    H111910   1.885   6.748   0.654
 3989TIP3    H211911   2.001   6.655   0.677
 3990TIP3   OH211912   3.284   2.652   0.384
 3990TIP3    H111913   3.228   2.722   0.417
 3990TIP3    H211914   3.223   2.590   0.343
 3991TIP3   OH211915   1.927   4.199   0.466
 3991TIP3    H111916   1.983   4.258   0.416
 3991TIP3    H211917   1.976   4.179   0.545
 3992TIP3   OH211918   6.820   4.173   5.538
 3992TIP3    H111919   6.774   4.251   5.508
 3992TIP3    H211920   6.874   4.204   5.611
 3993TIP3   OH211921   2.720   0.330   1.054
 3993TIP3    H111922   2.727   0.236   1.033
 3993TIP3    H211923   2.799   0.368   1.016
 3994TIP3   OH211924   0.602   4.737   5.057
 3994TIP3    H111925   0.563   4.818   5.090
 3994TIP3    H211926   0.644   4.698   5.134
 3995TIP3   OH211927   2.528   3.552   3.170
 3995TIP3    H111928   2.535   3.471   3.119
 3995TIP3    H211929   2.614   3.594   3.159
 3996TIP3   OH211930   3.107   3.560   1.237
 3996TIP3    H111931   3.153   3.496   1.184
 3996TIP3    H211932   3.055   3.508   1.299
 3997TIP3   OH211933   3.219   2.870   1.131
 3997TIP3    H111934   3.233   2.884   1.038
 3997TIP3    H211935   3.212   2.775   1.140
 3998TIP3   OH211936   7.542   7.649   0.209
 3998TIP3    H111937   7.634   7.624   0.199
 3998TIP3    H211938   7.510   7.658   0.119
 3999TIP3   OH211939   2.933   3.704   6.674
 3999TIP3    H111940   2.886   3.786   6.666
 3999TIP3    H211941   2.866   3.636   6.663
 4000TIP3   OH211942   1.174   7.622   5.470
 4000TIP3    H111943   1.254   7.653   5.428
 4000TIP3    H211944   1.109   7.689   5.450
 4001TIP3   OH211945   0.693   4.968   4.774
 4001TIP3    H111946   0.706   4.876   4.755
 4001TIP3    H211947   0.645   5.002   4.698
 4002TIP3   OH211948   5.562   0.780   1.595
 4002TIP3    H111949   5.619   0.703   1.600
 4002TIP3    H211950   5.534   0.795   1.685
 4003TIP3   OH211951   3.519   3.237   4.409
 4003TIP3    H111952   3.540   3.146   4.390
 4003TIP3    H211953   3.559   3.253   4.495
 4004TIP3   OH211954   8.102   5.098   5.022
 4004TIP3    H111955   8.057   5.177   4.991
 4004TIP3    H211956   8.078   5.090   5.114
 4005TIP3   OH211957   6.253   5.458   3.175
 4005TIP3    H111958   6.313   5.475   3.248
 4005TIP3    H211959   6.310   5.428   3.104
 4006TIP3   OH211960   1.226   4.149   1.789
 4006TIP3    H111961   1.238   4.225   1.847
 4006TIP3    H211962   1.312   4.107   1.785
 4007TIP3   OH211963   7.373   2.397   4.901
 4007TIP3    H111964   7.405   2.457   4.833
 4007TIP3    H211965   7.436   2.326   4.902
 4008TIP3   OH211966   5.390   2.212   1.907
 4008TIP3    H111967   5.380   2.291   1.959
 4008TIP3    H211968   5.419   2.244   1.821
 4009TIP3   OH211969   6.410   2.010   0.017
 4009TIP3    H111970   6.368   2.012   0.103
 4009TIP3    H211971   6.493   1.966   0.033
 4010TIP3   OH211972   3.991   6.682   3.592
 4010TIP3    H111973   4.038   6.599   3.587
 4010TIP3    H211974   4.059   6.749   3.589
 4011TIP3   OH211975   0.677   1.221   1.659
 4011TIP3    H111976   0.675   1.286   1.589
 4011TIP3    H211977   0.754   1.167   1.640
 4012TIP3   OH211978   3.483  -0.002   4.692
 4012TIP3    H111979   3.499   0.079   4.642
 4012TIP3    H211980   3.526   0.012   4.776
 4013TIP3   OH211981   5.393   0.437   2.394
 4013TIP3    H111982   5.313   0.461   2.441
 4013TIP3    H211983   5.463   0.481   2.442
 4014TIP3   OH211984   7.147   7.781   0.755
 4014TIP3    H111985   7.128   7.836   0.679
 4014TIP3    H211986   7.105   7.697   0.735
 4015TIP3   OH211987   7.975   4.117   6.103
 4015TIP3    H111988   8.065   4.107   6.134
 4015TIP3    H211989   7.921   4.076   6.170
 4016TIP3   OH211990   7.517   3.683   1.367
 4016TIP3    H111991   7.533   3.739   1.443
 4016TIP3    H211992   7.473   3.606   1.402
 4017TIP3   OH211993   7.905   3.385   2.208
 4017TIP3    H111994   7.816   3.416   2.226
 4017TIP3    H211995   7.893   3.316   2.143
 4018TIP3   OH211996   2.759   3.188   0.202
 4018TIP3    H111997   2.680   3.219   0.247
 4018TIP3    H211998   2.728   3.162   0.115
 4019TIP3   OH211999   3.382   7.025   6.355
 4019TIP3    H112000   3.424   6.994   6.435
 4019TIP3    H212001   3.372   7.119   6.368
 4020TIP3   OH212002   0.495   1.851   2.821
 4020TIP3    H112003   0.427   1.794   2.857
 4020TIP3    H212004   0.461   1.879   2.736
 4021TIP3   OH212005   3.641   1.086   4.029
 4021TIP3    H112006   3.721   1.054   3.987
 4021TIP3    H212007   3.672   1.156   4.088
 4022TIP3   OH212008   0.263   5.012   2.596
 4022TIP3    H112009   0.238   5.041   2.684
 4022TIP3    H212010   0.340   5.065   2.575
 4023TIP3   OH212011   0.873   0.176   6.532
 4023TIP3    H112012   0.967   0.189   6.540
 4023TIP3    H212013   0.841   0.176   6.623
 4024TIP3   OH212014   7.602   5.657   5.279
 4024TIP3    H112015   7.529   5.612   5.238
 4024TIP3    H212016   7.561   5.717   5.341
 4025TIP3   OH212017   3.119   5.684   5.739
 4025TIP3    H112018   3.126   5.701   5.833
 4025TIP3    H212019   3.056   5.612   5.732
 4026TIP3   OH212020   6.147   6.869   3.421
 4026TIP3    H112021   6.075   6.870   3.485
 4026TIP3    H212022   6.130   6.945   3.366
 4027TIP3   OH212023   0.544   4.724   6.657
 4027TIP3    H112024   0.466   4.770   6.689
 4027TIP3    H212025   0.534   4.723   6.562
 4028TIP3   OH212026   2.933   6.176   0.660
 4028TIP3    H112027   2.915   6.216   0.745
 4028TIP3    H212028   3.021   6.138   0.669
 4029TIP3   OH212029   4.872   7.478   3.984
 4029TIP3    H112030   4.808   7.547   4.004
 4029TIP3    H212031   4.853   7.454   3.893
 4030TIP3   OH212032   2.489   7.552   6.713
 4030TIP3    H112033   2.547   7.623   6.687
 4030TIP3    H212034   2.466   7.572   6.804
 4031TIP3   OH212035   7.967   6.229   0.882
 4031TIP3    H112036   8.008   6.261   0.963
 4031TIP3    H212037   8.015   6.274   0.813
 4032TIP3   OH212038   8.114   5.639   3.347
 4032TIP3    H112039   8.156   5.625   3.432
 4032TIP3    H212040   8.168   5.706   3.304
 4033TIP3   OH212041   3.383   0.574   0.298
 4033TIP3    H112042   3.415   0.546   0.213
 4033TIP3    H212043   3.294   0.540   0.303
 4034TIP3   OH212044   4.846   0.188   5.508
 4034TIP3    H112045   4.758   0.219   5.492
 4034TIP3    H212046   4.895   0.210   5.428
 4035TIP3   OH212047   0.683   4.611   0.704
 4035TIP3    H112048   0.652   4.612   0.794
 4035TIP3    H212049   0.777   4.624   0.711
 4036TIP3   OH212050   6.878   3.982   6.500
 4036TIP3    H112051   6.902   3.915   6.436
 4036TIP3    H212052   6.851   4.057   6.447
 4037TIP3   OH212053   5.531   7.163   4.734
 4037TIP3    H112054   5.556   7.206   4.816
 4037TIP3    H212055   5.607   7.109   4.711
 4038TIP3   OH212056   4.299   5.198   5.171
 4038TIP3    H112057   4.222   5.192   5.115
 4038TIP3    H212058   4.290   5.125   5.232
 4039TIP3   OH212059   7.367   0.552   6.203
 4039TIP3    H112060   7.313   0.544   6.281
 4039TIP3    H212061   7.315   0.605   6.142
 4040TIP3   OH212062   1.715   5.083   2.213
 4040TIP3    H112063   1.658   5.105   2.287
 4040TIP3    H212064   1.731   4.989   2.222
 4041TIP3   OH212065   7.480   5.109   5.994
 4041TIP3    H112066   7.442   5.094   5.907
 4041TIP3    H212067   7.430   5.051   6.052
 4042TIP3   OH212068   8.136   5.287   1.189
 4042TIP3    H112069   8.114   5.260   1.100
 4042TIP3    H212070   8.076   5.237   1.245
 4043TIP3   OH212071   4.835   6.637   5.000
 4043TIP3    H112072   4.843   6.684   5.083
 4043TIP3    H212073   4.747   6.599   5.002
 4044TIP3   OH212074   2.160   1.507   4.622
 4044TIP3    H112075   2.172   1.496   4.717
 4044TIP3    H212076   2.070   1.537   4.613
 4045TIP3   OH212077   6.596   6.292   1.813
 4045TIP3    H112078   6.679   6.320   1.776
 4045TIP3    H212079   6.605   6.309   1.907
 4046TIP3   OH212080   3.560   7.080   1.955
 4046TIP3    H112081   3.504   7.101   1.881
 4046TIP3    H212082   3.598   7.164   1.981
 4047TIP3   OH212083   1.535   4.199   2.719
 4047TIP3    H112084   1.625   4.176   2.745
 4047TIP3    H212085   1.485   4.191   2.800
 4048TIP3   OH212086   2.562   7.183   0.135
 4048TIP3    H112087   2.596   7.109   0.185
 4048TIP3    H212088   2.611   7.259   0.167
 4049TIP3   OH212089   7.742   2.868   2.719
 4049TIP3    H112090   7.747   2.959   2.747
 4049TIP3    H212091   7.816   2.825   2.761
 4050TIP3   OH212092   2.667   3.254   4.017
 4050TIP3    H112093   2.720   3.224   4.091
 4050TIP3    H212094   2.591   3.195   4.017
 4051TIP3   OH212095   1.478   3.578   0.160
 4051TIP3    H112096   1.440   3.495   0.187
 4051TIP3    H212097   1.538   3.556   0.089
 4052TIP3   OH212098   7.483   4.469   0.896
 4052TIP3    H112099   7.552   4.441   0.836
 4052TIP3    H212100   7.481   4.401   0.963
 4053TIP3   OH212101   5.532   6.078   2.318
 4053TIP3    H112102   5.566   6.063   2.230
 4053TIP3    H212103   5.529   6.173   2.326
 4054TIP3   OH212104   5.156   2.095   6.383
 4054TIP3    H112105   5.214   2.066   6.313
 4054TIP3    H212106   5.213   2.133   6.449
 4055TIP3   OH212107   6.332   1.117   0.665
 4055TIP3    H112108   6.370   1.194   0.623
 4055TIP3    H212109   6.314   1.144   0.755
 4056TIP3   OH212110   3.082   3.509   4.442
 4056TIP3    H112111   3.148   3.491   4.375
 4056TIP3    H212112   3.019   3.566   4.398
 4057TIP3   OH212113   4.018   4.770   5.922
 4057TIP3    H112114   4.047   4.755   5.833
 4057TIP3    H212115   4.098   4.770   5.975
 4058TIP3   OH212116   0.722   7.592   1.600
 4058TIP3    H112117   0.781   7.627   1.534
 4058TIP3    H212118   0.713   7.499   1.577
 4059TIP3   OH212119   3.833   3.776   3.136
 4059TIP3    H112120   3.901   3.746   3.197
 4059TIP3    H212121   3.881   3.815   3.064
 4060TIP3   OH212122   4.256   3.994   3.082
 4060TIP3    H112123   4.170   4.034   3.073
 4060TIP3    H212124   4.305   4.055   3.138
 4061TIP3   OH212125   2.911   0.802   3.917
 4061TIP3    H112126   2.912   0.830   4.009
 4061TIP3    H212127   2.972   0.861   3.873
 4062TIP3   OH212128   4.727   4.962   4.468
 4062TIP3    H112129   4.782   4.994   4.539
 4062TIP3    H212130   4.732   4.867   4.475
 4063TIP3   OH212131   4.166   6.151   6.746
 4063TIP3    H112132   4.184   6.217   6.679
 4063TIP3    H212133   4.181   6.067   6.702
 4064TIP3   OH212134   4.283   1.509   0.151
 4064TIP3    H112135   4.192   1.480   0.140
 4064TIP3    H212136   4.330   1.464   0.081
 4065TIP3   OH212137   1.092   3.076   1.747
 4065TIP3    H112138   1.134   3.160   1.763
 4065TIP3    H212139   1.103   3.060   1.653
 4066TIP3   OH212140   5.395   1.584   1.909
 4066TIP3    H112141   5.423   1.606   1.820
 4066TIP3    H212142   5.300   1.592   1.907
 4067TIP3   OH212143   4.998   0.593   0.137
 4067TIP3    H112144   5.046   0.543   0.070
 4067TIP3    H212145   4.907   0.587   0.110
 4068TIP3   OH212146   5.824   5.984   5.464
 4068TIP3    H112147   5.840   6.012   5.374
 4068TIP3    H212148   5.904   6.009   5.511
 4069TIP3   OH212149   1.865   1.763   2.226
 4069TIP3    H112150   1.888   1.818   2.301
 4069TIP3    H212151   1.835   1.681   2.265
 4070TIP3   OH212152   8.310   4.914   3.788
 4070TIP3    H112153   8.254   4.939   3.862
 4070TIP3    H212154   8.250   4.901   3.715
 4071TIP3   OH212155   0.143   5.907   1.248
 4071TIP3    H112156   0.158   5.890   1.155
 4071TIP3    H212157   0.220   5.872   1.292
 4072TIP3   OH212158   7.150   2.610   3.535
 4072TIP3    H112159   7.187   2.691   3.498
 4072TIP3    H212160   7.136   2.632   3.627
 4073TIP3   OH212161   3.787   5.392   4.913
 4073TIP3    H112162   3.703   5.436   4.926
 4073TIP3    H212163   3.795   5.333   4.988
 4074TIP3   OH212164   0.574   4.953   2.638
 4074TIP3    H112165   0.604   5.004   2.713
 4074TIP3    H212166   0.629   4.981   2.565
 4075TIP3   OH212167   4.156   6.170   5.460
 4075TIP3    H112168   4.185   6.193   5.548
 4075TIP3    H212169   4.089   6.234   5.438
 4076TIP3   OH212170   4.603   2.712   4.650
 4076TIP3    H112171   4.682   2.697   4.702
 4076TIP3    H212172   4.557   2.782   4.696
 4077TIP3   OH212173   1.819   7.432   6.220
 4077TIP3    H112174   1.833   7.447   6.127
 4077TIP3    H212175   1.782   7.343   6.224
 4078TIP3   OH212176   4.184   0.367   1.310
 4078TIP3    H112177   4.123   0.440   1.306
 4078TIP3    H212178   4.245   0.390   1.380
 4079TIP3   OH212179   4.651   6.403   3.405
 4079TIP3    H112180   4.642   6.464   3.331
 4079TIP3    H212181   4.745   6.390   3.414
 4080TIP3   OH212182   1.779   5.778   3.065
 4080TIP3    H112183   1.785   5.828   2.983
 4080TIP3    H212184   1.856   5.805   3.115
 4081TIP3   OH212185   7.547   0.779   0.129
 4081TIP3    H112186   7.610   0.729   0.181
 4081TIP3    H212187   7.509   0.842   0.190
 4082TIP3   OH212188   2.773   4.414   3.841
 4082TIP3    H112189   2.859   4.387   3.871
 4082TIP3    H212190   2.736   4.336   3.800
 4083TIP3   OH212191   0.859   6.918   0.230
 4083TIP3    H112192   0.893   6.841   0.185
 4083TIP3    H212193   0.926   6.939   0.295
 4084TIP3   OH212194   8.034   1.258   0.817
 4084TIP3    H112195   7.966   1.307   0.771
 4084TIP3    H212196   8.071   1.321   0.878
 4085TIP3   OH212197   1.651   3.730   6.062
 4085TIP3    H112198   1.639   3.725   6.157
 4085TIP3    H212199   1.562   3.731   6.027
 4086TIP3   OH212200   5.934   0.468   2.955
 4086TIP3    H112201   5.954   0.533   3.023
 4086TIP3    H212202   5.849   0.496   2.920
 4087TIP3   OH212203   3.169   0.614   3.567
 4087TIP3    H112204   3.147   0.560   3.643
 4087TIP3    H212205   3.090   0.664   3.549
 4088TIP3   OH212206   7.167   2.437   0.355
 4088TIP3    H112207   7.246   2.452   0.302
 4088TIP3    H212208   7.170   2.345   0.378
 4089TIP3   OH212209   2.240   1.302   0.081
 4089TIP3    H112210   2.234   1.230   0.018
 4089TIP3    H212211   2.268   1.261   0.162
 4090TIP3   OH212212   7.937   3.721   5.464
 4090TIP3    H112213   7.958   3.741   5.555
 4090TIP3    H212214   7.915   3.628   5.465
 4091TIP3   OH212215   1.847   1.371   3.873
 4091TIP3    H112216   1.841   1.278   3.895
 4091TIP3    H212217   1.823   1.375   3.780
 4092TIP3   OH212218   4.116   0.989   2.524
 4092TIP3    H112219   4.049   1.001   2.591
 4092TIP3    H212220   4.198   1.008   2.569
 4093TIP3   OH212221   3.657   0.429   1.853
 4093TIP3    H112222   3.693   0.500   1.906
 4093TIP3    H212223   3.596   0.473   1.793
 4094TIP3   OH212224   4.409   1.661   3.427
 4094TIP3    H112225   4.415   1.742   3.477
 4094TIP3    H212226   4.348   1.680   3.357
 4095TIP3   OH212227   8.301   6.527   6.201
 4095TIP3    H112228   8.231   6.592   6.196
 4095TIP3    H212229   8.292   6.487   6.287
 4096TIP3   OH212230   3.791   6.103   1.081
 4096TIP3    H112231   3.875   6.096   1.036
 4096TIP3    H212232   3.773   6.197   1.085
 4097TIP3   OH212233   6.561   3.461   5.343
 4097TIP3    H112234   6.484   3.511   5.317
 4097TIP3    H212235   6.547   3.442   5.436
 4098TIP3   OH212236   6.316   5.063   2.839
 4098TIP3    H112237   6.306   5.025   2.752
 4098TIP3    H212238   6.411   5.061   2.855
 4099TIP3   OH212239   6.753   3.848   4.827
 4099TIP3    H112240   6.785   3.916   4.886
 4099TIP3    H212241   6.833   3.803   4.798
 4100TIP3   OH212242   7.730   6.368   0.983
 4100TIP3    H112243   7.814   6.410   0.967
 4100TIP3    H212244   7.754   6.282   1.020
 4101TIP3   OH212245   7.253   6.075   5.117
 4101TIP3    H112246   7.282   6.165   5.106
 4101TIP3    H212247   7.328   6.022   5.091
 4102TIP3   OH212248   3.031   5.203   3.915
 4102TIP3    H112249   3.125   5.189   3.908
 4102TIP3    H212250   3.021   5.298   3.917
 4103TIP3   OH212251   3.328   4.351   2.561
 4103TIP3    H112252   3.393   4.324   2.497
 4103TIP3    H212253   3.260   4.284   2.557
 4104TIP3   OH212254   4.670   3.233   2.760
 4104TIP3    H112255   4.717   3.272   2.686
 4104TIP3    H212256   4.665   3.304   2.824
 4105TIP3   OH212257   6.295   5.962   6.118
 4105TIP3    H112258   6.279   5.989   6.208
 4105TIP3    H212259   6.372   6.012   6.090
 4106TIP3   OH212260   0.783   7.737   2.731
 4106TIP3    H112261   0.832   7.751   2.650
 4106TIP3    H212262   0.694   7.765   2.711
 4107TIP3   OH212263   5.248   4.742   2.936
 4107TIP3    H112264   5.255   4.648   2.918
 4107TIP3    H212265   5.259   4.749   3.031
 4108TIP3   OH212266   7.087   2.756   1.891
 4108TIP3    H112267   7.020   2.687   1.892
 4108TIP3    H212268   7.068   2.805   1.811
 4109TIP3   OH212269   7.026   3.782   2.104
 4109TIP3    H112270   7.046   3.697   2.065
 4109TIP3    H212271   7.111   3.825   2.114
 4110TIP3   OH212272   7.527   4.802   5.915
 4110TIP3    H112273   7.515   4.894   5.941
 4110TIP3    H212274   7.518   4.803   5.820
 4111TIP3   OH212275   0.714   2.303   2.669
 4111TIP3    H112276   0.705   2.244   2.594
 4111TIP3    H212277   0.672   2.255   2.741
 4112TIP3   OH212278   3.705   4.803   4.722
 4112TIP3    H112279   3.703   4.715   4.759
 4112TIP3    H212280   3.792   4.837   4.744
 4113TIP3   OH212281   1.684   5.290   0.852
 4113TIP3    H112282   1.720   5.201   0.860
 4113TIP3    H212283   1.590   5.280   0.868
 4114TIP3   OH212284   6.985   1.253   5.754
 4114TIP3    H112285   6.991   1.232   5.847
 4114TIP3    H212286   7.062   1.308   5.738
 4115TIP3   OH212287   2.100   0.933   0.671
 4115TIP3    H112288   2.167   0.928   0.739
 4115TIP3    H212289   2.032   0.989   0.707
 4116TIP3   OH212290   1.418   3.600   0.430
 4116TIP3    H112291   1.488   3.536   0.435
 4116TIP3    H212292   1.417   3.628   0.339
 4117TIP3   OH212293   7.475   1.307   1.266
 4117TIP3    H112294   7.504   1.397   1.283
 4117TIP3    H212295   7.555   1.260   1.241
 4118TIP3   OH212296   4.214   1.936   4.699
 4118TIP3    H112297   4.301   1.910   4.668
 4118TIP3    H212298   4.223   2.027   4.724
 4119TIP3   OH212299   1.302   5.679   6.442
 4119TIP3    H112300   1.209   5.685   6.463
 4119TIP3    H212301   1.306   5.692   6.347
 4120TIP3   OH212302   4.596   3.678   2.666
 4120TIP3    H112303   4.537   3.651   2.735
 4120TIP3    H212304   4.680   3.637   2.687
 4121TIP3   OH212305   5.041   5.197   2.055
 4121TIP3    H112306   5.030   5.192   1.960
 4121TIP3    H212307   5.006   5.283   2.078
 4122TIP3   OH212308   2.522   4.917   2.798
 4122TIP3    H112309   2.489   4.961   2.876
 4122TIP3    H212310   2.573   4.984   2.752
 4123TIP3   OH212311   2.100   7.765   5.253
 4123TIP3    H112312   2.058   7.775   5.338
 4123TIP3    H212313   2.072   7.678   5.223
 4124TIP3   OH212314   3.700   0.087   2.199
 4124TIP3    H112315   3.618   0.102   2.152
 4124TIP3    H212316   3.760   0.053   2.132
 4125TIP3   OH212317   0.829   1.780   5.125
 4125TIP3    H112318   0.894   1.753   5.190
 4125TIP3    H212319   0.873   1.847   5.072
 4126TIP3   OH212320   1.506   6.337   0.950
 4126TIP3    H112321   1.554   6.398   1.006
 4126TIP3    H212322   1.432   6.388   0.918
 4127TIP3   OH212323   3.968   3.289   4.354
 4127TIP3    H112324   3.984   3.205   4.397
 4127TIP3    H212325   4.049   3.308   4.307
 4128TIP3   OH212326   6.749   2.032   4.392
 4128TIP3    H112327   6.710   2.026   4.305
 4128TIP3    H212328   6.825   1.973   4.389
 4129TIP3   OH212329   8.261   6.922   0.953
 4129TIP3    H112330   8.300   6.898   1.037
 4129TIP3    H212331   8.312   6.998   0.924
 4130TIP3   OH212332   4.760   6.519   5.703
 4130TIP3    H112333   4.804   6.458   5.761
 4130TIP3    H212334   4.747   6.599   5.755
 4131TIP3   OH212335   6.876   1.824   5.807
 4131TIP3    H112336   6.875   1.817   5.711
 4131TIP3    H212337   6.888   1.734   5.837
 4132TIP3   OH212338   0.494   7.160   2.529
 4132TIP3    H112339   0.404   7.126   2.533
 4132TIP3    H212340   0.549   7.082   2.538
 4133TIP3   OH212341   5.667   6.393   6.657
 4133TIP3    H112342   5.673   6.482   6.692
 4133TIP3    H212343   5.575   6.368   6.670
 4134TIP3   OH212344   6.056   6.792   3.679
 4134TIP3    H112345   6.103   6.770   3.760
 4134TIP3    H212346   6.001   6.866   3.702
 4135TIP3   OH212347   1.542   6.111   1.903
 4135TIP3    H112348   1.546   6.204   1.880
 4135TIP3    H212349   1.595   6.104   1.982
 4136TIP3   OH212350   4.614   7.558   4.955
 4136TIP3    H112351   4.708   7.576   4.956
 4136TIP3    H212352   4.574   7.643   4.971
 4137TIP3   OH212353   7.598   3.381   3.146
 4137TIP3    H112354   7.575   3.465   3.106
 4137TIP3    H212355   7.514   3.339   3.163
 4138TIP3   OH212356   2.649   1.661   3.453
 4138TIP3    H112357   2.726   1.662   3.510
 4138TIP3    H212358   2.579   1.629   3.510
 4139TIP3   OH212359   7.711   5.868   2.123
 4139TIP3    H112360   7.628   5.828   2.095
 4139TIP3    H212361   7.710   5.860   2.218
 4140TIP3   OH212362   4.533   1.358   5.345
 4140TIP3    H112363   4.548   1.397   5.432
 4140TIP3    H212364   4.440   1.333   5.346
 4141TIP3   OH212365   3.058   3.447   0.542
 4141TIP3    H112366   3.153   3.456   0.548
 4141TIP3    H212367   3.043   3.353   0.539
 4142TIP3   OH212368   7.738   5.242   2.302
 4142TIP3    H112369   7.647   5.263   2.322
 4142TIP3    H212370   7.741   5.234   2.207
 4143TIP3   OH212371   1.246   0.739   0.455
 4143TIP3    H112372   1.208   0.787   0.529
 4143TIP3    H212373   1.268   0.808   0.392
 4144TIP3   OH212374   0.136   0.938   3.462
 4144TIP3    H112375   0.152   0.883   3.538
 4144TIP3    H212376   0.222   0.952   3.423
 4145TIP3   OH212377   6.532   1.917   0.553
 4145TIP3    H112378   6.489   2.000   0.533
 4145TIP3    H212379   6.584   1.935   0.631
 4146TIP3   OH212380   2.940   7.765   6.699
 4146TIP3    H112381   2.921   7.672   6.688
 4146TIP3    H212382   2.939   7.779   6.794
 4147TIP3   OH212383   7.928   6.590   0.656
 4147TIP3    H112384   7.939   6.563   0.565
 4147TIP3    H212385   8.009   6.637   0.677
 4148TIP3   OH212386   0.864   1.857   0.620
 4148TIP3    H112387   0.805   1.909   0.565
 4148TIP3    H212388   0.949   1.900   0.611
 4149TIP3   OH212389   4.297   4.558   0.474
 4149TIP3    H112390   4.262   4.484   0.426
 4149TIP3    H212391   4.242   4.632   0.448
 4150TIP3   OH212392   1.197   4.397   6.118
 4150TIP3    H112393   1.271   4.435   6.070
 4150TIP3    H212394   1.232   4.376   6.204
 4151TIP3   OH212395   1.443   3.996   5.543
 4151TIP3    H112396   1.378   4.064   5.563
 4151TIP3    H212397   1.400   3.914   5.566
 4152TIP3   OH212398   2.423   1.730   2.428
 4152TIP3    H112399   2.360   1.765   2.491
 4152TIP3    H212400   2.485   1.802   2.414
 4153TIP3   OH212401   6.890   0.536   4.097
 4153TIP3    H112402   6.939   0.456   4.077
 4153TIP3    H212403   6.803   0.504   4.123
 4154TIP3   OH212404   4.981   6.760   4.694
 4154TIP3    H112405   4.979   6.668   4.721
 4154TIP3    H212406   4.985   6.809   4.776
 4155TIP3   OH212407   7.007   4.357   5.005
 4155TIP3    H112408   6.974   4.447   5.002
 4155TIP3    H212409   6.942   4.306   4.958
 4156TIP3   OH212410   3.725   0.587   2.601
 4156TIP3    H112411   3.783   0.661   2.619
 4156TIP3    H212412   3.721   0.582   2.506
 4157TIP3   OH212413   4.283   0.492   6.602
 4157TIP3    H112414   4.232   0.548   6.660
 4157TIP3    H212415   4.372   0.528   6.605
 4158TIP3   OH212416   4.037   3.118   0.234
 4158TIP3    H112417   3.978   3.167   0.176
 4158TIP3    H212418   4.081   3.185   0.286
 4159TIP3   OH212419   8.026   1.303   6.181
 4159TIP3    H112420   8.032   1.367   6.110
 4159TIP3    H212421   7.944   1.325   6.226
 4160TIP3   OH212422   4.252   7.713   2.200
 4160TIP3    H112423   4.249   7.699   2.295
 4160TIP3    H212424   4.188   7.784   2.185
 4161TIP3   OH212425   5.838   5.038   4.698
 4161TIP3    H112426   5.908   5.095   4.728
 4161TIP3    H212427   5.758   5.090   4.709
 4162TIP3   OH212428   5.369   1.023   4.136
 4162TIP3    H112429   5.298   0.993   4.192
 4162TIP3    H212430   5.326   1.070   4.065
 4163TIP3   OH212431   2.716   3.210   1.336
 4163TIP3    H112432   2.667   3.280   1.380
 4163TIP3    H212433   2.682   3.209   1.247
 4164TIP3   OH212434   0.350   5.807   3.693
 4164TIP3    H112435   0.262   5.825   3.727
 4164TIP3    H212436   0.334   5.758   3.612
 4165TIP3   OH212437   7.281   1.691   4.306
 4165TIP3    H112438   7.225   1.665   4.233
 4165TIP3    H212439   7.328   1.611   4.330
 4166TIP3   OH212440   6.058   1.195   6.349
 4166TIP3    H112441   6.092   1.275   6.388
 4166TIP3    H212442   5.969   1.188   6.384
 4167TIP3   OH212443   7.786   2.776   2.372
 4167TIP3    H112444   7.741   2.732   2.300
 4167TIP3    H212445   7.719   2.787   2.439
 4168TIP3   OH212446   7.773   1.876   6.084
 4168TIP3    H112447   7.749   1.820   6.010
 4168TIP3    H212448   7.694   1.879   6.138
 4169TIP3   OH212449   0.427   4.630   4.846
 4169TIP3    H112450   0.503   4.653   4.900
 4169TIP3    H212451   0.392   4.714   4.816
 4170TIP3   OH212452   5.745   4.731   3.591
 4170TIP3    H112453   5.713   4.818   3.568
 4170TIP3    H212454   5.712   4.674   3.521
 4171TIP3   OH212455   6.085   2.104   2.646
 4171TIP3    H112456   6.130   2.186   2.624
 4171TIP3    H212457   6.101   2.048   2.570
 4172TIP3   OH212458   7.381   2.636   3.883
 4172TIP3    H112459   7.414   2.546   3.890
 4172TIP3    H212460   7.394   2.674   3.970
 4173TIP3   OH212461   0.874   1.930   4.058
 4173TIP3    H112462   0.893   1.862   3.993
 4173TIP3    H212463   0.889   2.012   4.011
 4174TIP3   OH212464   3.357   3.574   2.429
 4174TIP3    H112465   3.301   3.499   2.411
 4174TIP3    H212466   3.347   3.589   2.523
 4175TIP3   OH212467   1.429   7.449   0.193
 4175TIP3    H112468   1.375   7.446   0.272
 4175TIP3    H212469   1.479   7.368   0.194
 4176TIP3   OH212470   3.331   7.267   0.608
 4176TIP3    H112471   3.397   7.261   0.678
 4176TIP3    H212472   3.323   7.361   0.591
 4177TIP3   OH212473   0.605   4.929   4.045
 4177TIP3    H112474   0.658   4.873   4.101
 4177TIP3    H212475   0.621   5.018   4.077
 4178TIP3   OH212476   3.672   4.149   1.522
 4178TIP3    H112477   3.768   4.148   1.523
 4178TIP3    H212478   3.647   4.089   1.592
 4179TIP3   OH212479   0.340   2.732   2.820
 4179TIP3    H112480   0.395   2.782   2.759
 4179TIP3    H212481   0.361   2.768   2.906
 4180TIP3   OH212482   6.972   3.918   3.820
 4180TIP3    H112483   6.951   3.894   3.730
 4180TIP3    H212484   7.038   3.987   3.812
 4181TIP3   OH212485   7.255   7.592   0.918
 4181TIP3    H112486   7.339   7.613   0.959
 4181TIP3    H212487   7.224   7.675   0.882
 4182TIP3   OH212488   4.747   6.614   2.586
 4182TIP3    H112489   4.779   6.554   2.519
 4182TIP3    H212490   4.759   6.566   2.668
 4183TIP3   OH212491   7.636   6.121   4.436
 4183TIP3    H112492   7.542   6.126   4.448
 4183TIP3    H212493   7.650   6.138   4.343
 4184TIP3   OH212494   1.546   5.961   6.054
 4184TIP3    H112495   1.629   5.954   6.100
 4184TIP3    H212496   1.570   5.974   5.962
 4185TIP3   OH212497   8.277   4.751   1.397
 4185TIP3    H112498   8.297   4.658   1.387
 4185TIP3    H212499   8.205   4.767   1.336
 4186TIP3   OH212500   2.494   6.980   5.853
 4186TIP3    H112501   2.424   7.033   5.812
 4186TIP3    H212502   2.487   7.000   5.946
 4187TIP3   OH212503   3.914   6.307   4.905
 4187TIP3    H112504   3.988   6.338   4.854
 4187TIP3    H212505   3.898   6.378   4.968
 4188TIP3   OH212506   5.419   5.945   3.408
 4188TIP3    H112507   5.473   5.878   3.449
 4188TIP3    H212508   5.472   6.025   3.412
 4189TIP3   OH212509   3.022   1.368   3.895
 4189TIP3    H112510   3.112   1.343   3.874
 4189TIP3    H212511   2.990   1.298   3.952
 4190TIP3   OH212512   2.707   7.084   2.178
 4190TIP3    H112513   2.621   7.044   2.166
 4190TIP3    H212514   2.769   7.013   2.161
 4191TIP3   OH212515   8.012   3.984   1.724
 4191TIP3    H112516   7.979   3.939   1.647
 4191TIP3    H212517   7.950   4.055   1.740
 4192TIP3   OH212518   3.515   3.500   0.745
 4192TIP3    H112519   3.577   3.455   0.802
 4192TIP3    H212520   3.528   3.460   0.659
 4193TIP3   OH212521   4.177   3.913   0.166
 4193TIP3    H112522   4.120   3.883   0.096
 4193TIP3    H212523   4.197   3.834   0.216
 4194TIP3   OH212524   7.280   7.464   6.632
 4194TIP3    H112525   7.276   7.554   6.664
 4194TIP3    H212526   7.301   7.412   6.710
 4195TIP3   OH212527   4.767   0.501   2.280
 4195TIP3    H112528   4.836   0.519   2.217
 4195TIP3    H212529   4.796   0.545   2.360
 4196TIP3   OH212530   2.117   5.115   6.686
 4196TIP3    H112531   2.039   5.163   6.713
 4196TIP3    H212532   2.165   5.176   6.630
 4197TIP3   OH212533   5.081   0.262   6.741
 4197TIP3    H112534   5.002   0.232   6.697
 4197TIP3    H212535   5.132   0.183   6.757
 4198TIP3   OH212536   1.346   5.734   5.242
 4198TIP3    H112537   1.412   5.670   5.270
 4198TIP3    H212538   1.279   5.730   5.311
 4199TIP3   OH212539   2.114   0.753   4.196
 4199TIP3    H112540   2.030   0.724   4.161
 4199TIP3    H212541   2.165   0.777   4.118
 4200TIP3   OH212542   0.430   3.042   5.883
 4200TIP3    H112543   0.335   3.028   5.890
 4200TIP3    H212544   0.464   2.957   5.853
 4201TIP3   OH212545   0.524   5.862   0.071
 4201TIP3    H112546   0.516   5.909   0.154
 4201TIP3    H212547   0.472   5.913   0.009
 4202TIP3   OH212548   1.486   0.760   1.300
 4202TIP3    H112549   1.407   0.805   1.332
 4202TIP3    H212550   1.556   0.792   1.357
 4203TIP3   OH212551   7.826   0.053   1.072
 4203TIP3    H112552   7.750   0.026   1.019
 4203TIP3    H212553   7.802   0.140   1.103
 4204TIP3   OH212554   0.142   1.909   1.650
 4204TIP3    H112555   0.150   2.001   1.675
 4204TIP3    H212556   0.052   1.886   1.671
 4205TIP3   OH212557   2.081   0.726   6.557
 4205TIP3    H112558   2.165   0.681   6.552
 4205TIP3    H212559   2.069   0.765   6.470
 4206TIP3   OH212560   8.082   4.056   5.220
 4206TIP3    H112561   8.171   4.091   5.220
 4206TIP3    H212562   8.037   4.104   5.151
 4207TIP3   OH212563   1.526   4.343   1.840
 4207TIP3    H112564   1.508   4.316   1.749
 4207TIP3    H212565   1.440   4.340   1.883
 4208TIP3   OH212566   2.093   5.182   0.225
 4208TIP3    H112567   2.156   5.121   0.187
 4208TIP3    H212568   2.009   5.137   0.221
 4209TIP3   OH212569   6.762   1.161   6.185
 4209TIP3    H112570   6.751   1.196   6.274
 4209TIP3    H212571   6.703   1.086   6.181
 4210TIP3   OH212572   5.668   5.195   2.097
 4210TIP3    H112573   5.730   5.223   2.165
 4210TIP3    H212574   5.703   5.232   2.016
 4211TIP3   OH212575   2.710   7.423   0.257
 4211TIP3    H112576   2.804   7.437   0.250
 4211TIP3    H212577   2.688   7.452   0.346
 4212TIP3   OH212578   0.690   7.384   4.721
 4212TIP3    H112579   0.615   7.420   4.768
 4212TIP3    H212580   0.690   7.428   4.637
 4213TIP3   OH212581   0.508   0.636   0.576
 4213TIP3    H112582   0.532   0.616   0.485
 4213TIP3    H212583   0.448   0.710   0.568
 4214TIP3   OH212584   0.736   1.468   6.306
 4214TIP3    H112585   0.662   1.432   6.355
 4214TIP3    H212586   0.763   1.396   6.248
 4215TIP3   OH212587   7.187   1.650   0.591
 4215TIP3    H112588   7.245   1.621   0.521
 4215TIP3    H212589   7.099   1.631   0.559
 4216TIP3   OH212590   2.925   5.473   5.665
 4216TIP3    H112591   2.942   5.403   5.602
 4216TIP3    H212592   2.883   5.430   5.739
 4217TIP3   OH212593   7.160   2.550   5.357
 4217TIP3    H112594   7.231   2.551   5.293
 4217TIP3    H212595   7.108   2.473   5.333
 4218TIP3   OH212596   5.933   5.068   3.356
 4218TIP3    H112597   5.872   5.082   3.283
 4218TIP3    H212598   5.903   5.128   3.424
 4219TIP3   OH212599   5.952   1.435   1.465
 4219TIP3    H112600   6.027   1.376   1.460
 4219TIP3    H212601   5.946   1.474   1.378
 4220TIP3   OH212602   5.360   5.613   0.141
 4220TIP3    H112603   5.430   5.675   0.161
 4220TIP3    H212604   5.398   5.554   0.075
 4221TIP3   OH212605   3.401   6.565   5.231
 4221TIP3    H112606   3.359   6.615   5.301
 4221TIP3    H212607   3.345   6.488   5.220
 4222TIP3   OH212608   4.625   0.993   6.167
 4222TIP3    H112609   4.661   0.947   6.092
 4222TIP3    H212610   4.701   1.038   6.206
 4223TIP3   OH212611   1.439   1.148   3.671
 4223TIP3    H112612   1.384   1.085   3.717
 4223TIP3    H212613   1.527   1.133   3.705
 4224TIP3   OH212614   4.072   4.312   6.282
 4224TIP3    H112615   3.994   4.267   6.247
 4224TIP3    H212616   4.042   4.351   6.364
 4225TIP3   OH212617   7.498   4.296   1.136
 4225TIP3    H112618   7.590   4.277   1.156
 4225TIP3    H212619   7.450   4.219   1.166
 4226TIP3   OH212620   1.170   2.932   6.505
 4226TIP3    H112621   1.162   2.941   6.410
 4226TIP3    H212622   1.258   2.896   6.518
 4227TIP3   OH212623   3.308   3.812   4.557
 4227TIP3    H112624   3.296   3.776   4.645
 4227TIP3    H212625   3.380   3.761   4.519
 4228TIP3   OH212626   7.911   1.514   2.316
 4228TIP3    H112627   7.869   1.460   2.250
 4228TIP3    H212628   7.848   1.584   2.334
 4229TIP3   OH212629   4.174   0.454   2.199
 4229TIP3    H112630   4.094   0.501   2.175
 4229TIP3    H212631   4.146   0.364   2.212
 4230TIP3   OH212632   5.936   2.381   5.496
 4230TIP3    H112633   5.882   2.322   5.442
 4230TIP3    H212634   6.021   2.382   5.452
 4231TIP3   OH212635   7.518   1.931   5.057
 4231TIP3    H112636   7.480   1.866   5.115
 4231TIP3    H212637   7.577   1.882   5.000
 4232TIP3   OH212638   0.179   0.429   2.085
 4232TIP3    H112639   0.149   0.517   2.066
 4232TIP3    H212640   0.225   0.401   2.006
 4233TIP3   OH212641   7.436   5.017   2.424
 4233TIP3    H112642   7.481   4.938   2.454
 4233TIP3    H212643   7.353   4.985   2.389
 4234TIP3   OH212644   3.625   3.545   0.144
 4234TIP3    H112645   3.595   3.456   0.159
 4234TIP3    H212646   3.714   3.535   0.111
 4235TIP3   OH212647   5.267   2.923   3.917
 4235TIP3    H112648   5.269   2.887   3.828
 4235TIP3    H212649   5.198   2.873   3.961
 4236TIP3   OH212650   4.170   5.014   6.322
 4236TIP3    H112651   4.259   5.026   6.357
 4236TIP3    H212652   4.165   5.075   6.249
 4237TIP3   OH212653   6.227   3.150   3.688
 4237TIP3    H112654   6.304   3.129   3.636
 4237TIP3    H212655   6.159   3.089   3.657
 4238TIP3   OH212656   5.501   1.399   2.083
 4238TIP3    H112657   5.442   1.324   2.089
 4238TIP3    H212658   5.447   1.469   2.047
 4239TIP3   OH212659   2.217   7.721   6.273
 4239TIP3    H112660   2.233   7.738   6.365
 4239TIP3    H212661   2.121   7.722   6.264
 4240TIP3   OH212662   1.354   6.551   5.484
 4240TIP3    H112663   1.320   6.523   5.399
 4240TIP3    H212664   1.297   6.624   5.509
 4241TIP3   OH212665   2.857   1.077   0.067
 4241TIP3    H112666   2.761   1.080   0.077
 4241TIP3    H212667   2.886   1.163   0.099
 4242TIP3   OH212668   6.962   2.241   2.433
 4242TIP3    H112669   6.919   2.157   2.445
 4242TIP3    H212670   7.038   2.223   2.378
 4243TIP3   OH212671   1.382   3.125   0.451
 4243TIP3    H112672   1.347   3.078   0.375
 4243TIP3    H212673   1.305   3.149   0.502
 4244TIP3   OH212674   0.948   4.772   0.512
 4244TIP3    H112675   0.918   4.850   0.466
 4244TIP3    H212676   1.006   4.804   0.580
 4245TIP3   OH212677   0.587   0.264   5.255
 4245TIP3    H112678   0.508   0.295   5.297
 4245TIP3    H212679   0.620   0.339   5.207
 4246TIP3   OH212680   4.033   7.012   1.327
 4246TIP3    H112681   4.037   7.077   1.257
 4246TIP3    H212682   4.121   6.976   1.331
 4247TIP3   OH212683   8.006   1.342   2.647
 4247TIP3    H112684   7.985   1.317   2.737
 4247TIP3    H212685   8.087   1.294   2.627
 4248TIP3   OH212686   5.568   2.485   1.305
 4248TIP3    H112687   5.486   2.527   1.279
 4248TIP3    H212688   5.636   2.549   1.283
 4249TIP3   OH212689   7.568   5.273   4.653
 4249TIP3    H112690   7.620   5.210   4.704
 4249TIP3    H212691   7.480   5.236   4.652
 4250TIP3   OH212692   0.905   4.291   1.254
 4250TIP3    H112693   0.874   4.204   1.229
 4250TIP3    H212694   0.902   4.342   1.173
 4251TIP3   OH212695   2.303   4.138   6.111
 4251TIP3    H112696   2.257   4.059   6.082
 4251TIP3    H212697   2.274   4.150   6.201
 4252TIP3   OH212698   7.679   5.712   4.859
 4252TIP3    H112699   7.711   5.631   4.820
 4252TIP3    H212700   7.749   5.776   4.845
 4253TIP3   OH212701   4.325   3.374   2.822
 4253TIP3    H112702   4.274   3.336   2.750
 4253TIP3    H212703   4.297   3.326   2.899
 4254TIP3   OH212704   0.202   0.567   3.101
 4254TIP3    H112705   0.150   0.488   3.086
 4254TIP3    H212706   0.137   0.638   3.104
 4255TIP3   OH212707   6.777   6.933   6.624
 4255TIP3    H112708   6.775   6.845   6.662
 4255TIP3    H212709   6.740   6.989   6.693
 4256TIP3   OH212710   0.854   1.891   1.498
 4256TIP3    H112711   0.765   1.892   1.534
 4256TIP3    H212712   0.890   1.977   1.518
 4257TIP3   OH212713   2.838   7.288   3.375
 4257TIP3    H112714   2.789   7.291   3.457
 4257TIP3    H212715   2.917   7.340   3.392
 4258TIP3   OH212716   7.642   1.619   0.392
 4258TIP3    H112717   7.660   1.703   0.350
 4258TIP3    H212718   7.608   1.642   0.478
 4259TIP3   OH212719   4.815   5.041   5.541
 4259TIP3    H112720   4.837   5.133   5.528
 4259TIP3    H212721   4.899   5.000   5.564
 4260TIP3   OH212722   1.717   0.656   1.915
 4260TIP3    H112723   1.744   0.740   1.953
 4260TIP3    H212724   1.758   0.590   1.971
 4261TIP3   OH212725   0.775   5.631   0.685
 4261TIP3    H112726   0.826   5.621   0.766
 4261TIP3    H212727   0.746   5.542   0.664
 4262TIP3   OH212728   8.000   6.939   1.068
 4262TIP3    H112729   7.969   6.882   1.139
 4262TIP3    H212730   8.095   6.934   1.073
 4263TIP3   OH212731   6.055   2.206   6.223
 4263TIP3    H112732   6.125   2.220   6.159
 4263TIP3    H212733   6.067   2.276   6.287
 4264TIP3   OH212734   4.458   3.710   0.226
 4264TIP3    H112735   4.408   3.716   0.307
 4264TIP3    H212736   4.528   3.774   0.237
 4265TIP3   OH212737   1.442   3.780   2.298
 4265TIP3    H112738   1.466   3.858   2.249
 4265TIP3    H212739   1.363   3.805   2.346
 4266TIP3   OH212740   2.251   4.269   4.165
 4266TIP3    H112741   2.271   4.314   4.082
 4266TIP3    H212742   2.188   4.327   4.209
 4267TIP3   OH212743   2.519   0.098   0.743
 4267TIP3    H112744   2.425   0.089   0.727
 4267TIP3    H212745   2.526   0.166   0.809
 4268TIP3   OH212746   5.106   1.938   4.749
 4268TIP3    H112747   5.092   1.869   4.813
 4268TIP3    H212748   5.147   2.009   4.799
 4269TIP3   OH212749   0.498   0.546   1.844
 4269TIP3    H112750   0.490   0.566   1.938
 4269TIP3    H212751   0.451   0.616   1.800
 4270TIP3   OH212752   2.648   5.502   2.865
 4270TIP3    H112753   2.597   5.440   2.917
 4270TIP3    H212754   2.631   5.587   2.906
 4271TIP3   OH212755   6.530   2.567   1.426
 4271TIP3    H112756   6.589   2.580   1.351
 4271TIP3    H212757   6.496   2.654   1.445
 4272TIP3   OH212758   4.922   5.161   1.250
 4272TIP3    H112759   4.935   5.246   1.293
 4272TIP3    H212760   4.828   5.148   1.251
 4273TIP3   OH212761   7.255   0.565   3.128
 4273TIP3    H112762   7.219   0.605   3.048
 4273TIP3    H212763   7.203   0.485   3.140
 4274TIP3   OH212764   5.399   4.911   5.127
 4274TIP3    H112765   5.428   4.943   5.212
 4274TIP3    H212766   5.462   4.946   5.065
 4275TIP3   OH212767   4.369   3.358   1.829
 4275TIP3    H112768   4.432   3.402   1.771
 4275TIP3    H212769   4.424   3.313   1.894
 4276TIP3   OH212770   2.079   3.499   5.671
 4276TIP3    H112771   1.984   3.511   5.665
 4276TIP3    H212772   2.091   3.404   5.665
 4277TIP3   OH212773   0.564   5.095   6.501
 4277TIP3    H112774   0.504   5.021   6.489
 4277TIP3    H212775   0.585   5.095   6.595
 4278TIP3   OH212776   1.078   7.112   1.114
 4278TIP3    H112777   1.064   7.170   1.040
 4278TIP3    H212778   1.104   7.170   1.186
 4279TIP3   OH212779   3.971   5.470   5.864
 4279TIP3    H112780   4.008   5.548   5.905
 4279TIP3    H212781   3.955   5.495   5.773
 4280TIP3   OH212782   7.543   4.252   5.067
 4280TIP3    H112783   7.472   4.212   5.017
 4280TIP3    H212784   7.605   4.281   5.001
 4281TIP3   OH212785   7.530   4.246   2.030
 4281TIP3    H112786   7.563   4.224   2.117
 4281TIP3    H212787   7.546   4.167   1.978
 4282TIP3   OH212788   7.922   4.369   6.761
 4282TIP3    H112789   7.910   4.296   6.701
 4282TIP3    H212790   8.017   4.374   6.774
 4283TIP3   OH212791   0.247   7.012   0.186
 4283TIP3    H112792   0.325   7.058   0.215
 4283TIP3    H212793   0.180   7.081   0.178
 4284TIP3   OH212794   1.936   6.779   5.070
 4284TIP3    H112795   2.025   6.773   5.103
 4284TIP3    H212796   1.937   6.854   5.011
 4285TIP3   OH212797   4.753   7.137   5.699
 4285TIP3    H112798   4.760   7.168   5.609
 4285TIP3    H212799   4.691   7.197   5.740
 4286TIP3   OH212800   6.213   3.487   2.195
 4286TIP3    H112801   6.229   3.563   2.139
 4286TIP3    H212802   6.202   3.523   2.283
 4287TIP3   OH212803   4.899   0.431   4.311
 4287TIP3    H112804   4.838   0.473   4.251
 4287TIP3    H212805   4.982   0.477   4.298
 4288TIP3   OH212806   3.095   1.522   6.041
 4288TIP3    H112807   3.054   1.605   6.015
 4288TIP3    H212808   3.164   1.509   5.976
 4289TIP3   OH212809   1.637   2.165   4.071
 4289TIP3    H112810   1.657   2.077   4.100
 4289TIP3    H212811   1.541   2.169   4.073
 4290TIP3   OH212812   5.381   0.546   2.130
 4290TIP3    H112813   5.468   0.514   2.106
 4290TIP3    H212814   5.381   0.545   2.226
 4291TIP3   OH212815   1.069   1.051   0.267
 4291TIP3    H112816   1.113   0.969   0.244
 4291TIP3    H212817   1.091   1.111   0.195
 4292TIP3   OH212818   1.423   2.890   5.489
 4292TIP3    H112819   1.448   2.914   5.400
 4292TIP3    H212820   1.505   2.873   5.534
 4293TIP3   OH212821   7.705   7.203   0.564
 4293TIP3    H112822   7.682   7.176   0.475
 4293TIP3    H212823   7.784   7.256   0.553
 4294TIP3   OH212824   3.018   0.138   1.716
 4294TIP3    H112825   3.049   0.207   1.657
 4294TIP3    H212826   3.096   0.087   1.737
 4295TIP3   OH212827   2.300   5.578   3.232
 4295TIP3    H112828   2.251   5.641   3.285
 4295TIP3    H212829   2.341   5.632   3.164
 4296TIP3   OH212830   6.156   7.485   1.144
 4296TIP3    H112831   6.223   7.461   1.207
 4296TIP3    H212832   6.073   7.466   1.189
 4297TIP3   OH212833   1.093   2.371   1.672
 4297TIP3    H112834   1.108   2.354   1.579
 4297TIP3    H212835   1.079   2.285   1.710
 4298TIP3   OH212836   4.786   7.646   2.373
 4298TIP3    H112837   4.877   7.640   2.404
 4298TIP3    H212838   4.788   7.610   2.285
 4299TIP3   OH212839   6.398   0.577   2.358
 4299TIP3    H112840   6.405   0.588   2.263
 4299TIP3    H212841   6.360   0.659   2.390
 4300TIP3   OH212842   1.436   0.060   0.247
 4300TIP3    H112843   1.377   0.062   0.171
 4300TIP3    H212844   1.438   0.151   0.278
 4301TIP3   OH212845   0.893   2.970   5.574
 4301TIP3    H112846   0.945   2.967   5.655
 4301TIP3    H212847   0.808   3.006   5.601
 4302TIP3   OH212848   6.071   3.682   6.401
 4302TIP3    H112849   5.982   3.701   6.431
 4302TIP3    H212850   6.068   3.695   6.307
 4303TIP3   OH212851   6.491   6.435   0.132
 4303TIP3    H112852   6.453   6.388   0.058
 4303TIP3    H212853   6.543   6.505   0.092
 4304TIP3   OH212854   5.211   5.622   4.176
 4304TIP3    H112855   5.230   5.594   4.266
 4304TIP3    H212856   5.118   5.643   4.176
 4305TIP3   OH212857   7.746   4.660   0.390
 4305TIP3    H112858   7.794   4.586   0.355
 4305TIP3    H212859   7.742   4.723   0.318
 4306TIP3   OH212860   3.012   4.079   3.333
 4306TIP3    H112861   2.916   4.090   3.333
 4306TIP3    H212862   3.046   4.169   3.332
 4307TIP3   OH212863   8.073   0.982   0.621
 4307TIP3    H112864   7.996   1.009   0.570
 4307TIP3    H212865   8.079   0.887   0.608
 4308TIP3   OH212866   2.437   1.066   6.390
 4308TIP3    H112867   2.436   1.138   6.453
 4308TIP3    H212868   2.487   0.997   6.433
 4309TIP3   OH212869   4.734   0.116   5.090
 4309TIP3    H112870   4.785   0.196   5.080
 4309TIP3    H212871   4.784   0.063   5.153
 4310TIP3   OH212872   3.159   2.413   4.041
 4310TIP3    H112873   3.151   2.321   4.017
 4310TIP3    H212874   3.078   2.434   4.088
 4311TIP3   OH212875   4.922   6.512   1.264
 4311TIP3    H112876   4.861   6.483   1.332
 4311TIP3    H212877   4.996   6.549   1.312
 4312TIP3   OH212878   2.953   1.543   2.743
 4312TIP3    H112879   2.885   1.556   2.809
 4312TIP3    H212880   2.928   1.603   2.672
 4313TIP3   OH212881   2.550   6.376   2.293
 4313TIP3    H112882   2.555   6.461   2.250
 4313TIP3    H212883   2.569   6.394   2.385
 4314TIP3   OH212884   1.837   6.260   4.023
 4314TIP3    H112885   1.807   6.263   4.114
 4314TIP3    H212886   1.809   6.175   3.991
 4315TIP3   OH212887   5.733   5.984   2.898
 4315TIP3    H112888   5.640   5.987   2.917
 4315TIP3    H212889   5.776   5.972   2.983
 4316TIP3   OH212890   4.613   1.052   3.422
 4316TIP3    H112891   4.696   1.006   3.412
 4316TIP3    H212892   4.547   0.983   3.417
 4317TIP3   OH212893   1.946   3.577   0.443
 4317TIP3    H112894   1.986   3.519   0.508
 4317TIP3    H212895   1.913   3.651   0.495
 4318TIP3   OH212896   0.586   2.582   2.713
 4318TIP3    H112897   0.554   2.655   2.660
 4318TIP3    H212898   0.604   2.621   2.798
 4319TIP3   OH212899   3.234   4.816   5.644
 4319TIP3    H112900   3.231   4.863   5.561
 4319TIP3    H212901   3.283   4.874   5.702
 4320TIP3   OH212902   5.980   6.096   6.449
 4320TIP3    H112903   5.903   6.147   6.475
 4320TIP3    H212904   6.051   6.131   6.503
 4321TIP3   OH212905   0.152   5.175   4.879
 4321TIP3    H112906   0.114   5.161   4.966
 4321TIP3    H212907   0.182   5.089   4.852
 4322TIP3   OH212908   0.716   2.482   0.863
 4322TIP3    H112909   0.758   2.431   0.932
 4322TIP3    H212910   0.753   2.570   0.871
 4323TIP3   OH212911   6.936   2.064   0.024
 4323TIP3    H112912   6.990   2.138   0.055
 4323TIP3    H212913   6.956   2.058  -0.069
 4324TIP3   OH212914   4.391   4.550   4.475
 4324TIP3    H112915   4.378   4.465   4.434
 4324TIP3    H212916   4.302   4.583   4.491
 4325TIP3   OH212917   2.010   5.209   2.942
 4325TIP3    H112918   2.012   5.117   2.967
 4325TIP3    H212919   1.952   5.213   2.866
 4326TIP3   OH212920   4.202   1.256   3.366
 4326TIP3    H112921   4.288   1.297   3.357
 4326TIP3    H212922   4.216   1.165   3.337
 4327TIP3   OH212923   7.468   6.327   6.406
 4327TIP3    H112924   7.519   6.402   6.435
 4327TIP3    H212925   7.474   6.263   6.477
 4328TIP3   OH212926   7.534   2.156   4.369
 4328TIP3    H112927   7.519   2.061   4.364
 4328TIP3    H212928   7.616   2.170   4.322
 4329TIP3   OH212929   3.935   3.867   2.435
 4329TIP3    H112930   3.957   3.778   2.463
 4329TIP3    H212931   4.020   3.911   2.424
 4330TIP3   OH212932   1.001   6.918   6.329
 4330TIP3    H112933   1.056   6.936   6.405
 4330TIP3    H212934   1.056   6.866   6.271
 4331TIP3   OH212935   5.788   5.321   6.122
 4331TIP3    H112936   5.730   5.388   6.158
 4331TIP3    H212937   5.875   5.344   6.155
 4332TIP3   OH212938   1.463   3.248   1.452
 4332TIP3    H112939   1.483   3.227   1.361
 4332TIP3    H212940   1.527   3.314   1.476
 4333TIP3   OH212941   7.373   6.111   3.189
 4333TIP3    H112942   7.381   6.204   3.171
 4333TIP3    H212943   7.444   6.092   3.251
 4334TIP3   OH212944   3.243   5.888   2.823
 4334TIP3    H112945   3.230   5.813   2.880
 4334TIP3    H212946   3.220   5.857   2.736
 4335TIP3   OH212947   4.127   0.896   4.854
 4335TIP3    H112948   4.107   0.975   4.903
 4335TIP3    H212949   4.204   0.918   4.802
 4336TIP3   OH212950   3.406   6.143   5.139
 4336TIP3    H112951   3.394   6.056   5.102
 4336TIP3    H212952   3.327   6.157   5.192
 4337TIP3   OH212953   5.865   1.255   2.551
 4337TIP3    H112954   5.772   1.250   2.528
 4337TIP3    H212955   5.879   1.180   2.610
 4338TIP3   OH212956   8.205   5.881   4.491
 4338TIP3    H112957   8.231   5.789   4.492
 4338TIP3    H212958   8.161   5.893   4.575
 4339TIP3   OH212959   3.953   0.150   2.888
 4339TIP3    H112960   3.934   0.210   2.816
 4339TIP3    H212961   3.869   0.108   2.908
 4340TIP3   OH212962   2.507   0.945   1.593
 4340TIP3    H112963   2.482   0.856   1.568
 4340TIP3    H212964   2.424   0.992   1.600
 4341TIP3   OH212965   4.028   4.586   2.853
 4341TIP3    H112966   4.045   4.607   2.945
 4341TIP3    H212967   4.053   4.665   2.805
 4342TIP3   OH212968   1.858   5.583   2.719
 4342TIP3    H112969   1.793   5.627   2.663
 4342TIP3    H212970   1.921   5.652   2.740
 4343TIP3   OH212971   3.366   1.873   3.663
 4343TIP3    H112972   3.457   1.876   3.693
 4343TIP3    H212973   3.336   1.963   3.669
 4344TIP3   OH212974   2.289   3.019   4.858
 4344TIP3    H112975   2.328   3.103   4.881
 4344TIP3    H212976   2.350   2.954   4.893
 4345TIP3   OH212977   4.111   4.625   5.253
 4345TIP3    H112978   4.174   4.563   5.288
 4345TIP3    H212979   4.134   4.708   5.295
 4346TIP3   OH212980   7.729   6.026   6.078
 4346TIP3    H112981   7.774   6.056   5.999
 4346TIP3    H212982   7.643   5.996   6.046
 4347TIP3   OH212983   8.265   7.262   2.108
 4347TIP3    H112984   8.231   7.203   2.174
 4347TIP3    H212985   8.324   7.321   2.156
 4348TIP3   OH212986   5.371   3.844   5.299
 4348TIP3    H112987   5.342   3.902   5.369
 4348TIP3    H212988   5.333   3.882   5.219
 4349TIP3   OH212989   4.483   5.712   5.268
 4349TIP3    H112990   4.548   5.749   5.208
 4349TIP3    H212991   4.461   5.627   5.230
 4350TIP3   OH212992   6.726   0.461   0.603
 4350TIP3    H112993   6.671   0.447   0.680
 4350TIP3    H212994   6.673   0.514   0.544
 4351TIP3   OH212995   1.245   6.342   6.317
 4351TIP3    H112996   1.151   6.333   6.306
 4351TIP3    H212997   1.284   6.279   6.257
 4352TIP3   OH212998   6.249   1.763   0.481
 4352TIP3    H112999   6.163   1.721   0.482
 4352TIP3    H213000   6.248   1.819   0.403
 4353TIP3   OH213001   5.095   1.138   6.577
 4353TIP3    H113002   5.048   1.064   6.538
 4353TIP3    H213003   5.167   1.155   6.517
 4354TIP3   OH213004   3.772   0.278   3.470
 4354TIP3    H113005   3.799   0.186   3.477
 4354TIP3    H213006   3.688   0.276   3.424
 4355TIP3   OH213007   3.461   5.258   4.803
 4355TIP3    H113008   3.409   5.244   4.882
 4355TIP3    H213009   3.546   5.218   4.823
 4356TIP3   OH213010   5.660   2.331   4.326
 4356TIP3    H113011   5.752   2.312   4.307
 4356TIP3    H213012   5.623   2.357   4.242
 4357TIP3   OH213013   2.077   2.970   2.238
 4357TIP3    H113014   1.988   2.945   2.213
 4357TIP3    H213015   2.134   2.912   2.188
 4358TIP3   OH213016   0.776   7.139   0.559
 4358TIP3    H113017   0.851   7.087   0.530
 4358TIP3    H213018   0.815   7.213   0.606
 4359TIP3   OH213019   4.301   5.975   1.397
 4359TIP3    H113020   4.385   6.004   1.431
 4359TIP3    H213021   4.305   5.996   1.303
 4360TIP3   OH213022   3.852   3.324   2.887
 4360TIP3    H113023   3.767   3.286   2.909
 4360TIP3    H213024   3.914   3.278   2.944
 4361TIP3   OH213025   1.441   5.851   1.864
 4361TIP3    H113026   1.520   5.804   1.893
 4361TIP3    H213027   1.473   5.936   1.836
 4362TIP3   OH213028   4.372   6.245   6.258
 4362TIP3    H113029   4.381   6.338   6.277
 4362TIP3    H213030   4.378   6.240   6.162
 4363TIP3   OH213031   4.974  -0.050   5.688
 4363TIP3    H113032   5.025   0.004   5.749
 4363TIP3    H213033   4.932   0.013   5.630
 4364TIP3   OH213034   1.006   2.128   4.674
 4364TIP3    H113035   1.008   2.190   4.747
 4364TIP3    H213036   0.921   2.085   4.682
 4365TIP3   OH213037   0.410   0.327   5.448
 4365TIP3    H113038   0.441   0.240   5.471
 4365TIP3    H213039   0.365   0.358   5.526
 4366TIP3   OH213040   6.295   4.351   0.694
 4366TIP3    H113041   6.291   4.354   0.789
 4366TIP3    H213042   6.335   4.267   0.674
 4367TIP3   OH213043   0.445   7.441   0.358
 4367TIP3    H113044   0.495   7.444   0.440
 4367TIP3    H213045   0.511   7.436   0.290
 4368TIP3   OH213046   7.055   2.581   4.688
 4368TIP3    H113047   6.976   2.529   4.702
 4368TIP3    H213048   7.117   2.522   4.645
 4369TIP3   OH213049   6.338   1.932   1.151
 4369TIP3    H113050   6.277   1.957   1.081
 4369TIP3    H213051   6.301   1.972   1.230
 4370TIP3   OH213052   5.764   2.178   5.345
 4370TIP3    H113053   5.795   2.096   5.384
 4370TIP3    H213054   5.792   2.173   5.254
 4371TIP3   OH213055   5.661   3.519   2.925
 4371TIP3    H113056   5.633   3.433   2.954
 4371TIP3    H213057   5.631   3.525   2.834
 4372TIP3   OH213058   4.847   3.225   5.649
 4372TIP3    H113059   4.862   3.307   5.697
 4372TIP3    H213060   4.913   3.165   5.684
 4373TIP3   OH213061   0.861   4.694   3.659
 4373TIP3    H113062   0.929   4.690   3.727
 4373TIP3    H213063   0.901   4.650   3.584
 4374TIP3   OH213064   8.225   1.844   3.018
 4374TIP3    H113065   8.247   1.909   2.951
 4374TIP3    H213066   8.196   1.767   2.968
 4375TIP3   OH213067   5.050   1.555   5.688
 4375TIP3    H113068   5.062   1.472   5.734
 4375TIP3    H213069   5.011   1.613   5.753
 4376TIP3   OH213070   0.545   6.318   4.849
 4376TIP3    H113071   0.613   6.277   4.796
 4376TIP3    H213072   0.586   6.336   4.933
 4377TIP3   OH213073   1.567   1.645   2.494
 4377TIP3    H113074   1.543   1.617   2.583
 4377TIP3    H213075   1.487   1.631   2.443
 4378TIP3   OH213076   5.077   0.363   2.279
 4378TIP3    H113077   5.019   0.405   2.342
 4378TIP3    H213078   5.122   0.295   2.329
 4379TIP3   OH213079   4.664   6.309   1.893
 4379TIP3    H113080   4.700   6.382   1.943
 4379TIP3    H213081   4.675   6.233   1.949
 4380TIP3   OH213082   2.067   2.717   5.655
 4380TIP3    H113083   2.102   2.649   5.598
 4380TIP3    H213084   1.972   2.703   5.654
 4381TIP3   OH213085   3.998   1.054   1.604
 4381TIP3    H113086   3.969   1.085   1.519
 4381TIP3    H213087   3.979   1.126   1.664
 4382TIP3   OH213088   4.566   4.670   3.072
 4382TIP3    H113089   4.619   4.636   3.144
 4382TIP3    H213090   4.528   4.593   3.031
 4383TIP3   OH213091   8.291   7.541   1.539
 4383TIP3    H113092   8.230   7.541   1.466
 4383TIP3    H213093   8.242   7.579   1.612
 4384TIP3   OH213094   8.281   2.106   5.190
 4384TIP3    H113095   8.265   2.200   5.199
 4384TIP3    H213096   8.214   2.064   5.245
 4385TIP3   OH213097   0.141   1.889   5.950
 4385TIP3    H113098   0.088   1.830   6.003
 4385TIP3    H213099   0.139   1.850   5.862
 4386TIP3   OH213100   1.905   1.668   3.792
 4386TIP3    H113101   1.928   1.636   3.879
 4386TIP3    H213102   1.895   1.589   3.739
 4387TIP3   OH213103   2.961   6.931   5.930
 4387TIP3    H113104   2.869   6.925   5.954
 4387TIP3    H213105   2.981   7.025   5.933
 4388TIP3   OH213106   1.334   0.591   5.568
 4388TIP3    H113107   1.293   0.648   5.503
 4388TIP3    H213108   1.261   0.557   5.620
 4389TIP3   OH213109   4.358   5.412   2.391
 4389TIP3    H113110   4.318   5.375   2.470
 4389TIP3    H213111   4.301   5.383   2.320
 4390TIP3   OH213112   2.499   4.139   5.293
 4390TIP3    H113113   2.536   4.052   5.278
 4390TIP3    H213114   2.476   4.171   5.206
 4391TIP3   OH213115   0.960   5.041   4.700
 4391TIP3    H113116   0.868   5.029   4.720
 4391TIP3    H213117   1.007   5.005   4.775
 4392TIP3   OH213118   2.508   1.358   0.086
 4392TIP3    H113119   2.419   1.339   0.058
 4392TIP3    H213120   2.556   1.375   0.004
 4393TIP3   OH213121   6.809   5.489   2.485
 4393TIP3    H113122   6.757   5.484   2.405
 4393TIP3    H213123   6.828   5.582   2.496
 4394TIP3   OH213124   2.099   5.160   3.783
 4394TIP3    H113125   2.105   5.103   3.861
 4394TIP3    H213126   2.184   5.204   3.780
 4395TIP3   OH213127   6.770   5.448   1.020
 4395TIP3    H113128   6.828   5.446   1.096
 4395TIP3    H213129   6.749   5.357   1.003
 4396TIP3   OH213130   1.781   5.914   4.187
 4396TIP3    H113131   1.722   5.859   4.240
 4396TIP3    H213132   1.845   5.947   4.250
 4397TIP3   OH213133   4.858   6.558   6.146
 4397TIP3    H113134   4.850   6.637   6.092
 4397TIP3    H213135   4.922   6.504   6.100
 4398TIP3   OH213136   3.405   6.265   6.237
 4398TIP3    H113137   3.452   6.287   6.157
 4398TIP3    H213138   3.454   6.191   6.274
 4399TIP3   OH213139   3.158   4.540   4.547
 4399TIP3    H113140   3.126   4.475   4.610
 4399TIP3    H213141   3.218   4.594   4.597
 4400TIP3   OH213142   2.376   6.088   3.697
 4400TIP3    H113143   2.309   6.136   3.648
 4400TIP3    H213144   2.452   6.089   3.639
 4401TIP3   OH213145   6.823   1.484   4.121
 4401TIP3    H113146   6.800   1.402   4.076
 4401TIP3    H213147   6.738   1.523   4.143
 4402TIP3   OH213148   2.679   3.819   3.816
 4402TIP3    H113149   2.767   3.831   3.780
 4402TIP3    H213150   2.689   3.748   3.880
 4403TIP3   OH213151   7.270   6.195   3.523
 4403TIP3    H113152   7.198   6.201   3.461
 4403TIP3    H213153   7.284   6.101   3.535
 4404TIP3   OH213154   7.734   5.676   2.339
 4404TIP3    H113155   7.717   5.636   2.424
 4404TIP3    H213156   7.670   5.635   2.281
 4405TIP3   OH213157   1.200   0.645   5.286
 4405TIP3    H113158   1.222   0.573   5.346
 4405TIP3    H213159   1.108   0.630   5.264
 4406TIP3   OH213160   6.495   3.766   2.437
 4406TIP3    H113161   6.420   3.714   2.464
 4406TIP3    H213162   6.489   3.770   2.341
 4407TIP3   OH213163   8.039   2.220   6.417
 4407TIP3    H113164   7.973   2.225   6.486
 4407TIP3    H213165   7.993   2.250   6.338
 4408TIP3   OH213166   4.201   4.627   2.593
 4408TIP3    H113167   4.261   4.655   2.523
 4408TIP3    H213168   4.166   4.708   2.629
 4409TIP3   OH213169   4.777   3.452   1.883
 4409TIP3    H113170   4.837   3.401   1.829
 4409TIP3    H213171   4.721   3.498   1.821
 4410TIP3   OH213172   2.643   3.938   4.383
 4410TIP3    H113173   2.646   3.865   4.322
 4410TIP3    H213174   2.578   3.998   4.346
 4411TIP3   OH213175   2.289   6.333   5.829
 4411TIP3    H113176   2.198   6.334   5.798
 4411TIP3    H213177   2.293   6.407   5.890
 4412TIP3   OH213178   6.855   7.362   5.176
 4412TIP3    H113179   6.867   7.443   5.127
 4412TIP3    H213180   6.784   7.317   5.130
 4413TIP3   OH213181   6.887   0.068   4.199
 4413TIP3    H113182   6.811   0.117   4.167
 4413TIP3    H213183   6.862  -0.024   4.189
 4414TIP3   OH213184   6.926   3.145   0.620
 4414TIP3    H113185   6.892   3.227   0.656
 4414TIP3    H213186   6.850   3.088   0.615
 4415TIP3   OH213187   6.969   6.448   0.090
 4415TIP3    H113188   6.990   6.522   0.033
 4415TIP3    H213189   6.892   6.476   0.139
 4416TIP3   OH213190   4.777   6.333   6.659
 4416TIP3    H113191   4.796   6.241   6.640
 4416TIP3    H213192   4.856   6.366   6.701
 4417TIP3   OH213193   0.335   6.796   2.204
 4417TIP3    H113194   0.259   6.850   2.225
 4417TIP3    H213195   0.334   6.726   2.269
 4418TIP3   OH213196   0.692   4.910   0.713
 4418TIP3    H113197   0.613   4.924   0.766
 4418TIP3    H213198   0.757   4.879   0.777
 4419TIP3   OH213199   2.803   7.318   4.874
 4419TIP3    H113200   2.891   7.341   4.845
 4419TIP3    H213201   2.744   7.368   4.817
 4420TIP3   OH213202   6.807   7.079   5.189
 4420TIP3    H113203   6.853   7.004   5.226
 4420TIP3    H213204   6.797   7.058   5.096
 4421TIP3   OH213205   1.383   4.235   0.400
 4421TIP3    H113206   1.404   4.162   0.342
 4421TIP3    H213207   1.468   4.266   0.432
 4422TIP3   OH213208   2.670   0.146   4.364
 4422TIP3    H113209   2.657   0.060   4.405
 4422TIP3    H213210   2.596   0.199   4.394
 4423TIP3   OH213211   8.278   2.062   3.782
 4423TIP3    H113212   8.332   1.994   3.741
 4423TIP3    H213213   8.216   2.013   3.836
 4424TIP3   OH213214   2.194   3.628   3.576
 4424TIP3    H113215   2.268   3.661   3.525
 4424TIP3    H213216   2.232   3.557   3.629
 4425TIP3   OH213217   4.986   1.026   5.125
 4425TIP3    H113218   5.048   0.970   5.171
 4425TIP3    H213219   4.902   0.980   5.132
 4426TIP3   OH213220   8.241   4.218   2.127
 4426TIP3    H113221   8.282   4.131   2.122
 4426TIP3    H213222   8.209   4.235   2.038
 4427TIP3   OH213223   5.882   7.415   1.214
 4427TIP3    H113224   5.812   7.476   1.237
 4427TIP3    H213225   5.894   7.361   1.292
 4428TIP3   OH213226   2.069   5.798   4.318
 4428TIP3    H113227   2.146   5.854   4.311
 4428TIP3    H213228   2.055   5.788   4.413
 4429TIP3   OH213229   7.738   0.323   6.182
 4429TIP3    H113230   7.702   0.243   6.219
 4429TIP3    H213231   7.667   0.387   6.187
 4430TIP3   OH213232   1.860   6.802   4.684
 4430TIP3    H113233   1.769   6.773   4.678
 4430TIP3    H213234   1.911   6.727   4.656
 4431TIP3   OH213235   0.119   5.981   5.469
 4431TIP3    H113236   0.163   6.062   5.441
 4431TIP3    H213237   0.026   5.999   5.456
 4432TIP3   OH213238   0.819   0.621   4.574
 4432TIP3    H113239   0.808   0.664   4.659
 4432TIP3    H213240   0.765   0.673   4.514
 4433TIP3   OH213241   4.968   5.488   0.368
 4433TIP3    H113242   4.952   5.396   0.347
 4433TIP3    H213243   4.948   5.495   0.461
 4434TIP3   OH213244   3.777   0.392   5.720
 4434TIP3    H113245   3.682   0.401   5.731
 4434TIP3    H213246   3.792   0.298   5.722
 4435TIP3   OH213247   4.280   1.229   1.637
 4435TIP3    H113248   4.325   1.212   1.720
 4435TIP3    H213249   4.188   1.217   1.657
 4436TIP3   OH213250   5.083   6.909   6.657
 4436TIP3    H113251   5.010   6.958   6.619
 4436TIP3    H213252   5.115   6.854   6.586
 4437TIP3   OH213253   2.390   5.073   0.962
 4437TIP3    H113254   2.385   5.115   0.875
 4437TIP3    H213255   2.472   5.107   0.999
 4438TIP3   OH213256   6.636   7.016   2.947
 4438TIP3    H113257   6.585   7.033   2.868
 4438TIP3    H213258   6.727   7.011   2.917
 4439TIP3   OH213259   3.807   1.509   5.373
 4439TIP3    H113260   3.879   1.450   5.397
 4439TIP3    H213261   3.812   1.515   5.278
 4440TIP3   OH213262   6.752   4.653   0.157
 4440TIP3    H113263   6.747   4.748   0.169
 4440TIP3    H213264   6.680   4.633   0.097
 4441TIP3   OH213265   2.313   0.556   2.409
 4441TIP3    H113266   2.276   0.614   2.343
 4441TIP3    H213267   2.367   0.613   2.464
 4442TIP3   OH213268   3.796   0.854   0.118
 4442TIP3    H113269   3.750   0.795   0.177
 4442TIP3    H213270   3.868   0.801   0.082
 4443TIP3   OH213271   3.498   6.733   3.607
 4443TIP3    H113272   3.457   6.651   3.579
 4443TIP3    H213273   3.572   6.744   3.547
 4444TIP3   OH213274   3.331   2.681   3.759
 4444TIP3    H113275   3.256   2.702   3.814
 4444TIP3    H213276   3.359   2.594   3.789
 4445TIP3   OH213277   7.976   2.878   3.058
 4445TIP3    H113278   8.047   2.930   3.095
 4445TIP3    H213279   7.943   2.826   3.132
 4446TIP3   OH213280   5.294   4.744   3.779
 4446TIP3    H113281   5.373   4.710   3.820
 4446TIP3    H213282   5.313   4.743   3.685
 4447TIP3   OH213283   1.795   2.655   0.879
 4447TIP3    H113284   1.862   2.620   0.937
 4447TIP3    H213285   1.792   2.594   0.805
 4448TIP3   OH213286   2.451   5.764   4.156
 4448TIP3    H113287   2.403   5.811   4.225
 4448TIP3    H213288   2.433   5.814   4.076
 4449TIP3   OH213289   5.190   0.824   0.106
 4449TIP3    H113290   5.284   0.822   0.121
 4449TIP3    H213291   5.163   0.733   0.110
 4450TIP3   OH213292   4.130   0.451   3.477
 4450TIP3    H113293   4.055   0.443   3.419
 4450TIP3    H213294   4.103   0.408   3.558
 4451TIP3   OH213295   6.727   5.684   2.098
 4451TIP3    H113296   6.688   5.757   2.050
 4451TIP3    H213297   6.756   5.723   2.181
 4452TIP3   OH213298   1.075   4.451   5.743
 4452TIP3    H113299   1.080   4.454   5.647
 4452TIP3    H213300   1.056   4.541   5.768
 4453TIP3   OH213301   0.871   4.932   5.134
 4453TIP3    H113302   0.916   4.851   5.107
 4453TIP3    H213303   0.779   4.906   5.142
 4454TIP3   OH213304   5.301   1.719   5.230
 4454TIP3    H113305   5.353   1.796   5.253
 4454TIP3    H213306   5.276   1.681   5.314
 4455TIP3   OH213307   1.520   2.437   1.207
 4455TIP3    H113308   1.609   2.452   1.237
 4455TIP3    H213309   1.520   2.348   1.171
 4456TIP3   OH213310   4.783   2.194   5.368
 4456TIP3    H113311   4.697   2.207   5.409
 4456TIP3    H213312   4.842   2.253   5.416
 4457TIP3   OH213313   3.421   5.682   5.667
 4457TIP3    H113314   3.369   5.745   5.716
 4457TIP3    H213315   3.412   5.600   5.716
 4458TIP3   OH213316   7.811   7.595   4.350
 4458TIP3    H113317   7.802   7.690   4.364
 4458TIP3    H213318   7.748   7.556   4.410
 4459TIP3   OH213319   1.119   0.275   4.953
 4459TIP3    H113320   1.087   0.364   4.964
 4459TIP3    H213321   1.044   0.219   4.974
 4460TIP3   OH213322   3.059   5.532   2.222
 4460TIP3    H113323   3.071   5.497   2.134
 4460TIP3    H213324   2.986   5.594   2.214
 4461TIP3   OH213325   0.841   3.578   3.800
 4461TIP3    H113326   0.820   3.661   3.842
 4461TIP3    H213327   0.756   3.535   3.788
 4462TIP3   OH213328   1.422   3.364   6.737
 4462TIP3    H113329   1.357   3.433   6.721
 4462TIP3    H213330   1.458   3.344   6.651
 4463TIP3   OH213331   5.178   2.297   3.362
 4463TIP3    H113332   5.159   2.328   3.451
 4463TIP3    H213333   5.267   2.263   3.366
 4464TIP3   OH213334   4.313   4.886   5.961
 4464TIP3    H113335   4.404   4.912   5.970
 4464TIP3    H213336   4.274   4.952   5.903
 4465TIP3   OH213337   5.469   7.210   6.374
 4465TIP3    H113338   5.387   7.259   6.381
 4465TIP3    H213339   5.443   7.121   6.353
 4466TIP3   OH213340   7.656   0.811   4.450
 4466TIP3    H113341   7.642   0.893   4.402
 4466TIP3    H213342   7.745   0.818   4.483
 4467TIP3   OH213343   1.465   1.695   5.194
 4467TIP3    H113344   1.417   1.640   5.255
 4467TIP3    H213345   1.504   1.763   5.248
 4468TIP3   OH213346   6.300   1.014   2.301
 4468TIP3    H113347   6.216   1.059   2.296
 4468TIP3    H213348   6.352   1.067   2.362
 4469TIP3   OH213349   0.433   2.831   3.645
 4469TIP3    H113350   0.478   2.855   3.726
 4469TIP3    H213351   0.346   2.869   3.654
 4470TIP3   OH213352   8.157   5.995   0.994
 4470TIP3    H113353   8.130   6.086   1.011
 4470TIP3    H213354   8.083   5.958   0.945
 4471TIP3   OH213355   0.582   3.747   3.417
 4471TIP3    H113356   0.509   3.776   3.472
 4471TIP3    H213357   0.644   3.820   3.419
 4472TIP3   OH213358   0.219   7.054   5.586
 4472TIP3    H113359   0.232   7.086   5.497
 4472TIP3    H213360   0.305   7.024   5.614
 4473TIP3   OH213361   1.455   5.625   1.378
 4473TIP3    H113362   1.427   5.695   1.319
 4473TIP3    H213363   1.374   5.577   1.398
 4474TIP3   OH213364   6.640   1.089   5.193
 4474TIP3    H113365   6.618   1.110   5.102
 4474TIP3    H213366   6.556   1.074   5.235
 4475TIP3   OH213367   1.943   1.680   4.566
 4475TIP3    H113368   1.863   1.627   4.563
 4475TIP3    H213369   1.915   1.768   4.541
 4476TIP3   OH213370   5.109   0.406   0.570
 4476TIP3    H113371   5.078   0.493   0.544
 4476TIP3    H213372   5.036   0.369   0.619
 4477TIP3   OH213373   3.922   3.469   2.684
 4477TIP3    H113374   3.908   3.409   2.758
 4477TIP3    H213375   3.862   3.541   2.700
 4478TIP3   OH213376   7.220   4.939   2.260
 4478TIP3    H113377   7.130   4.911   2.242
 4478TIP3    H213378   7.256   4.963   2.175
 4479TIP3   OH213379   7.056   7.619   2.584
 4479TIP3    H113380   7.052   7.648   2.676
 4479TIP3    H213381   7.071   7.700   2.535
 4480TIP3   OH213382   7.441   7.572   2.556
 4480TIP3    H113383   7.373   7.511   2.527
 4480TIP3    H213384   7.409   7.658   2.530
 4481TIP3   OH213385   4.383   4.069   2.630
 4481TIP3    H113386   4.437   4.148   2.628
 4481TIP3    H213387   4.399   4.031   2.716
 4482TIP3   OH213388   2.109   6.034   4.764
 4482TIP3    H113389   2.189   6.082   4.787
 4482TIP3    H213390   2.050   6.101   4.729
 4483TIP3   OH213391   5.479   3.340   2.375
 4483TIP3    H113392   5.470   3.258   2.325
 4483TIP3    H213393   5.520   3.401   2.314
 4484TIP3   OH213394   4.170   2.492   2.313
 4484TIP3    H113395   4.189   2.447   2.396
 4484TIP3    H213396   4.250   2.483   2.262
 4485TIP3   OH213397   5.703   0.630   5.606
 4485TIP3    H113398   5.637   0.638   5.538
 4485TIP3    H213399   5.760   0.559   5.576
 4486TIP3   OH213400   0.274   2.839   0.793
 4486TIP3    H113401   0.202   2.900   0.807
 4486TIP3    H213402   0.349   2.894   0.771
 4487TIP3   OH213403   4.135   1.284   1.266
 4487TIP3    H113404   4.223   1.320   1.272
 4487TIP3    H213405   4.142   1.214   1.201
 4488TIP3   OH213406   2.600   5.408   4.565
 4488TIP3    H113407   2.547   5.367   4.633
 4488TIP3    H213408   2.542   5.471   4.523
 4489TIP3   OH213409   3.729   6.092   4.935
 4489TIP3    H113410   3.776   6.175   4.934
 4489TIP3    H213411   3.742   6.057   4.847
 4490TIP3   OH213412   2.041   3.919   2.194
 4490TIP3    H113413   2.067   3.989   2.254
 4490TIP3    H213414   1.957   3.889   2.227
 4491TIP3   OH213415   8.140   1.124   5.046
 4491TIP3    H113416   8.169   1.114   4.955
 4491TIP3    H213417   8.148   1.218   5.062
 4492TIP3   OH213418   5.271   5.387   5.515
 4492TIP3    H113419   5.349   5.333   5.519
 4492TIP3    H213420   5.244   5.399   5.606
 4493TIP3   OH213421   6.092   4.699   4.202
 4493TIP3    H113422   6.077   4.695   4.108
 4493TIP3    H213423   6.168   4.756   4.212
 4494TIP3   OH213424   6.430   7.403   6.448
 4494TIP3    H113425   6.396   7.323   6.407
 4494TIP3    H213426   6.447   7.462   6.375
 4495TIP3   OH213427   2.370   7.182   1.635
 4495TIP3    H113428   2.313   7.251   1.601
 4495TIP3    H213429   2.374   7.117   1.564
 4496TIP3   OH213430   8.116   7.232   2.352
 4496TIP3    H113431   8.132   7.302   2.415
 4496TIP3    H213432   8.024   7.242   2.327
 4497TIP3   OH213433   3.178   5.147   6.399
 4497TIP3    H113434   3.170   5.131   6.493
 4497TIP3    H213435   3.186   5.242   6.392
 4498TIP3   OH213436   7.373   6.592   3.620
 4498TIP3    H113437   7.345   6.530   3.552
 4498TIP3    H213438   7.310   6.663   3.614
 4499TIP3   OH213439   3.923   0.713   4.140
 4499TIP3    H113440   3.884   0.691   4.055
 4499TIP3    H213441   3.868   0.783   4.174
 4500TIP3   OH213442   2.332   0.572   5.981
 4500TIP3    H113443   2.328   0.616   5.897
 4500TIP3    H213444   2.352   0.642   6.044
 4501TIP3   OH213445   4.218   1.054   2.045
 4501TIP3    H113446   4.262   0.970   2.059
 4501TIP3    H213447   4.131   1.030   2.012
 4502TIP3   OH213448   6.309   3.393   3.804
 4502TIP3    H113449   6.219   3.423   3.792
 4502TIP3    H213450   6.307   3.300   3.782
 4503TIP3   OH213451   1.365   2.107   3.805
 4503TIP3    H113452   1.350   2.201   3.816
 4503TIP3    H213453   1.428   2.101   3.732
 4504TIP3   OH213454   3.020   4.126   6.068
 4504TIP3    H113455   3.009   4.215   6.034
 4504TIP3    H213456   3.063   4.078   5.997
 4505TIP3   OH213457   7.969   1.691   1.946
 4505TIP3    H113458   7.944   1.622   1.884
 4505TIP3    H213459   7.890   1.744   1.955
 4506TIP3   OH213460   6.039   1.576   4.949
 4506TIP3    H113461   6.075   1.647   5.002
 4506TIP3    H213462   6.061   1.496   4.998
 4507TIP3   OH213463   1.732   6.644   1.748
 4507TIP3    H113464   1.746   6.549   1.751
 4507TIP3    H213465   1.787   6.674   1.676
 4508TIP3   OH213466   4.605   5.959   3.929
 4508TIP3    H113467   4.552   6.037   3.908
 4508TIP3    H213468   4.564   5.924   4.008
 4509TIP3   OH213469   3.362   7.437   4.529
 4509TIP3    H113470   3.411   7.504   4.577
 4509TIP3    H213471   3.367   7.465   4.437
 4510TIP3   OH213472   4.424   2.557   2.708
 4510TIP3    H113473   4.351   2.511   2.749
 4510TIP3    H213474   4.465   2.606   2.780
 4511TIP3   OH213475   0.558   7.071   5.135
 4511TIP3    H113476   0.613   7.009   5.183
 4511TIP3    H213477   0.620   7.134   5.097
 4512TIP3   OH213478   4.255   5.803   4.962
 4512TIP3    H113479   4.165   5.829   4.941
 4512TIP3    H213480   4.275   5.850   5.043
 4513TIP3   OH213481   5.327   5.120   3.144
 4513TIP3    H113482   5.259   5.068   3.102
 4513TIP3    H213483   5.315   5.209   3.109
 4514TIP3   OH213484   4.506   7.508   1.437
 4514TIP3    H113485   4.416   7.522   1.409
 4514TIP3    H213486   4.500   7.484   1.530
 4515TIP3   OH213487   2.189   1.239   0.569
 4515TIP3    H113488   2.245   1.317   0.563
 4515TIP3    H213489   2.206   1.205   0.657
 4516TIP3   OH213490   7.211   7.771   2.138
 4516TIP3    H113491   7.147   7.702   2.121
 4516TIP3    H213492   7.161   7.853   2.131
 4517TIP3   OH213493   1.938   7.659   0.569
 4517TIP3    H113494   1.862   7.605   0.546
 4517TIP3    H213495   1.916   7.698   0.653
 4518TIP3   OH213496   4.437   5.157   0.969
 4518TIP3    H113497   4.348   5.193   0.975
 4518TIP3    H213498   4.431   5.086   0.905
 4519TIP3   OH213499   5.180   0.137   0.507
 4519TIP3    H113500   5.126   0.075   0.459
 4519TIP3    H213501   5.143   0.223   0.486
 4520TIP3   OH213502   8.032   1.821   2.225
 4520TIP3    H113503   7.945   1.858   2.212
 4520TIP3    H213504   8.017   1.736   2.264
 4521TIP3   OH213505   2.726   6.258   1.835
 4521TIP3    H113506   2.732   6.268   1.930
 4521TIP3    H213507   2.739   6.165   1.820
 4522TIP3   OH213508   6.727   1.822   2.295
 4522TIP3    H113509   6.740   1.837   2.389
 4522TIP3    H213510   6.644   1.863   2.276
 4523TIP3   OH213511   0.056   3.546   2.034
 4523TIP3    H113512   0.040   3.468   1.981
 4523TIP3    H213513   0.076   3.511   2.121
 4524TIP3   OH213514   4.871   1.241   2.949
 4524TIP3    H113515   4.871   1.336   2.942
 4524TIP3    H213516   4.877   1.210   2.859
 4525TIP3   OH213517   7.522   1.052   0.260
 4525TIP3    H113518   7.433   1.088   0.252
 4525TIP3    H213519   7.571   1.121   0.305
 4526TIP3   OH213520   0.451   7.489   3.444
 4526TIP3    H113521   0.470   7.568   3.495
 4526TIP3    H213522   0.523   7.482   3.382
 4527TIP3   OH213523   3.862   6.090   3.577
 4527TIP3    H113524   3.818   6.175   3.567
 4527TIP3    H213525   3.925   6.105   3.648
 4528TIP3   OH213526   4.847   0.038   1.254
 4528TIP3    H113527   4.803   0.106   1.306
 4528TIP3    H213528   4.775  -0.014   1.219
 4529TIP3   OH213529   0.064   3.717   1.267
 4529TIP3    H113530   0.125   3.763   1.209
 4529TIP3    H213531  -0.015   3.770   1.264
 4530TIP3   OH213532   6.375   5.968   3.161
 4530TIP3    H113533   6.431   6.011   3.225
 4530TIP3    H213534   6.433   5.906   3.117
 4531TIP3   OH213535   0.749   3.781   5.329
 4531TIP3    H113536   0.734   3.693   5.366
 4531TIP3    H213537   0.767   3.836   5.405
 4532TIP3   OH213538   0.583   2.737   4.848
 4532TIP3    H113539   0.514   2.798   4.818
 4532TIP3    H213540   0.599   2.763   4.939
 4533TIP3   OH213541   0.942   2.013   6.126
 4533TIP3    H113542   0.850   1.995   6.145
 4533TIP3    H213543   0.950   2.108   6.133
 4534TIP3   OH213544   7.799   7.613   5.384
 4534TIP3    H113545   7.854   7.589   5.309
 4534TIP3    H213546   7.722   7.556   5.376
 4535TIP3   OH213547   0.838   2.167   6.475
 4535TIP3    H113548   0.795   2.249   6.498
 4535TIP3    H213549   0.806   2.104   6.540
 4536TIP3   OH213550   6.450   4.678   6.580
 4536TIP3    H113551   6.399   4.598   6.593
 4536TIP3    H213552   6.527   4.667   6.636
 4537TIP3   OH213553   1.749   7.482   0.429
 4537TIP3    H113554   1.662   7.495   0.468
 4537TIP3    H213555   1.731   7.443   0.344
 4538TIP3   OH213556   3.363   7.655   2.675
 4538TIP3    H113557   3.288   7.683   2.622
 4538TIP3    H213558   3.422   7.730   2.674
 4539TIP3   OH213559   7.250   4.027   5.564
 4539TIP3    H113560   7.173   3.983   5.598
 4539TIP3    H213561   7.265   4.100   5.624
 4540TIP3   OH213562   0.813   1.759   6.706
 4540TIP3    H113563   0.822   1.853   6.695
 4540TIP3    H213564   0.858   1.740   6.788
 4541TIP3   OH213565   6.392   3.584   0.103
 4541TIP3    H113566   6.424   3.495   0.120
 4541TIP3    H213567   6.326   3.573   0.035
 4542TIP3   OH213568   0.766   7.794   1.809
 4542TIP3    H113569   0.776   7.753   1.895
 4542TIP3    H213570   0.744   7.722   1.750
 4543TIP3   OH213571   0.158   0.188   0.196
 4543TIP3    H113572   0.136   0.133   0.271
 4543TIP3    H213573   0.081   0.245   0.186
 4544TIP3   OH213574   1.142   1.415   3.936
 4544TIP3    H113575   1.218   1.357   3.938
 4544TIP3    H213576   1.133   1.446   4.027
 4545TIP3   OH213577   6.881   0.130   2.148
 4545TIP3    H113578   6.888   0.200   2.212
 4545TIP3    H213579   6.789   0.130   2.121
 4546TIP3   OH213580   0.771   5.833   6.559
 4546TIP3    H113581   0.694   5.790   6.596
 4546TIP3    H213582   0.804   5.889   6.629
 4547TIP3   OH213583   3.047   3.180   3.526
 4547TIP3    H113584   2.970   3.236   3.509
 4547TIP3    H213585   3.121   3.233   3.495
 4548TIP3   OH213586   3.816   1.663   5.747
 4548TIP3    H113587   3.840   1.756   5.753
 4548TIP3    H213588   3.895   1.621   5.712
 4549TIP3   OH213589   1.057   5.873   2.424
 4549TIP3    H113590   1.072   5.961   2.458
 4549TIP3    H213591   1.004   5.830   2.492
 4550TIP3   OH213592   0.536   3.134   5.077
 4550TIP3    H113593   0.593   3.108   5.005
 4550TIP3    H213594   0.567   3.083   5.152
 4551TIP3   OH213595   5.327   7.768   6.415
 4551TIP3    H113596   5.258   7.795   6.355
 4551TIP3    H213597   5.279   7.727   6.488
 4552TIP3   OH213598   4.455   2.416   4.696
 4552TIP3    H113599   4.382   2.354   4.701
 4552TIP3    H213600   4.526   2.374   4.744
 4553TIP3   OH213601   5.144   1.324   4.767
 4553TIP3    H113602   5.106   1.393   4.822
 4553TIP3    H213603   5.237   1.346   4.764
 4554TIP3   OH213604   6.766   4.161   6.011
 4554TIP3    H113605   6.835   4.108   5.970
 4554TIP3    H213606   6.794   4.170   6.102
 4555TIP3   OH213607   2.306   7.476   6.209
 4555TIP3    H113608   2.240   7.437   6.267
 4555TIP3    H213609   2.287   7.570   6.212
 4556TIP3   OH213610   2.766   7.218   5.675
 4556TIP3    H113611   2.775   7.127   5.646
 4556TIP3    H213612   2.855   7.250   5.681
 4557TIP3   OH213613   2.503   4.429   4.448
 4557TIP3    H113614   2.585   4.415   4.495
 4557TIP3    H213615   2.453   4.349   4.462
 4558TIP3   OH213616   4.331   1.471   3.093
 4558TIP3    H113617   4.294   1.557   3.111
 4558TIP3    H213618   4.369   1.443   3.177
 4559TIP3   OH213619   2.201   1.868   0.905
 4559TIP3    H113620   2.170   1.789   0.950
 4559TIP3    H213621   2.292   1.848   0.882
 4560TIP3   OH213622   8.209   0.221   3.792
 4560TIP3    H113623   8.233   0.190   3.879
 4560TIP3    H213624   8.173   0.143   3.748
 4561TIP3   OH213625   8.250   0.197   5.402
 4561TIP3    H113626   8.247   0.291   5.388
 4561TIP3    H213627   8.291   0.186   5.487
 4562TIP3   OH213628   7.430   5.648   2.374
 4562TIP3    H113629   7.465   5.737   2.368
 4562TIP3    H213630   7.390   5.632   2.288
 4563TIP3   OH213631   8.113   7.447   3.424
 4563TIP3    H113632   8.089   7.460   3.516
 4563TIP3    H213633   8.167   7.368   3.424
 4564TIP3   OH213634   1.796   0.619   0.167
 4564TIP3    H113635   1.708   0.649   0.191
 4564TIP3    H213636   1.848   0.700   0.163
 4565TIP3   OH213637   6.134   1.925   3.387
 4565TIP3    H113638   6.041   1.900   3.392
 4565TIP3    H213639   6.181   1.847   3.418
 4566TIP3   OH213640   7.403   3.716   1.797
 4566TIP3    H113641   7.331   3.739   1.739
 4566TIP3    H213642   7.463   3.790   1.791
 4567TIP3   OH213643   1.496   6.840   4.374
 4567TIP3    H113644   1.430   6.797   4.320
 4567TIP3    H213645   1.446   6.883   4.443
 4568TIP3   OH213646   1.473   0.287   3.667
 4568TIP3    H113647   1.490   0.335   3.586
 4568TIP3    H213648   1.378   0.286   3.675
 4569TIP3   OH213649   5.667   2.020   4.282
 4569TIP3    H113650   5.669   2.109   4.318
 4569TIP3    H213651   5.624   2.030   4.197
 4570TIP3   OH213652   6.246   0.259   4.452
 4570TIP3    H113653   6.211   0.170   4.450
 4570TIP3    H213654   6.240   0.285   4.544
 4571TIP3   OH213655   4.357   0.695   3.788
 4571TIP3    H113656   4.416   0.764   3.817
 4571TIP3    H213657   4.397   0.614   3.820
 4572TIP3   OH213658   2.094   3.899   3.277
 4572TIP3    H113659   2.055   3.819   3.311
 4572TIP3    H213660   2.189   3.883   3.282
 4573TIP3   OH213661   7.085   2.040   4.852
 4573TIP3    H113662   7.110   2.131   4.839
 4573TIP3    H213663   7.034   2.040   4.933
 4574TIP3   OH213664   0.746   2.964   0.101
 4574TIP3    H113665   0.688   2.893   0.128
 4574TIP3    H213666   0.727   2.976   0.008
 4575TIP3   OH213667   0.310   1.508   5.029
 4575TIP3    H113668   0.382   1.560   4.996
 4575TIP3    H213669   0.348   1.421   5.045
 4576TIP3   OH213670   1.481   5.454   6.685
 4576TIP3    H113671   1.399   5.486   6.648
 4576TIP3    H213672   1.524   5.532   6.719
 4577TIP3   OH213673   7.084   0.076   0.154
 4577TIP3    H113674   7.041   0.158   0.129
 4577TIP3    H213675   7.012   0.015   0.171
 4578TIP3   OH213676   8.153   2.680   5.484
 4578TIP3    H113677   8.236   2.631   5.481
 4578TIP3    H213678   8.085   2.613   5.479
 4579TIP3   OH213679   0.713   0.581   1.428
 4579TIP3    H113680   0.656   0.656   1.445
 4579TIP3    H213681   0.677   0.511   1.483
 4580TIP3   OH213682   5.431   2.939   1.263
 4580TIP3    H113683   5.397   2.968   1.178
 4580TIP3    H213684   5.512   2.893   1.243
 4581TIP3   OH213685   1.305   2.598   3.341
 4581TIP3    H113686   1.348   2.522   3.303
 4581TIP3    H213687   1.375   2.645   3.387
 4582TIP3   OH213688   7.643   0.152   2.031
 4582TIP3    H113689   7.672   0.114   2.114
 4582TIP3    H213690   7.680   0.241   2.031
 4583TIP3   OH213691   6.543   4.900   3.963
 4583TIP3    H113692   6.607   4.924   3.896
 4583TIP3    H213693   6.486   4.836   3.920
 4584TIP3   OH213694   7.748   3.396   0.934
 4584TIP3    H113695   7.837   3.393   0.970
 4584TIP3    H213696   7.698   3.448   0.997
 4585TIP3   OH213697   4.420   1.283   1.218
 4585TIP3    H113698   4.472   1.229   1.159
 4585TIP3    H213699   4.412   1.231   1.298
 4586TIP3   OH213700   3.268   1.173   3.277
 4586TIP3    H113701   3.295   1.187   3.368
 4586TIP3    H213702   3.235   1.259   3.249
 4587TIP3   OH213703   6.026   5.577   6.190
 4587TIP3    H113704   6.015   5.669   6.166
 4587TIP3    H213705   6.002   5.574   6.282
 4588TIP3   OH213706   6.572   6.342   4.360
 4588TIP3    H113707   6.575   6.251   4.388
 4588TIP3    H213708   6.592   6.339   4.266
 4589TIP3   OH213709   2.018   5.430   6.708
 4589TIP3    H113710   1.964   5.479   6.770
 4589TIP3    H213711   1.955   5.379   6.656
 4590TIP3   OH213712   5.505   3.004   3.017
 4590TIP3    H113713   5.462   2.937   3.071
 4590TIP3    H213714   5.481   2.981   2.927
 4591TIP3   OH213715   4.454   0.893   1.256
 4591TIP3    H113716   4.374   0.902   1.309
 4591TIP3    H213717   4.423   0.884   1.166
 4592TIP3   OH213718   0.431   1.772   3.437
 4592TIP3    H113719   0.409   1.738   3.524
 4592TIP3    H213720   0.392   1.859   3.434
 4593TIP3   OH213721   6.266   3.316   5.159
 4593TIP3    H113722   6.274   3.394   5.104
 4593TIP3    H213723   6.187   3.272   5.126
 4594TIP3   OH213724   2.161   1.092   3.938
 4594TIP3    H113725   2.222   1.154   3.979
 4594TIP3    H213726   2.181   1.096   3.845
 4595TIP3   OH213727   0.474   2.712   0.934
 4595TIP3    H113728   0.482   2.799   0.972
 4595TIP3    H213729   0.391   2.714   0.887
 4596TIP3   OH213730   6.834   7.098   2.402
 4596TIP3    H113731   6.879   7.181   2.421
 4596TIP3    H213732   6.791   7.113   2.317
 4597TIP3   OH213733   2.549   6.018   0.204
 4597TIP3    H113734   2.573   6.091   0.147
 4597TIP3    H213735   2.629   5.997   0.251
 4598TIP3   OH213736   4.890   7.418   1.026
 4598TIP3    H113737   4.973   7.372   1.016
 4598TIP3    H213738   4.828   7.351   1.052
 4599TIP3   OH213739   7.350   7.366   2.096
 4599TIP3    H113740   7.389   7.319   2.022
 4599TIP3    H213741   7.423   7.417   2.132
 4600TIP3   OH213742   4.973   1.713   4.294
 4600TIP3    H113743   5.005   1.628   4.265
 4600TIP3    H213744   5.035   1.741   4.362
 4601TIP3   OH213745   8.019   1.515   1.702
 4601TIP3    H113746   7.982   1.434   1.669
 4601TIP3    H213747   8.024   1.573   1.626
 4602TIP3   OH213748   3.551   1.287   2.381
 4602TIP3    H113749   3.503   1.245   2.453
 4602TIP3    H213750   3.637   1.307   2.419
 4603TIP3   OH213751   6.689   4.466   0.415
 4603TIP3    H113752   6.700   4.491   0.323
 4603TIP3    H213753   6.606   4.506   0.441
 4604TIP3   OH213754   4.898   3.667   0.388
 4604TIP3    H113755   4.967   3.606   0.414
 4604TIP3    H213756   4.885   3.651   0.294
 4605TIP3   OH213757   3.591   5.659   6.425
 4605TIP3    H113758   3.528   5.730   6.413
 4605TIP3    H213759   3.648   5.665   6.348
 4606TIP3   OH213760   3.718   4.184   4.656
 4606TIP3    H113761   3.789   4.192   4.720
 4606TIP3    H213762   3.681   4.097   4.673
 4607TIP3   OH213763   6.304   6.634   5.364
 4607TIP3    H113764   6.219   6.618   5.404
 4607TIP3    H213765   6.285   6.653   5.272
 4608TIP3   OH213766   4.782   4.370   3.966
 4608TIP3    H113767   4.772   4.459   3.934
 4608TIP3    H213768   4.774   4.315   3.888
 4609TIP3   OH213769   0.223   5.214   5.760
 4609TIP3    H113770   0.226   5.301   5.720
 4609TIP3    H213771   0.145   5.216   5.816
 4610TIP3   OH213772   5.867   6.390   0.317
 4610TIP3    H113773   5.949   6.358   0.279
 4610TIP3    H213774   5.805   6.318   0.305
 4611TIP3   OH213775   1.976   5.442   4.984
 4611TIP3    H113776   1.898   5.467   5.034
 4611TIP3    H213777   2.049   5.484   5.030
 4612TIP3   OH213778   0.796   6.880   6.653
 4612TIP3    H113779   0.883   6.920   6.661
 4612TIP3    H213780   0.794   6.812   6.720
 4613TIP3   OH213781   0.104   7.600   5.149
 4613TIP3    H113782   0.137   7.644   5.227
 4613TIP3    H213783   0.129   7.657   5.077
 4614TIP3   OH213784   5.031   5.992   2.554
 4614TIP3    H113785   5.034   5.924   2.621
 4614TIP3    H213786   5.007   5.946   2.473
 4615TIP3   OH213787   2.525   7.230   5.555
 4615TIP3    H113788   2.611   7.257   5.588
 4615TIP3    H213789   2.522   7.265   5.465
 4616TIP3   OH213790   0.016   3.607   3.951
 4616TIP3    H113791   0.051   3.536   3.896
 4616TIP3    H213792   0.092   3.663   3.968
 4617TIP3   OH213793   2.072   2.145   5.631
 4617TIP3    H113794   2.083   2.166   5.538
 4617TIP3    H213795   2.159   2.121   5.661
 4618TIP3   OH213796   1.053   1.490   1.939
 4618TIP3    H113797   1.085   1.520   1.854
 4618TIP3    H213798   0.981   1.430   1.917
 4619TIP3   OH213799   7.145   7.060   0.303
 4619TIP3    H113800   7.119   7.087   0.215
 4619TIP3    H213801   7.181   7.140   0.342
 4620TIP3   OH213802   6.502   7.634   1.303
 4620TIP3    H113803   6.464   7.592   1.381
 4620TIP3    H213804   6.567   7.695   1.338
 4621TIP3   OH213805   5.078   3.319   5.489
 4621TIP3    H113806   4.993   3.298   5.527
 4621TIP3    H213807   5.084   3.414   5.496
 4622TIP3   OH213808   0.578   3.670   1.018
 4622TIP3    H113809   0.601   3.762   1.003
 4622TIP3    H213810   0.616   3.649   1.102
 4623TIP3   OH213811   0.531   3.474   5.686
 4623TIP3    H113812   0.487   3.394   5.716
 4623TIP3    H213813   0.485   3.545   5.732
 4624TIP3   OH213814   5.854   6.657   3.460
 4624TIP3    H113815   5.883   6.689   3.374
 4624TIP3    H213816   5.788   6.591   3.440
 4625TIP3   OH213817   1.618   5.717   4.302
 4625TIP3    H113818   1.575   5.775   4.365
 4625TIP3    H213819   1.624   5.633   4.347
 4626TIP3   OH213820   7.884   6.855   6.394
 4626TIP3    H113821   7.959   6.915   6.390
 4626TIP3    H213822   7.826   6.893   6.460
 4627TIP3   OH213823   4.078   6.385   2.084
 4627TIP3    H113824   4.025   6.383   2.004
 4627TIP3    H213825   4.026   6.338   2.148
 4628TIP3   OH213826   5.800   6.853   2.917
 4628TIP3    H113827   5.764   6.939   2.895
 4628TIP3    H213828   5.775   6.840   3.009
 4629TIP3   OH213829   0.781   7.479   2.774
 4629TIP3    H113830   0.818   7.563   2.745
 4629TIP3    H213831   0.777   7.426   2.694
 4630TIP3   OH213832   6.217   2.570   6.039
 4630TIP3    H113833   6.184   2.632   6.104
 4630TIP3    H213834   6.153   2.500   6.036
 4631TIP3   OH213835   3.795   0.850   1.618
 4631TIP3    H113836   3.873   0.905   1.607
 4631TIP3    H213837   3.830   0.763   1.637
 4632TIP3   OH213838   4.259   1.183   2.290
 4632TIP3    H113839   4.340   1.132   2.291
 4632TIP3    H213840   4.196   1.128   2.244
 4633TIP3   OH213841   5.293   1.379  -0.008
 4633TIP3    H113842   5.358   1.428   0.042
 4633TIP3    H213843   5.226   1.355   0.056
 4634TIP3   OH213844   5.594   6.199   1.166
 4634TIP3    H113845   5.508   6.179   1.129
 4634TIP3    H213846   5.656   6.175   1.098
 4635TIP3   OH213847   7.303   5.060   3.966
 4635TIP3    H113848   7.301   4.973   4.006
 4635TIP3    H213849   7.395   5.085   3.968
 4636TIP3   OH213850   7.237   6.929   5.160
 4636TIP3    H113851   7.209   7.020   5.168
 4636TIP3    H213852   7.269   6.906   5.247
 4637TIP3   OH213853   6.302   0.414   1.428
 4637TIP3    H113854   6.390   0.407   1.467
 4637TIP3    H213855   6.292   0.333   1.379
 4638TIP3   OH213856   0.851   5.368   6.449
 4638TIP3    H113857   0.815   5.326   6.527
 4638TIP3    H213858   0.803   5.330   6.377
 4639TIP3   OH213859   5.573   5.919   1.387
 4639TIP3    H113860   5.647   5.949   1.334
 4639TIP3    H213861   5.497   5.929   1.329
 4640TIP3   OH213862   5.098   1.800   0.486
 4640TIP3    H113863   5.049   1.867   0.533
 4640TIP3    H213864   5.036   1.728   0.475
 4641TIP3   OH213865   0.757   6.466   2.471
 4641TIP3    H113866   0.684   6.483   2.412
 4641TIP3    H213867   0.716   6.446   2.555
 4642TIP3   OH213868   0.549   0.651   0.064
 4642TIP3    H113869   0.537   0.571   0.014
 4642TIP3    H213870   0.567   0.719  -0.001
 4643TIP3   OH213871   6.933   0.552   2.091
 4643TIP3    H113872   6.956   0.514   2.006
 4643TIP3    H213873   6.963   0.488   2.155
 4644TIP3   OH213874   4.903   3.840   1.545
 4644TIP3    H113875   4.972   3.813   1.485
 4644TIP3    H213876   4.904   3.773   1.614
 4645TIP3   OH213877   5.890   1.040   1.355
 4645TIP3    H113878   5.877   0.990   1.274
 4645TIP3    H213879   5.871   0.978   1.425
 4646TIP3   OH213880   8.080   5.955   4.257
 4646TIP3    H113881   7.989   5.938   4.281
 4646TIP3    H213882   8.129   5.944   4.338
 4647TIP3   OH213883   6.734   5.587   5.958
 4647TIP3    H113884   6.654   5.563   6.005
 4647TIP3    H213885   6.800   5.599   6.026
 4648TIP3   OH213886   1.834   3.217   6.221
 4648TIP3    H113887   1.781   3.231   6.142
 4648TIP3    H213888   1.902   3.285   6.217
 4649TIP3   OH213889   6.346   0.293   5.069
 4649TIP3    H113890   6.254   0.287   5.045
 4649TIP3    H213891   6.394   0.260   4.994
 4650TIP3   OH213892   8.006   5.636   1.636
 4650TIP3    H113893   8.090   5.614   1.596
 4650TIP3    H213894   8.000   5.580   1.713
 4651TIP3   OH213895   5.700   4.997   6.351
 4651TIP3    H113896   5.678   5.083   6.386
 4651TIP3    H213897   5.699   4.938   6.427
 4652TIP3   OH213898   2.356   5.815   0.223
 4652TIP3    H113899   2.424   5.882   0.221
 4652TIP3    H213900   2.370   5.769   0.306
 4653TIP3   OH213901   3.113   0.208   2.786
 4653TIP3    H113902   3.110   0.169   2.699
 4653TIP3    H213903   3.119   0.302   2.770
 4654TIP3   OH213904   5.713   7.213   6.516
 4654TIP3    H113905   5.720   7.298   6.558
 4654TIP3    H213906   5.638   7.220   6.457
 4655TIP3   OH213907   7.932   0.678   2.712
 4655TIP3    H113908   8.022   0.685   2.681
 4655TIP3    H213909   7.882   0.649   2.636
 4656TIP3   OH213910   3.920   4.230   4.883
 4656TIP3    H113911   3.977   4.159   4.912
 4656TIP3    H213912   3.969   4.310   4.905
 4657TIP3   OH213913   0.997   3.346   4.075
 4657TIP3    H113914   0.971   3.303   4.157
 4657TIP3    H213915   0.920   3.336   4.019
 4658TIP3   OH213916   5.740   6.376   2.002
 4658TIP3    H113917   5.767   6.284   2.005
 4658TIP3    H213918   5.760   6.409   2.089
 4659TIP3   OH213919   1.157   6.783   5.875
 4659TIP3    H113920   1.152   6.694   5.908
 4659TIP3    H213921   1.247   6.791   5.843
 4660TIP3   OH213922   1.189   4.091   0.540
 4660TIP3    H113923   1.264   4.032   0.537
 4660TIP3    H213924   1.213   4.165   0.483
 4661TIP3   OH213925   3.370   3.020   3.414
 4661TIP3    H113926   3.309   2.982   3.351
 4661TIP3    H213927   3.378   3.112   3.388
 4662TIP3   OH213928   4.446   7.666   6.411
 4662TIP3    H113929   4.368   7.630   6.452
 4662TIP3    H213930   4.504   7.689   6.484
 4663TIP3   OH213931   7.369   3.680   0.955
 4663TIP3    H113932   7.462   3.685   0.934
 4663TIP3    H213933   7.358   3.737   1.031
 4664TIP3   OH213934   5.048   2.422   1.295
 4664TIP3    H113935   5.090   2.406   1.379
 4664TIP3    H213936   5.086   2.357   1.236
 4665TIP3   OH213937   1.237   4.334   2.230
 4665TIP3    H113938   1.158   4.356   2.280
 4665TIP3    H213939   1.304   4.317   2.296
 4666TIP3   OH213940   1.743   6.741   1.227
 4666TIP3    H113941   1.664   6.794   1.240
 4666TIP3    H213942   1.780   6.732   1.314
 4667TIP3   OH213943   8.053   7.279   4.027
 4667TIP3    H113944   8.066   7.203   3.970
 4667TIP3    H213945   8.134   7.285   4.078
 4668TIP3   OH213946   3.847   4.897   0.053
 4668TIP3    H113947   3.877   4.871  -0.034
 4668TIP3    H213948   3.888   4.833   0.112
 4669TIP3   OH213949   3.858   5.391   6.197
 4669TIP3    H113950   3.799   5.351   6.133
 4669TIP3    H213951   3.945   5.386   6.158
 4670TIP3   OH213952   0.508   7.226   0.558
 4670TIP3    H113953   0.600   7.199   0.567
 4670TIP3    H213954   0.509   7.320   0.576
 4671TIP3   OH213955   1.907   1.506   5.866
 4671TIP3    H113956   1.991   1.549   5.881
 4671TIP3    H213957   1.926   1.437   5.803
 4672TIP3   OH213958   2.091   5.894   2.639
 4672TIP3    H113959   2.009   5.870   2.682
 4672TIP3    H213960   2.156   5.834   2.677
 4673TIP3   OH213961   4.007   2.353   5.716
 4673TIP3    H113962   4.002   2.437   5.761
 4673TIP3    H213963   3.918   2.337   5.685
 4674TIP3   OH213964   5.506   2.723   1.620
 4674TIP3    H113965   5.484   2.815   1.601
 4674TIP3    H213966   5.595   2.726   1.655
 4675TIP3   OH213967   0.205   1.464   6.579
 4675TIP3    H113968   0.196   1.470   6.674
 4675TIP3    H213969   0.285   1.414   6.565
 4676TIP3   OH213970   5.328   7.610   5.525
 4676TIP3    H113971   5.398   7.553   5.558
 4676TIP3    H213972   5.309   7.669   5.597
 4677TIP3   OH213973   7.863   2.204   3.730
 4677TIP3    H113974   7.792   2.269   3.726
 4677TIP3    H213975   7.918   2.224   3.654
 4678TIP3   OH213976   1.403   4.261   4.003
 4678TIP3    H113977   1.410   4.263   4.099
 4678TIP3    H213978   1.314   4.232   3.987
 4679TIP3   OH213979   6.256   2.040   1.420
 4679TIP3    H113980   6.339   2.087   1.427
 4679TIP3    H213981   6.189   2.109   1.426
 4680TIP3   OH213982   7.595   1.960   1.880
 4680TIP3    H113983   7.667   1.930   1.825
 4680TIP3    H213984   7.590   1.895   1.950
 4681TIP3   OH213985   5.654   2.949   5.944
 4681TIP3    H113986   5.689   3.002   5.873
 4681TIP3    H213987   5.720   2.955   6.013
 4682TIP3   OH213988   5.403   6.048   0.614
 4682TIP3    H113989   5.468   6.116   0.597
 4682TIP3    H213990   5.338   6.091   0.669
 4683TIP3   OH213991   2.403   3.819   3.044
 4683TIP3    H113992   2.383   3.752   3.109
 4683TIP3    H213993   2.496   3.807   3.025
 4684TIP3   OH213994   3.412   4.933   3.784
 4684TIP3    H113995   3.371   4.936   3.871
 4684TIP3    H213996   3.472   4.859   3.788
 4685TIP3   OH213997   2.589   3.567   0.725
 4685TIP3    H113998   2.649   3.639   0.742
 4685TIP3    H213999   2.512   3.586   0.778
 4686TIP3   OH214000   6.278   1.939   4.729
 4686TIP3    H114001   6.256   1.991   4.652
 4686TIP3    H214002   6.233   1.856   4.715
 4687TIP3   OH214003   6.685   1.905   0.036
 4687TIP3    H114004   6.665   1.884   0.128
 4687TIP3    H214005   6.751   1.974   0.041
 4688TIP3   OH214006   7.413   2.353   0.532
 4688TIP3    H114007   7.465   2.322   0.458
 4688TIP3    H214008   7.323   2.339   0.505
 4689TIP3   OH214009   2.391   1.670   1.627
 4689TIP3    H114010   2.325   1.679   1.696
 4689TIP3    H214011   2.445   1.596   1.655
 4690TIP3   OH214012   7.068   4.670   0.594
 4690TIP3    H114013   7.012   4.595   0.615
 4690TIP3    H214014   7.156   4.640   0.615
 4691TIP3   OH214015   5.822   1.309   1.713
 4691TIP3    H114016   5.894   1.311   1.650
 4691TIP3    H214017   5.788   1.220   1.708
 4692TIP3   OH214018   2.397   3.289   4.938
 4692TIP3    H114019   2.468   3.342   4.975
 4692TIP3    H214020   2.331   3.353   4.912
 4693TIP3   OH214021   2.208   2.116   5.926
 4693TIP3    H114022   2.220   2.208   5.949
 4693TIP3    H214023   2.269   2.100   5.854
 4694TIP3   OH214024   7.941   5.499   2.226
 4694TIP3    H114025   7.931   5.432   2.293
 4694TIP3    H214026   7.884   5.571   2.254
 4695TIP3   OH214027   3.149   3.460   6.663
 4695TIP3    H114028   3.080   3.421   6.716
 4695TIP3    H214029   3.147   3.553   6.684
 4696TIP3   OH214030   5.107   3.859   0.671
 4696TIP3    H114031   5.168   3.814   0.729
 4696TIP3    H214032   5.150   3.942   0.650
 4697TIP3   OH214033   6.982   4.097   3.540
 4697TIP3    H114034   7.023   4.182   3.526
 4697TIP3    H214035   6.951   4.071   3.453
 4698TIP3   OH214036   7.444   4.033   2.357
 4698TIP3    H114037   7.437   3.946   2.317
 4698TIP3    H214038   7.358   4.072   2.346
 4699TIP3   OH214039   1.741   4.275   4.139
 4699TIP3    H114040   1.676   4.291   4.070
 4699TIP3    H214041   1.699   4.210   4.196
 4700TIP3   OH214042   7.238   3.817   0.388
 4700TIP3    H114043   7.234   3.784   0.298
 4700TIP3    H214044   7.207   3.907   0.382
 4701TIP3   OH214045   3.735   2.060   0.912
 4701TIP3    H114046   3.667   2.124   0.890
 4701TIP3    H214047   3.811   2.114   0.935
 4702TIP3   OH214048   0.922   2.583   3.403
 4702TIP3    H114049   0.849   2.628   3.446
 4702TIP3    H214050   0.885   2.550   3.321
 4703TIP3   OH214051   0.269   0.088   3.788
 4703TIP3    H114052   0.292   0.159   3.728
 4703TIP3    H214053   0.347   0.033   3.792
 4704TIP3   OH214054   1.748   5.211   1.198
 4704TIP3    H114055   1.693   5.145   1.240
 4704TIP3    H214056   1.727   5.292   1.244
 4705TIP3   OH214057   7.639   2.838   3.869
 4705TIP3    H114058   7.594   2.823   3.952
 4705TIP3    H214059   7.591   2.784   3.806
 4706TIP3   OH214060   1.073   2.156   1.862
 4706TIP3    H114061   1.016   2.221   1.901
 4706TIP3    H214062   1.083   2.089   1.930
 4707TIP3   OH214063   0.362   5.666   0.296
 4707TIP3    H114064   0.373   5.759   0.278
 4707TIP3    H214065   0.414   5.650   0.375
 4708TIP3   OH214066   7.897   0.904   1.226
 4708TIP3    H114067   7.854   0.988   1.212
 4708TIP3    H214068   7.851   0.843   1.169
 4709TIP3   OH214069   3.743   5.731   2.429
 4709TIP3    H114070   3.689   5.699   2.357
 4709TIP3    H214071   3.763   5.822   2.406
 4710TIP3   OH214072   3.801   7.584   5.794
 4710TIP3    H114073   3.737   7.563   5.862
 4710TIP3    H214074   3.869   7.633   5.840
 4711TIP3   OH214075   4.197   0.534   1.077
 4711TIP3    H114076   4.264   0.514   1.142
 4711TIP3    H214077   4.116   0.539   1.127
 4712TIP3   OH214078   4.599   7.416   2.322
 4712TIP3    H114079   4.670   7.470   2.288
 4712TIP3    H214080   4.524   7.434   2.265
 4713TIP3   OH214081   0.130   3.962   6.000
 4713TIP3    H114082   0.044   3.987   5.968
 4713TIP3    H214083   0.168   4.043   6.035
 4714TIP3   OH214084   3.052   7.699   3.924
 4714TIP3    H114085   3.101   7.740   3.854
 4714TIP3    H214086   3.099   7.617   3.941
 4715TIP3   OH214087   4.425   6.726   4.820
 4715TIP3    H114088   4.457   6.774   4.743
 4715TIP3    H214089   4.348   6.678   4.787
 4716TIP3   OH214090   3.233   0.927   0.014
 4716TIP3    H114091   3.187   0.905   0.095
 4716TIP3    H214092   3.201   1.014  -0.009
 4717TIP3   OH214093   0.236   1.137   3.660
 4717TIP3    H114094   0.271   1.097   3.740
 4717TIP3    H214095   0.182   1.068   3.621
 4718TIP3   OH214096   0.761   3.819   0.455
 4718TIP3    H114097   0.750   3.782   0.543
 4718TIP3    H214098   0.813   3.898   0.469
 4719TIP3   OH214099   4.425   0.274   5.782
 4719TIP3    H114100   4.462   0.268   5.870
 4719TIP3    H214101   4.334   0.304   5.795
 4720TIP3   OH214102   3.504   2.535   5.062
 4720TIP3    H114103   3.582   2.484   5.084
 4720TIP3    H214104   3.450   2.474   5.011
 4721TIP3   OH214105   3.805   0.838   6.634
 4721TIP3    H114106   3.770   0.775   6.696
 4721TIP3    H214107   3.897   0.847   6.659
 4722TIP3   OH214108   2.998   6.827   1.891
 4722TIP3    H114109   2.909   6.791   1.888
 4722TIP3    H214110   3.041   6.789   1.814
 4723TIP3   OH214111   4.821   1.940   3.462
 4723TIP3    H114112   4.846   1.907   3.549
 4723TIP3    H214113   4.813   1.861   3.409
 4724TIP3   OH214114   3.224   4.100   4.286
 4724TIP3    H114115   3.131   4.078   4.283
 4724TIP3    H214116   3.247   4.094   4.378
 4725TIP3   OH214117   6.789   7.388   1.565
 4725TIP3    H114118   6.767   7.375   1.658
 4725TIP3    H214119   6.848   7.463   1.565
 4726TIP3   OH214120   2.950   7.493   2.206
 4726TIP3    H114121   2.862   7.514   2.238
 4726TIP3    H214122   2.943   7.404   2.172
 4727TIP3   OH214123   7.860   2.120   2.403
 4727TIP3    H114124   7.856   2.025   2.395
 4727TIP3    H214125   7.841   2.152   2.315
 4728TIP3   OH214126   2.810   3.954   2.573
 4728TIP3    H114127   2.744   3.950   2.643
 4728TIP3    H214128   2.790   3.878   2.518
 4729TIP3   OH214129   1.532   5.211   4.455
 4729TIP3    H114130   1.440   5.206   4.481
 4729TIP3    H214131   1.531   5.254   4.370
 4730TIP3   OH214132   6.395   3.132   3.969
 4730TIP3    H114133   6.430   3.061   3.915
 4730TIP3    H214134   6.411   3.103   4.059
 4731TIP3   OH214135   0.811   0.153   2.598
 4731TIP3    H114136   0.747   0.115   2.538
 4731TIP3    H214137   0.766   0.226   2.639
 4732TIP3   OH214138   6.376   5.759   3.411
 4732TIP3    H114139   6.387   5.666   3.392
 4732TIP3    H214140   6.292   5.765   3.457
 4733TIP3   OH214141   1.105   5.669   0.610
 4733TIP3    H114142   1.111   5.638   0.520
 4733TIP3    H214143   1.019   5.710   0.615
 4734TIP3   OH214144   5.803   5.174   5.206
 4734TIP3    H114145   5.868   5.225   5.158
 4734TIP3    H214146   5.832   5.084   5.198
 4735TIP3   OH214147   6.879   6.759   0.911
 4735TIP3    H114148   6.925   6.676   0.924
 4735TIP3    H214149   6.934   6.808   0.851
 4736TIP3   OH214150   5.061   2.623   5.566
 4736TIP3    H114151   5.130   2.681   5.598
 4736TIP3    H214152   5.105   2.567   5.502
 4737TIP3   OH214153   8.034   5.423   5.803
 4737TIP3    H114154   8.057   5.330   5.811
 4737TIP3    H214155   8.105   5.469   5.846
 4738TIP3   OH214156   2.544   3.398  -0.010
 4738TIP3    H114157   2.552   3.388   0.085
 4738TIP3    H214158   2.592   3.323  -0.046
 4739TIP3   OH214159   4.252   6.189   3.370
 4739TIP3    H114160   4.160   6.180   3.345
 4739TIP3    H214161   4.301   6.151   3.297
 4740TIP3   OH214162   0.155   7.102   1.182
 4740TIP3    H114163   0.216   7.114   1.255
 4740TIP3    H214164   0.083   7.051   1.220
 4741TIP3   OH214165   0.751   7.517   3.325
 4741TIP3    H114166   0.740   7.577   3.252
 4741TIP3    H214167   0.772   7.574   3.400
 4742TIP3   OH214168   4.959   7.073   3.928
 4742TIP3    H114169   5.027   7.101   3.867
 4742TIP3    H214170   4.950   7.146   3.990
 4743TIP3   OH214171   0.171   5.311   5.152
 4743TIP3    H114172   0.145   5.402   5.140
 4743TIP3    H214173   0.257   5.305   5.110
 4744TIP3   OH214174   4.234   7.107   3.766
 4744TIP3    H114175   4.312   7.148   3.729
 4744TIP3    H214176   4.265   7.059   3.842
 4745TIP3   OH214177   5.335   6.535   6.433
 4745TIP3    H114178   5.255   6.583   6.411
 4745TIP3    H214179   5.305   6.460   6.485
 4746TIP3   OH214180   8.173   6.819   3.757
 4746TIP3    H114181   8.181   6.908   3.792
 4746TIP3    H214182   8.213   6.824   3.670
 4747TIP3   OH214183   4.956   0.600   2.912
 4747TIP3    H114184   5.021   0.580   2.979
 4747TIP3    H214185   4.986   0.683   2.874
 4748TIP3   OH214186   2.701   4.407   1.490
 4748TIP3    H114187   2.682   4.315   1.505
 4748TIP3    H214188   2.658   4.453   1.562
 4749TIP3   OH214189   4.328   4.412   6.263
 4749TIP3    H114190   4.248   4.362   6.280
 4749TIP3    H214191   4.372   4.417   6.347
 4750TIP3   OH214192   7.797   4.490   1.607
 4750TIP3    H114193   7.799   4.402   1.568
 4750TIP3    H214194   7.805   4.549   1.532
 4751TIP3   OH214195   8.086   4.504   6.062
 4751TIP3    H114196   8.133   4.524   6.142
 4751TIP3    H214197   8.005   4.461   6.091
 4752TIP3   OH214198   2.588   3.782   0.430
 4752TIP3    H114199   2.669   3.801   0.384
 4752TIP3    H214200   2.577   3.854   0.492
 4753TIP3   OH214201   1.958   3.425   4.520
 4753TIP3    H114202   1.909   3.391   4.596
 4753TIP3    H214203   2.031   3.364   4.510
 4754TIP3   OH214204   7.002   3.198   3.023
 4754TIP3    H114205   6.907   3.210   3.034
 4754TIP3    H214206   7.010   3.154   2.938
 4755TIP3   OH214207   1.428   1.982   1.827
 4755TIP3    H114208   1.356   1.927   1.797
 4755TIP3    H214209   1.405   2.004   1.918
 4756TIP3   OH214210   7.769   4.505   1.303
 4756TIP3    H114211   7.786   4.428   1.250
 4756TIP3    H214212   7.688   4.541   1.267
 4757TIP3   OH214213   0.975   5.902   4.164
 4757TIP3    H114214   0.935   5.829   4.116
 4757TIP3    H214215   1.065   5.875   4.177
 4758TIP3   OH214216   2.376   2.555   4.992
 4758TIP3    H114217   2.433   2.552   4.915
 4758TIP3    H214218   2.307   2.493   4.973
 4759TIP3   OH214219   5.551   5.213   1.555
 4759TIP3    H114220   5.575   5.124   1.583
 4759TIP3    H214221   5.633   5.251   1.525
 4760TIP3   OH214222   6.244   7.281   4.333
 4760TIP3    H114223   6.260   7.338   4.258
 4760TIP3    H214224   6.228   7.195   4.294
 4761TIP3   OH214225   4.518   0.445   0.980
 4761TIP3    H114226   4.495   0.476   1.067
 4761TIP3    H214227   4.610   0.422   0.986
 4762TIP3   OH214228   1.642   0.769   4.282
 4762TIP3    H114229   1.577   0.705   4.253
 4762TIP3    H214230   1.590   0.841   4.318
 4763TIP3   OH214231   5.613   6.133   3.651
 4763TIP3    H114232   5.619   6.198   3.722
 4763TIP3    H214233   5.565   6.178   3.581
 4764TIP3   OH214234   1.896   7.309   5.043
 4764TIP3    H114235   1.853   7.226   5.025
 4764TIP3    H214236   1.851   7.344   5.120
 4765TIP3   OH214237   0.804   7.399   1.925
 4765TIP3    H114238   0.788   7.483   1.969
 4765TIP3    H214239   0.883   7.365   1.965
 4766TIP3   OH214240   6.957   6.253   4.159
 4766TIP3    H114241   6.976   6.196   4.085
 4766TIP3    H214242   6.990   6.206   4.235
 4767TIP3   OH214243   6.055   6.590   5.518
 4767TIP3    H114244   6.004   6.513   5.544
 4767TIP3    H214245   6.049   6.650   5.593
 4768TIP3   OH214246   8.089   7.355   0.118
 4768TIP3    H114247   8.011   7.403   0.090
 4768TIP3    H214248   8.055   7.277   0.161
 4769TIP3   OH214249   6.120   2.866   5.749
 4769TIP3    H114250   6.128   2.921   5.827
 4769TIP3    H214251   6.123   2.928   5.676
 4770TIP3   OH214252   5.913   2.107   6.680
 4770TIP3    H114253   5.962   2.184   6.708
 4770TIP3    H214254   5.830   2.142   6.647
 4771TIP3   OH214255   7.639   1.222   6.255
 4771TIP3    H114256   7.558   1.196   6.210
 4771TIP3    H214257   7.678   1.140   6.284
 4772TIP3   OH214258   1.802   0.343   5.587
 4772TIP3    H114259   1.828   0.298   5.667
 4772TIP3    H214260   1.884   0.353   5.538
 4773TIP3   OH214261   3.266   1.111   2.285
 4773TIP3    H114262   3.173   1.125   2.264
 4773TIP3    H214263   3.280   1.160   2.365
 4774TIP3   OH214264   4.978   3.792   4.665
 4774TIP3    H114265   5.024   3.847   4.601
 4774TIP3    H214266   5.045   3.734   4.699
 4775TIP3   OH214267   1.977   3.409   2.690
 4775TIP3    H114268   1.940   3.339   2.636
 4775TIP3    H214269   2.060   3.432   2.646
 4776TIP3   OH214270   1.089   0.907   0.936
 4776TIP3    H114271   0.999   0.875   0.936
 4776TIP3    H214272   1.085   0.992   0.980
 4777TIP3   OH214273   5.251   5.472   2.038
 4777TIP3    H114274   5.341   5.502   2.025
 4777TIP3    H214275   5.257   5.376   2.032
 4778TIP3   OH214276   3.233   7.545   2.251
 4778TIP3    H114277   3.154   7.542   2.197
 4778TIP3    H214278   3.225   7.468   2.308
 4779TIP3   OH214279   7.069   1.225   4.468
 4779TIP3    H114280   7.072   1.276   4.387
 4779TIP3    H214281   7.092   1.288   4.537
 4780TIP3   OH214282   6.419   1.102   1.010
 4780TIP3    H114283   6.448   1.180   0.964
 4780TIP3    H214284   6.492   1.040   1.002
 4781TIP3   OH214285   5.878   3.153   5.494
 4781TIP3    H114286   5.817   3.221   5.463
 4781TIP3    H214287   5.859   3.077   5.439
 4782TIP3   OH214288   1.273   1.174   4.602
 4782TIP3    H114289   1.264   1.269   4.615
 4782TIP3    H214290   1.341   1.166   4.535
 4783TIP3   OH214291   5.050   6.359   6.064
 4783TIP3    H114292   5.034   6.335   5.973
 4783TIP3    H214293   5.016   6.285   6.114
 4784TIP3   OH214294   6.948   2.843   4.555
 4784TIP3    H114295   6.975   2.753   4.573
 4784TIP3    H214296   7.026   2.884   4.517
 4785TIP3   OH214297   0.060   2.330   1.435
 4785TIP3    H114298   0.143   2.360   1.473
 4785TIP3    H214299  -0.004   2.396   1.463
 4786TIP3   OH214300   0.039   4.414   1.061
 4786TIP3    H114301   0.032   4.345   0.996
 4786TIP3    H214302   0.074   4.489   1.013
 4787TIP3   OH214303   3.259   5.309   5.712
 4787TIP3    H114304   3.171   5.299   5.748
 4787TIP3    H214305   3.255   5.389   5.659
 4788TIP3   OH214306   2.570   1.947   1.538
 4788TIP3    H114307   2.568   1.852   1.540
 4788TIP3    H214308   2.546   1.974   1.627
 4789TIP3   OH214309   3.617   5.194   1.783
 4789TIP3    H114310   3.626   5.222   1.874
 4789TIP3    H214311   3.548   5.128   1.785
 4790TIP3   OH214312   4.443   6.712   2.399
 4790TIP3    H114313   4.478   6.674   2.479
 4790TIP3    H214314   4.391   6.787   2.428
 4791TIP3   OH214315   3.280   3.250   4.030
 4791TIP3    H114316   3.251   3.199   4.106
 4791TIP3    H214317   3.290   3.186   3.960
 4792TIP3   OH214318   4.512   7.781   5.041
 4792TIP3    H114319   4.454   7.751   5.111
 4792TIP3    H214320   4.561   7.853   5.079
 4793TIP3   OH214321   2.481   4.542   0.203
 4793TIP3    H114322   2.545   4.542   0.274
 4793TIP3    H214323   2.498   4.463   0.154
 4794TIP3   OH214324   8.265   2.352   3.238
 4794TIP3    H114325   8.172   2.350   3.215
 4794TIP3    H214326   8.303   2.281   3.187
 4795TIP3   OH214327   3.264   3.402   6.397
 4795TIP3    H114328   3.226   3.428   6.481
 4795TIP3    H214329   3.225   3.462   6.333
 4796TIP3   OH214330   8.150   5.433   2.971
 4796TIP3    H114331   8.170   5.511   2.919
 4796TIP3    H214332   8.055   5.426   2.969
 4797TIP3   OH214333   1.110   1.801   6.216
 4797TIP3    H114334   1.036   1.853   6.183
 4797TIP3    H214335   1.103   1.717   6.170
 4798TIP3   OH214336   7.408   6.796   6.405
 4798TIP3    H114337   7.374   6.730   6.345
 4798TIP3    H214338   7.334   6.815   6.463
 4799TIP3   OH214339   2.325   3.538   0.882
 4799TIP3    H114340   2.335   3.445   0.864
 4799TIP3    H214341   2.262   3.542   0.954
 4800TIP3   OH214342   7.858   3.650   2.600
 4800TIP3    H114343   7.930   3.701   2.562
 4800TIP3    H214344   7.783   3.670   2.545
 4801TIP3   OH214345   4.976   6.587   0.597
 4801TIP3    H114346   5.027   6.664   0.620
 4801TIP3    H214347   4.980   6.531   0.675
 4802TIP3   OH214348   6.462   2.911   0.433
 4802TIP3    H114349   6.527   2.843   0.453
 4802TIP3    H214350   6.386   2.863   0.401
 4803TIP3   OH214351   5.916   2.640   1.472
 4803TIP3    H114352   5.934   2.620   1.380
 4803TIP3    H214353   5.993   2.608   1.519
 4804TIP3   OH214354   0.108   5.005   2.174
 4804TIP3    H114355   0.076   5.092   2.199
 4804TIP3    H214356   0.035   4.964   2.129
 4805TIP3   OH214357   4.785   0.310   6.370
 4805TIP3    H114358   4.810   0.291   6.460
 4805TIP3    H214359   4.814   0.401   6.356
 4806TIP3   OH214360   5.292   2.051   1.546
 4806TIP3    H114361   5.311   2.039   1.639
 4806TIP3    H214362   5.342   1.982   1.502
 4807TIP3   OH214363   5.495   3.743   4.689
 4807TIP3    H114364   5.578   3.731   4.642
 4807TIP3    H214365   5.483   3.661   4.738
 4808TIP3   OH214366   2.669   7.603   3.163
 4808TIP3    H114367   2.635   7.514   3.170
 4808TIP3    H214368   2.723   7.614   3.241
 4809TIP3   OH214369   6.639   6.213   4.666
 4809TIP3    H114370   6.727   6.248   4.656
 4809TIP3    H214371   6.614   6.183   4.579
 4810TIP3   OH214372   0.866   4.202   5.178
 4810TIP3    H114373   0.861   4.108   5.196
 4810TIP3    H214374   0.782   4.236   5.208
 4811TIP3   OH214375   1.307   3.758   3.139
 4811TIP3    H114376   1.225   3.789   3.101
 4811TIP3    H214377   1.337   3.689   3.080
 4812TIP3   OH214378   2.838   2.954   3.420
 4812TIP3    H114379   2.840   2.865   3.385
 4812TIP3    H214380   2.912   2.958   3.480
 4813TIP3   OH214381   0.727   5.101   2.399
 4813TIP3    H114382   0.813   5.101   2.440
 4813TIP3    H214383   0.708   5.009   2.382
 4814TIP3   OH214384   0.360   1.192   4.479
 4814TIP3    H114385   0.281   1.217   4.527
 4814TIP3    H214386   0.387   1.272   4.435
 4815TIP3   OH214387   3.958   7.284   5.284
 4815TIP3    H114388   4.004   7.247   5.208
 4815TIP3    H214389   4.027   7.300   5.348
 4816TIP3   OH214390   5.647   3.961   6.310
 4816TIP3    H114391   5.667   3.953   6.217
 4816TIP3    H214392   5.697   4.037   6.339
 4817TIP3   OH214393   1.654   2.466   5.733
 4817TIP3    H114394   1.659   2.371   5.718
 4817TIP3    H214395   1.620   2.474   5.822
 4818TIP3   OH214396   7.468   0.609   1.916
 4818TIP3    H114397   7.449   0.699   1.941
 4818TIP3    H214398   7.450   0.557   1.994
 4819TIP3   OH214399   4.228   0.462   4.642
 4819TIP3    H114400   4.201   0.489   4.731
 4819TIP3    H214401   4.226   0.367   4.644
 4820TIP3   OH214402   3.265   1.857   2.119
 4820TIP3    H114403   3.250   1.764   2.133
 4820TIP3    H214404   3.356   1.863   2.092
 4821TIP3   OH214405   1.782   1.003   1.398
 4821TIP3    H114406   1.769   1.097   1.414
 4821TIP3    H214407   1.853   1.000   1.334
 4822TIP3   OH214408   6.954   7.671   2.042
 4822TIP3    H114409   6.938   7.593   2.095
 4822TIP3    H214410   6.872   7.720   2.047
 4823TIP3   OH214411   1.820   7.550   2.865
 4823TIP3    H114412   1.911   7.525   2.852
 4823TIP3    H214413   1.789   7.575   2.777
 4824TIP3   OH214414   7.825   7.580   4.673
 4824TIP3    H114415   7.769   7.523   4.621
 4824TIP3    H214416   7.796   7.669   4.652
 4825TIP3   OH214417   0.786   1.343   5.770
 4825TIP3    H114418   0.759   1.435   5.774
 4825TIP3    H214419   0.835   1.337   5.688
 4826TIP3   OH214420   7.863   4.908   6.533
 4826TIP3    H114421   7.780   4.954   6.550
 4826TIP3    H214422   7.913   4.917   6.613
 4827TIP3   OH214423   6.060   0.892   4.059
 4827TIP3    H114424   6.135   0.949   4.043
 4827TIP3    H214425   5.985   0.951   4.055
 4828TIP3   OH214426   7.333   2.256   5.260
 4828TIP3    H114427   7.255   2.204   5.278
 4828TIP3    H214428   7.301   2.331   5.211
 4829TIP3   OH214429   6.621   5.972   0.245
 4829TIP3    H114430   6.566   5.896   0.264
 4829TIP3    H214431   6.571   6.047   0.278
 4830TIP3   OH214432   1.415   2.956   3.173
 4830TIP3    H114433   1.373   2.908   3.102
 4830TIP3    H214434   1.509   2.942   3.160
 4831TIP3   OH214435   6.044   5.070   0.600
 4831TIP3    H114436   6.021   5.095   0.510
 4831TIP3    H214437   6.126   5.022   0.591
 4832TIP3   OH214438   4.827   6.756   5.263
 4832TIP3    H114439   4.830   6.682   5.324
 4832TIP3    H214440   4.776   6.823   5.309
 4833TIP3   OH214441   3.799   1.363   2.507
 4833TIP3    H114442   3.772   1.455   2.513
 4833TIP3    H214443   3.893   1.365   2.526
 4834TIP3   OH214444   5.893   3.803   0.954
 4834TIP3    H114445   5.978   3.845   0.966
 4834TIP3    H214446   5.840   3.869   0.909
 4835TIP3   OH214447   1.434   4.640   5.618
 4835TIP3    H114448   1.459   4.708   5.555
 4835TIP3    H214449   1.380   4.686   5.683
 4836TIP3   OH214450   3.735   2.498   0.619
 4836TIP3    H114451   3.699   2.504   0.707
 4836TIP3    H214452   3.684   2.561   0.568
 4837TIP3   OH214453   0.905   3.215   1.890
 4837TIP3    H114454   0.952   3.139   1.856
 4837TIP3    H214455   0.946   3.233   1.974
 4838TIP3   OH214456   6.047   4.285   6.703
 4838TIP3    H114457   6.062   4.211   6.645
 4838TIP3    H214458   5.971   4.259   6.756
 4839TIP3   OH214459   5.584   7.810   2.670
 4839TIP3    H114460   5.594   7.723   2.630
 4839TIP3    H214461   5.515   7.852   2.619
 4840TIP3   OH214462   6.253   2.321   2.556
 4840TIP3    H114463   6.299   2.340   2.638
 4840TIP3    H214464   6.323   2.315   2.491
 4841TIP3   OH214465   1.265   1.108   6.004
 4841TIP3    H114466   1.315   1.123   6.084
 4841TIP3    H214467   1.205   1.037   6.025
 4842TIP3   OH214468   1.694   1.458   2.827
 4842TIP3    H114469   1.652   1.375   2.803
 4842TIP3    H214470   1.627   1.507   2.875
 4843TIP3   OH214471   3.952   1.724   3.393
 4843TIP3    H114472   3.917   1.655   3.336
 4843TIP3    H214473   3.961   1.800   3.335
 4844TIP3   OH214474   5.965   6.768   2.705
 4844TIP3    H114475   5.911   6.800   2.777
 4844TIP3    H214476   5.938   6.677   2.693
 4845TIP3   OH214477   4.764   3.906   3.013
 4845TIP3    H114478   4.689   3.868   3.058
 4845TIP3    H214479   4.730   3.931   2.927
 4846TIP3   OH214480   2.447   5.376   3.341
 4846TIP3    H114481   2.400   5.452   3.307
 4846TIP3    H214482   2.537   5.387   3.311
 4847TIP3   OH214483   3.630   1.307   5.716
 4847TIP3    H114484   3.663   1.337   5.801
 4847TIP3    H214485   3.616   1.388   5.666
 4848TIP3   OH214486   3.629   7.098   3.677
 4848TIP3    H114487   3.687   7.084   3.602
 4848TIP3    H214488   3.611   7.192   3.676
 4849TIP3   OH214489   2.468   4.407   3.712
 4849TIP3    H114490   2.542   4.347   3.705
 4849TIP3    H214491   2.507   4.494   3.717
 4850TIP3   OH214492   3.385   2.436   0.651
 4850TIP3    H114493   3.306   2.382   0.646
 4850TIP3    H214494   3.428   2.423   0.567
 4851TIP3   OH214495   3.464   1.535   0.380
 4851TIP3    H114496   3.517   1.615   0.385
 4851TIP3    H214497   3.518   1.473   0.332
 4852TIP3   OH214498   6.634   4.186   2.471
 4852TIP3    H114499   6.677   4.140   2.543
 4852TIP3    H214500   6.545   4.150   2.469
 4853TIP3   OH214501   3.135   5.736   0.711
 4853TIP3    H114502   3.113   5.675   0.640
 4853TIP3    H214503   3.176   5.810   0.666
 4854TIP3   OH214504   3.966   7.131   1.577
 4854TIP3    H114505   4.030   7.199   1.599
 4854TIP3    H214506   4.001   7.090   1.497
 4855TIP3   OH214507   7.359   5.311   5.129
 4855TIP3    H114508   7.427   5.288   5.191
 4855TIP3    H214509   7.405   5.352   5.056
 4856TIP3   OH214510   0.067   3.717   5.300
 4856TIP3    H114511   0.087   3.763   5.219
 4856TIP3    H214512   0.129   3.645   5.304
 4857TIP3   OH214513   1.090   6.041   0.603
 4857TIP3    H114514   1.042   5.974   0.651
 4857TIP3    H214515   1.124   6.099   0.671
 4858TIP3   OH214516   7.852   5.311   1.447
 4858TIP3    H114517   7.799   5.261   1.508
 4858TIP3    H214518   7.897   5.246   1.394
 4859TIP3   OH214519   3.929   4.682   0.141
 4859TIP3    H114520   3.915   4.597   0.183
 4859TIP3    H214521   4.021   4.680   0.112
 4860TIP3   OH214522   1.199   6.197  -0.066
 4860TIP3    H114523   1.143   6.256  -0.016
 4860TIP3    H214524   1.221   6.127  -0.004
 4861TIP3   OH214525   7.259   0.504   2.354
 4861TIP3    H114526   7.327   0.437   2.358
 4861TIP3    H214527   7.304   0.582   2.321
 4862TIP3   OH214528   1.764   3.451   4.935
 4862TIP3    H114529   1.671   3.473   4.929
 4862TIP3    H214530   1.800   3.513   4.999
 4863TIP3   OH214531   0.314   0.166   0.955
 4863TIP3    H114532   0.379   0.227   0.921
 4863TIP3    H214533   0.344   0.145   1.043
 4864TIP3   OH214534   4.746   7.598   3.288
 4864TIP3    H114535   4.718   7.683   3.321
 4864TIP3    H214536   4.669   7.542   3.297
 4865TIP3   OH214537   6.275   3.444   6.385
 4865TIP3    H114538   6.205   3.499   6.422
 4865TIP3    H214539   6.353   3.499   6.388
 4866TIP3   OH214540   4.167   2.391   5.509
 4866TIP3    H114541   4.109   2.383   5.585
 4866TIP3    H214542   4.255   2.377   5.543
 4867TIP3   OH214543   0.267   4.702   4.313
 4867TIP3    H114544   0.178   4.700   4.278
 4867TIP3    H214545   0.265   4.640   4.385
 4868TIP3   OH214546   3.079   6.541   3.370
 4868TIP3    H114547   3.105   6.563   3.280
 4868TIP3    H214548   3.121   6.608   3.424
 4869TIP3   OH214549   5.021   6.376   4.464
 4869TIP3    H114550   5.056   6.443   4.407
 4869TIP3    H214551   5.098   6.333   4.503
 4870TIP3   OH214552   7.138   0.748   5.378
 4870TIP3    H114553   7.153   0.836   5.413
 4870TIP3    H214554   7.054   0.755   5.333
 4871TIP3   OH214555   4.475   4.590   2.150
 4871TIP3    H114556   4.391   4.544   2.150
 4871TIP3    H214557   4.536   4.527   2.111
 4872TIP3   OH214558   3.981   1.449   2.015
 4872TIP3    H114559   4.005   1.431   2.106
 4872TIP3    H214560   3.929   1.529   2.020
 4873TIP3   OH214561   2.789   0.290   4.572
 4873TIP3    H114562   2.734   0.240   4.512
 4873TIP3    H214563   2.875   0.248   4.567
 4874TIP3   OH214564   7.857   2.367   1.009
 4874TIP3    H114565   7.843   2.452   0.966
 4874TIP3    H214566   7.940   2.336   0.973
 4875TIP3   OH214567   2.987   7.495   1.556
 4875TIP3    H114568   2.978   7.517   1.649
 4875TIP3    H214569   2.966   7.401   1.552
 4876TIP3   OH214570   8.111   0.308   0.935
 4876TIP3    H114571   8.196   0.298   0.892
 4876TIP3    H214572   8.119   0.389   0.986
 4877TIP3   OH214573   4.607   6.729   5.784
 4877TIP3    H114574   4.595   6.725   5.689
 4877TIP3    H214575   4.557   6.806   5.812
 4878TIP3   OH214576   3.181   6.524   1.994
 4878TIP3    H114577   3.106   6.515   1.934
 4878TIP3    H214578   3.171   6.450   2.054
 4879TIP3   OH214579   2.148   7.798   3.020
 4879TIP3    H114580   2.109   7.823   3.104
 4879TIP3    H214581   2.235   7.767   3.042
 4880TIP3   OH214582   5.518   1.778   0.073
 4880TIP3    H114583   5.516   1.830  -0.007
 4880TIP3    H214584   5.437   1.801   0.119
 4881TIP3   OH214585   6.312   1.820   2.784
 4881TIP3    H114586   6.263   1.738   2.781
 4881TIP3    H214587   6.260   1.881   2.732
 4882TIP3   OH214588   1.717   2.987   3.369
 4882TIP3    H114589   1.714   2.943   3.454
 4882TIP3    H214590   1.705   2.917   3.305
 4883TIP3   OH214591   7.260   5.706   2.595
 4883TIP3    H114592   7.266   5.623   2.642
 4883TIP3    H214593   7.311   5.691   2.515
 4884TIP3   OH214594   8.039   6.319   2.097
 4884TIP3    H114595   8.002   6.231   2.099
 4884TIP3    H214596   8.014   6.354   2.011
 4885TIP3   OH214597   2.113   4.411   5.376
 4885TIP3    H114598   2.198   4.441   5.344
 4885TIP3    H214599   2.083   4.482   5.434
 4886TIP3   OH214600   2.202   2.414   0.185
 4886TIP3    H114601   2.109   2.408   0.208
 4886TIP3    H214602   2.204   2.457   0.100
 4887TIP3   OH214603   5.489  -0.026   0.746
 4887TIP3    H114604   5.546  -0.002   0.819
 4887TIP3    H214605   5.547  -0.030   0.670
 4888TIP3   OH214606   2.993   7.007   3.327
 4888TIP3    H114607   2.908   7.043   3.302
 4888TIP3    H214608   3.028   6.970   3.247
 4889TIP3   OH214609   7.964   1.950   2.893
 4889TIP3    H114610   7.972   1.856   2.909
 4889TIP3    H214611   7.889   1.977   2.945
 4890TIP3   OH214612   7.655   2.074   5.584
 4890TIP3    H114613   7.631   2.008   5.650
 4890TIP3    H214614   7.613   2.044   5.504
 4891TIP3   OH214615   6.497   5.493   1.998
 4891TIP3    H114616   6.565   5.560   2.002
 4891TIP3    H214617   6.527   5.433   1.930
 4892TIP3   OH214618   2.421   1.155   3.696
 4892TIP3    H114619   2.501   1.186   3.739
 4892TIP3    H214620   2.450   1.127   3.609
 4893TIP3   OH214621   4.227   7.137   6.715
 4893TIP3    H114622   4.240   7.043   6.722
 4893TIP3    H214623   4.132   7.147   6.704
 4894TIP3   OH214624   1.143   2.923   4.092
 4894TIP3    H114625   1.186   2.849   4.136
 4894TIP3    H214626   1.088   2.962   4.160
 4895TIP3   OH214627   5.047   6.863   4.299
 4895TIP3    H114628   5.038   6.906   4.214
 4895TIP3    H214629   4.972   6.895   4.350
 4896TIP3   OH214630   4.322   6.556   1.629
 4896TIP3    H114631   4.307   6.581   1.720
 4896TIP3    H214632   4.417   6.547   1.622
 4897TIP3   OH214633   5.064   0.294   5.308
 4897TIP3    H114634   5.129   0.238   5.350
 4897TIP3    H214635   5.052   0.255   5.221
 4898TIP3   OH214636   7.153   0.966   2.735
 4898TIP3    H114637   7.196   0.987   2.817
 4898TIP3    H214638   7.221   0.925   2.681
 4899TIP3   OH214639   8.251   0.694   4.144
 4899TIP3    H114640   8.259   0.599   4.137
 4899TIP3    H214641   8.319   0.728   4.085
 4900TIP3   OH214642   2.434   6.067   1.699
 4900TIP3    H114643   2.351   6.053   1.653
 4900TIP3    H214644   2.499   6.076   1.629
 4901TIP3   OH214645   6.999   3.539   6.048
 4901TIP3    H114646   6.945   3.466   6.081
 4901TIP3    H214647   7.089   3.507   6.055
 4902TIP3   OH214648   3.423   5.356   1.562
 4902TIP3    H114649   3.356   5.332   1.626
 4902TIP3    H214650   3.386   5.432   1.516
 4903TIP3   OH214651   0.939   4.493   0.257
 4903TIP3    H114652   0.926   4.424   0.192
 4903TIP3    H214653   0.958   4.571   0.205
 4904TIP3   OH214654   2.396   1.359   4.497
 4904TIP3    H114655   2.324   1.403   4.542
 4904TIP3    H214656   2.436   1.427   4.443
 4905TIP3   OH214657   4.323   4.185   3.258
 4905TIP3    H114658   4.280   4.269   3.273
 4905TIP3    H214659   4.371   4.168   3.339
 4906TIP3   OH214660   0.206   0.922   5.699
 4906TIP3    H114661   0.182   0.995   5.641
 4906TIP3    H214662   0.300   0.931   5.711
 4907TIP3   OH214663   4.002   0.690   2.200
 4907TIP3    H114664   4.002   0.774   2.247
 4907TIP3    H214665   3.921   0.647   2.228
 4908TIP3   OH214666   6.398   6.073   6.620
 4908TIP3    H114667   6.402   5.995   6.675
 4908TIP3    H214668   6.484   6.114   6.631
 4909TIP3   OH214669   5.709   5.245  -0.022
 4909TIP3    H114670   5.769   5.180   0.014
 4909TIP3    H214671   5.758   5.286  -0.093
 4910TIP3   OH214672   4.908   1.853   4.041
 4910TIP3    H114673   4.922   1.843   4.135
 4910TIP3    H214674   4.896   1.763   4.009
 4911TIP3   OH214675   7.481   6.806   1.717
 4911TIP3    H114676   7.539   6.732   1.733
 4911TIP3    H214677   7.436   6.819   1.801
 4912TIP3   OH214678   3.882   0.981   4.552
 4912TIP3    H114679   3.827   0.935   4.489
 4912TIP3    H214680   3.868   0.936   4.635
 4913TIP3   OH214681   2.174   5.153   1.111
 4913TIP3    H114682   2.246   5.096   1.084
 4913TIP3    H214683   2.174   5.224   1.047
 4914TIP3   OH214684   4.773   2.997   0.675
 4914TIP3    H114685   4.808   2.935   0.611
 4914TIP3    H214686   4.846   3.014   0.735
 4915TIP3   OH214687   7.887   4.963   1.609
 4915TIP3    H114688   7.841   4.893   1.655
 4915TIP3    H214689   7.817   5.017   1.571
 4916TIP3   OH214690   2.092   2.091   4.512
 4916TIP3    H114691   2.114   2.078   4.420
 4916TIP3    H214692   2.177   2.088   4.557
 4917TIP3   OH214693   5.293   2.732   1.869
 4917TIP3    H114694   5.319   2.807   1.816
 4917TIP3    H214695   5.279   2.768   1.956
 4918TIP3   OH214696   6.444   1.692   1.272
 4918TIP3    H114697   6.398   1.608   1.271
 4918TIP3    H214698   6.384   1.752   1.228
 4919TIP3   OH214699   7.209   6.487   0.267
 4919TIP3    H114700   7.136   6.467   0.208
 4919TIP3    H214701   7.224   6.580   0.256
 4920TIP3   OH214702   6.645   4.931   0.114
 4920TIP3    H114703   6.580   5.002   0.116
 4920TIP3    H214704   6.691   4.943   0.031
 4921TIP3   OH214705   3.303   1.471   3.265
 4921TIP3    H114706   3.337   1.560   3.255
 4921TIP3    H214707   3.322   1.448   3.356
 4922TIP3   OH214708   4.169   7.025   4.088
 4922TIP3    H114709   4.187   6.946   4.038
 4922TIP3    H214710   4.093   7.003   4.142
 4923TIP3   OH214711   4.250   1.211   0.759
 4923TIP3    H114712   4.172   1.172   0.720
 4923TIP3    H214713   4.220   1.295   0.794
 4924TIP3   OH214714   2.119   2.424   1.563
 4924TIP3    H114715   2.166   2.487   1.509
 4924TIP3    H214716   2.040   2.470   1.590
 4925TIP3   OH214717   0.727   2.112   5.203
 4925TIP3    H114718   0.789   2.064   5.149
 4925TIP3    H214719   0.673   2.043   5.243
 4926TIP3   OH214720   1.196   0.475   6.079
 4926TIP3    H114721   1.164   0.450   5.992
 4926TIP3    H214722   1.234   0.562   6.067
 4927TIP3   OH214723   3.577   4.364   5.719
 4927TIP3    H114724   3.538   4.404   5.797
 4927TIP3    H214725   3.551   4.273   5.722
 4928TIP3   OH214726   3.803   0.764   0.456
 4928TIP3    H114727   3.772   0.754   0.546
 4928TIP3    H214728   3.839   0.853   0.453
 4929TIP3   OH214729   1.899   0.701   4.027
 4929TIP3    H114730   1.932   0.739   3.945
 4929TIP3    H214731   1.804   0.695   4.014
 4930TIP3   OH214732   7.868   2.278   6.616
 4930TIP3    H114733   7.805   2.214   6.650
 4930TIP3    H214734   7.817   2.332   6.555
 4931TIP3   OH214735   5.708   4.168   3.174
 4931TIP3    H114736   5.631   4.163   3.229
 4931TIP3    H214737   5.682   4.224   3.101
 4932TIP3   OH214738   1.418   5.601   2.251
 4932TIP3    H114739   1.417   5.520   2.199
 4932TIP3    H214740   1.325   5.623   2.261
 4933TIP3   OH214741   0.352   1.394   2.177
 4933TIP3    H114742   0.426   1.336   2.197
 4933TIP3    H214743   0.353   1.459   2.247
 4934TIP3   OH214744   1.896   0.611   1.716
 4934TIP3    H114745   1.944   0.694   1.714
 4934TIP3    H214746   1.823   0.627   1.776
 4935TIP3   OH214747   0.526   6.340   6.802
 4935TIP3    H114748   0.439   6.304   6.784
 4935TIP3    H214749   0.568   6.347   6.716
 4936TIP3   OH214750   6.957   1.921   1.706
 4936TIP3    H114751   7.032   1.893   1.759
 4936TIP3    H214752   6.984   2.006   1.671
 4937TIP3   OH214753   0.613   1.466   2.787
 4937TIP3    H114754   0.661   1.499   2.863
 4937TIP3    H214755   0.598   1.374   2.806
 4938TIP3   OH214756   6.077   4.100   4.497
 4938TIP3    H114757   6.025   4.165   4.450
 4938TIP3    H214758   6.035   4.091   4.582
 4939TIP3   OH214759   1.996   3.618   2.394
 4939TIP3    H114760   1.965   3.668   2.318
 4939TIP3    H214761   1.981   3.526   2.370
 4940TIP3   OH214762   6.272   2.348   4.568
 4940TIP3    H114763   6.321   2.420   4.527
 4940TIP3    H214764   6.304   2.270   4.523
 4941TIP3   OH214765   3.886   3.086   5.037
 4941TIP3    H114766   3.923   3.173   5.049
 4941TIP3    H214767   3.963   3.028   5.031
 4942TIP3   OH214768   5.857   1.260   5.375
 4942TIP3    H114769   5.793   1.190   5.365
 4942TIP3    H214770   5.850   1.287   5.467
 4943TIP3   OH214771   7.178   5.661   4.402
 4943TIP3    H114772   7.132   5.632   4.323
 4943TIP3    H214773   7.214   5.581   4.439
 4944TIP3   OH214774   3.753   7.774   4.820
 4944TIP3    H114775   3.825   7.741   4.766
 4944TIP3    H214776   3.761   7.726   4.903
 4945TIP3   OH214777   6.724   0.419   6.548
 4945TIP3    H114778   6.749   0.405   6.639
 4945TIP3    H214779   6.663   0.347   6.528
 4946TIP3   OH214780   1.983   5.337   3.612
 4946TIP3    H114781   1.891   5.354   3.594
 4946TIP3    H214782   1.985   5.298   3.699
 4947TIP3   OH214783   2.264   4.939   4.676
 4947TIP3    H114784   2.235   4.911   4.762
 4947TIP3    H214785   2.266   4.859   4.624
 4948TIP3   OH214786   6.727   5.744   4.866
 4948TIP3    H114787   6.819   5.756   4.889
 4948TIP3    H214788   6.714   5.800   4.789
 4949TIP3   OH214789   4.439   0.175   2.230
 4949TIP3    H114790   4.397   0.218   2.155
 4949TIP3    H214791   4.468   0.091   2.196
 4950TIP3   OH214792   0.624   3.509   0.154
 4950TIP3    H114793   0.659   3.597   0.141
 4950TIP3    H214794   0.560   3.518   0.225
 4951TIP3   OH214795   6.129   6.278   6.629
 4951TIP3    H114796   6.127   6.241   6.717
 4951TIP3    H214797   6.120   6.372   6.641
 4952TIP3   OH214798   4.210   2.793   3.847
 4952TIP3    H114799   4.123   2.774   3.882
 4952TIP3    H214800   4.197   2.795   3.752
 4953TIP3   OH214801   1.967   6.295   0.077
 4953TIP3    H114802   1.999   6.379   0.044
 4953TIP3    H214803   1.895   6.272   0.019
 4954TIP3   OH214804   5.790   4.539   5.689
 4954TIP3    H114805   5.708   4.563   5.646
 4954TIP3    H214806   5.809   4.450   5.659
 4955TIP3   OH214807   1.309   1.915   4.215
 4955TIP3    H114808   1.268   1.851   4.157
 4955TIP3    H214809   1.257   1.912   4.295
 4956TIP3   OH214810   1.161   7.208   1.727
 4956TIP3    H114811   1.203   7.193   1.642
 4956TIP3    H214812   1.214   7.276   1.768
 4957TIP3   OH214813   7.508   6.013   1.291
 4957TIP3    H114814   7.518   6.056   1.375
 4957TIP3    H214815   7.595   6.016   1.252
 4958TIP3   OH214816   7.434   4.227   5.750
 4958TIP3    H114817   7.419   4.147   5.801
 4958TIP3    H214818   7.522   4.256   5.775
 4959TIP3   OH214819   4.618   1.207   0.398
 4959TIP3    H114820   4.584   1.118   0.393
 4959TIP3    H214821   4.541   1.263   0.390
 4960TIP3   OH214822   4.945   4.794   3.115
 4960TIP3    H114823   4.956   4.699   3.110
 4960TIP3    H214824   4.947   4.813   3.209
 4961TIP3   OH214825   8.160   1.780   4.529
 4961TIP3    H114826   8.101   1.705   4.533
 4961TIP3    H214827   8.128   1.839   4.598
 4962TIP3   OH214828   7.602   1.015   6.794
 4962TIP3    H114829   7.677   1.037   6.850
 4962TIP3    H214830   7.598   1.087   6.731
 4963TIP3   OH214831   3.287   6.591   1.243
 4963TIP3    H114832   3.220   6.655   1.220
 4963TIP3    H214833   3.239   6.510   1.259
 4964TIP3   OH214834   0.605   2.866   6.160
 4964TIP3    H114835   0.559   2.915   6.228
 4964TIP3    H214836   0.624   2.782   6.201
 4965TIP3   OH214837   2.362   4.131   3.200
 4965TIP3    H114838   2.285   4.076   3.213
 4965TIP3    H214839   2.329   4.221   3.210
 4966TIP3   OH214840   7.606   4.092   0.541
 4966TIP3    H114841   7.612   4.006   0.498
 4966TIP3    H214842   7.684   4.139   0.510
 4967TIP3   OH214843   8.170   0.660   6.567
 4967TIP3    H114844   8.125   0.731   6.611
 4967TIP3    H214845   8.200   0.698   6.484
 4968TIP3   OH214846   8.221   4.336   1.867
 4968TIP3    H114847   8.140   4.358   1.820
 4968TIP3    H214848   8.278   4.411   1.853
 4969TIP3   OH214849   3.004   4.087   0.517
 4969TIP3    H114850   3.016   4.041   0.600
 4969TIP3    H214851   3.039   4.027   0.451
 4970TIP3   OH214852   1.079   0.570   3.300
 4970TIP3    H114853   1.078   0.476   3.282
 4970TIP3    H214854   1.034   0.610   3.226
 4971TIP3   OH214855   4.186   6.338   4.783
 4971TIP3    H114856   4.236   6.352   4.863
 4971TIP3    H214857   4.191   6.244   4.767
 4972TIP3   OH214858   7.357   6.982   0.575
 4972TIP3    H114859   7.420   6.992   0.646
 4972TIP3    H214860   7.295   7.054   0.588
 4973TIP3   OH214861   1.506   3.202   1.167
 4973TIP3    H114862   1.553   3.285   1.180
 4973TIP3    H214863   1.458   3.214   1.086
 4974TIP3   OH214864   0.216   2.365   4.965
 4974TIP3    H114865   0.246   2.438   4.911
 4974TIP3    H214866   0.124   2.385   4.984
 4975TIP3   OH214867   5.455   1.478   6.638
 4975TIP3    H114868   5.443   1.556   6.585
 4975TIP3    H214869   5.534   1.437   6.603
 4976TIP3   OH214870   2.285   1.802   1.425
 4976TIP3    H114871   2.220   1.751   1.377
 4976TIP3    H214872   2.334   1.737   1.476
 4977TIP3   OH214873   3.348   7.072   3.494
 4977TIP3    H114874   3.268   7.124   3.502
 4977TIP3    H214875   3.378   7.088   3.404
 4978TIP3   OH214876   5.336   1.180   3.372
 4978TIP3    H114877   5.404   1.171   3.306
 4978TIP3    H214878   5.380   1.166   3.456
 4979TIP3   OH214879   7.056   2.709   6.359
 4979TIP3    H114880   6.995   2.756   6.416
 4979TIP3    H214881   7.007   2.694   6.278
 4980TIP3   OH214882   0.538   2.466   3.716
 4980TIP3    H114883   0.535   2.426   3.803
 4980TIP3    H214884   0.623   2.438   3.680
 4981TIP3   OH214885   5.393   6.337   0.031
 4981TIP3    H114886   5.363   6.268   0.090
 4981TIP3    H214887   5.369   6.306  -0.057
 4982TIP3   OH214888   3.190   4.795   6.017
 4982TIP3    H114889   3.126   4.728   5.995
 4982TIP3    H214890   3.148   4.848   6.085
 4983TIP3   OH214891   5.328   6.785   4.020
 4983TIP3    H114892   5.238   6.817   4.010
 4983TIP3    H214893   5.357   6.822   4.103
 4984TIP3   OH214894   0.612   7.712   1.270
 4984TIP3    H114895   0.549   7.643   1.290
 4984TIP3    H214896   0.697   7.675   1.294
 4985TIP3   OH214897   7.173   1.596   1.700
 4985TIP3    H114898   7.171   1.511   1.656
 4985TIP3    H214899   7.228   1.581   1.777
 4986TIP3   OH214900   3.703   5.580   3.008
 4986TIP3    H114901   3.682   5.490   3.035
 4986TIP3    H214902   3.716   5.573   2.914
 4987TIP3   OH214903   3.106   2.026   2.853
 4987TIP3    H114904   3.156   2.106   2.838
 4987TIP3    H214905   3.063   2.040   2.937
 4988TIP3   OH214906   7.665   6.726   2.024
 4988TIP3    H114907   7.736   6.786   2.002
 4988TIP3    H214908   7.659   6.668   1.948
 4989TIP3   OH214909   7.227   0.819   3.240
 4989TIP3    H114910   7.225   0.750   3.307
 4989TIP3    H214911   7.178   0.783   3.167
 4990TIP3   OH214912   1.496   3.799   3.910
 4990TIP3    H114913   1.458   3.713   3.928
 4990TIP3    H214914   1.551   3.785   3.833
 4991TIP3   OH214915   1.884   6.957   2.138
 4991TIP3    H114916   1.878   6.924   2.048
 4991TIP3    H214917   1.883   6.878   2.192
 4992TIP3   OH214918   6.452   6.652   6.762
 4992TIP3    H114919   6.361   6.636   6.789
 4992TIP3    H214920   6.453   6.744   6.735
 4993TIP3   OH214921   7.650   6.718   0.254
 4993TIP3    H114922   7.733   6.746   0.292
 4993TIP3    H214923   7.659   6.734   0.160
 4994TIP3   OH214924   2.748   7.257   3.627
 4994TIP3    H114925   2.701   7.331   3.666
 4994TIP3    H214926   2.726   7.182   3.683
 4995TIP3   OH214927   6.239   0.541   4.633
 4995TIP3    H114928   6.205   0.618   4.678
 4995TIP3    H214929   6.237   0.563   4.540
 4996TIP3   OH214930   5.229   3.998   1.164
 4996TIP3    H114931   5.290   4.029   1.231
 4996TIP3    H214932   5.146   4.039   1.187
 4997TIP3   OH214933   1.811   2.638   5.605
 4997TIP3    H114934   1.734   2.596   5.644
 4997TIP3    H214935   1.809   2.611   5.513
 4998TIP3   OH214936   6.203   0.615   6.065
 4998TIP3    H114937   6.233   0.525   6.050
 4998TIP3    H214938   6.189   0.620   6.160
 4999TIP3   OH214939   6.417   4.616   1.201
 4999TIP3    H114940   6.454   4.693   1.245
 4999TIP3    H214941   6.427   4.636   1.108
 5000TIP3   OH214942   5.291   5.181   2.375
 5000TIP3    H114943   5.340   5.152   2.298
 5000TIP3    H214944   5.353   5.234   2.424
 5001TIP3   OH214945   3.213   4.553   0.964
 5001TIP3    H114946   3.129   4.510   0.947
 5001TIP3    H214947   3.279   4.485   0.948
 5002TIP3   OH214948   1.698   5.365   2.339
 5002TIP3    H114949   1.614   5.333   2.306
 5002TIP3    H214950   1.675   5.415   2.418
 5003TIP3   OH214951   5.773   7.596   6.371
 5003TIP3    H114952   5.776   7.692   6.372
 5003TIP3    H214953   5.681   7.575   6.382
 5004TIP3   OH214954   5.644   1.890   0.444
 5004TIP3    H114955   5.691   1.843   0.513
 5004TIP3    H214956   5.588   1.952   0.491
 5005TIP3   OH214957   5.116   3.649   6.611
 5005TIP3    H114958   5.049   3.618   6.552
 5005TIP3    H214959   5.192   3.595   6.593
 5006TIP3   OH214960   5.104   6.696   6.488
 5006TIP3    H114961   5.070   6.752   6.419
 5006TIP3    H214962   5.027   6.668   6.537
 5007TIP3   OH214963   4.123   5.852   2.854
 5007TIP3    H114964   4.117   5.913   2.928
 5007TIP3    H214965   4.195   5.793   2.877
 5008TIP3   OH214966   7.851   2.154   6.203
 5008TIP3    H114967   7.805   2.082   6.159
 5008TIP3    H214968   7.790   2.227   6.200
 5009TIP3   OH214969   7.421   3.192   4.024
 5009TIP3    H114970   7.503   3.157   4.058
 5009TIP3    H214971   7.362   3.117   4.021
 5010TIP3   OH214972   6.886   0.602   4.921
 5010TIP3    H114973   6.979   0.624   4.928
 5010TIP3    H214974   6.858   0.642   4.839
 5011TIP3   OH214975   4.332   2.923   3.103
 5011TIP3    H114976   4.426   2.944   3.105
 5011TIP3    H214977   4.303   2.954   3.018
 5012TIP3   OH214978   7.079   6.202   0.176
 5012TIP3    H114979   7.066   6.288   0.135
 5012TIP3    H214980   6.991   6.171   0.195
 5013TIP3   OH214981   1.743   6.152   6.534
 5013TIP3    H114982   1.704   6.217   6.475
 5013TIP3    H214983   1.831   6.185   6.551
 5014TIP3   OH214984   0.404   4.509   0.792
 5014TIP3    H114985   0.408   4.450   0.717
 5014TIP3    H214986   0.389   4.452   0.867
 5015TIP3   OH214987   7.615   1.106   3.044
 5015TIP3    H114988   7.594   1.038   3.108
 5015TIP3    H214989   7.674   1.166   3.090
 5016TIP3   OH214990   5.375   5.835   4.019
 5016TIP3    H114991   5.452   5.887   4.042
 5016TIP3    H214992   5.351   5.790   4.100
 5017TIP3   OH214993   4.307   0.062   3.189
 5017TIP3    H114994   4.355   0.006   3.128
 5017TIP3    H214995   4.252   0.117   3.134
 5018TIP3   OH214996   2.887   2.508   2.565
 5018TIP3    H114997   2.810   2.556   2.536
 5018TIP3    H214998   2.855   2.420   2.583
 5019TIP3   OH214999   5.292   3.812   6.255
 5019TIP3    H115000   5.203   3.847   6.259
 5019TIP3    H215001   5.322   3.835   6.167
 5020TIP3   OH215002   1.526   4.159   6.626
 5020TIP3    H115003   1.615   4.128   6.608
 5020TIP3    H215004   1.537   4.223   6.696
 5021TIP3   OH215005   1.523   7.148   4.794
 5021TIP3    H115006   1.476   7.066   4.775
 5021TIP3    H215007   1.467   7.216   4.758
 5022TIP3   OH215008   6.364   1.007   4.323
 5022TIP3    H115009   6.395   0.938   4.382
 5022TIP3    H215010   6.407   0.986   4.239
 5023TIP3   OH215011   1.901   5.446   5.860
 5023TIP3    H115012   1.943   5.427   5.776
 5023TIP3    H215013   1.818   5.399   5.856
 5024TIP3   OH215014   0.586   4.807   2.883
 5024TIP3    H115015   0.521   4.846   2.823
 5024TIP3    H215016   0.568   4.713   2.879
 5025TIP3   OH215017   5.968   4.080   2.705
 5025TIP3    H115018   5.914   4.145   2.750
 5025TIP3    H215019   5.906   4.026   2.657
 5026TIP3   OH215020   4.812   6.826   1.385
 5026TIP3    H115021   4.832   6.753   1.444
 5026TIP3    H215022   4.888   6.883   1.391
 5027TIP3   OH215023   6.533   5.604   4.655
 5027TIP3    H115024   6.612   5.629   4.702
 5027TIP3    H215025   6.461   5.639   4.707
 5028TIP3   OH215026   5.619   6.747   4.762
 5028TIP3    H115027   5.552   6.760   4.829
 5028TIP3    H215028   5.688   6.809   4.784
 5029TIP3   OH215029   2.822   6.715   1.146
 5029TIP3    H115030   2.745   6.682   1.192
 5029TIP3    H215031   2.788   6.772   1.078
 5030TIP3   OH215032   5.832   3.565   3.567
 5030TIP3    H115033   5.770   3.561   3.493
 5030TIP3    H215034   5.917   3.543   3.528
 5031TIP3   OH215035   4.195   3.146   5.366
 5031TIP3    H115036   4.172   3.228   5.323
 5031TIP3    H215037   4.121   3.128   5.425
 5032TIP3   OH215038   7.834   7.625   3.422
 5032TIP3    H115039   7.741   7.643   3.411
 5032TIP3    H215040   7.852   7.644   3.514
 5033TIP3   OH215041   5.621   3.133   4.976
 5033TIP3    H115042   5.580   3.111   5.060
 5033TIP3    H215043   5.549   3.138   4.914
 5034TIP3   OH215044   1.563   6.192   5.509
 5034TIP3    H115045   1.593   6.248   5.437
 5034TIP3    H215046   1.485   6.148   5.474
 5035TIP3   OH215047   7.970   1.262   2.064
 5035TIP3    H115048   8.038   1.328   2.079
 5035TIP3    H215049   7.941   1.237   2.152
 5036TIP3   OH215050   5.679   4.067   4.117
 5036TIP3    H115051   5.640   3.992   4.070
 5036TIP3    H215052   5.604   4.121   4.142
 5037TIP3   OH215053   7.668   3.677   3.494
 5037TIP3    H115054   7.710   3.607   3.444
 5037TIP3    H215055   7.679   3.755   3.440
 5038TIP3   OH215056   5.714   0.241   1.311
 5038TIP3    H115057   5.757   0.322   1.282
 5038TIP3    H215058   5.672   0.265   1.394
 5039TIP3   OH215059   6.571   0.146   1.020
 5039TIP3    H115060   6.631   0.220   1.011
 5039TIP3    H215061   6.626   0.069   1.002
 5040TIP3   OH215062   5.698   1.379   2.260
 5040TIP3    H115063   5.653   1.315   2.315
 5040TIP3    H215064   5.643   1.385   2.181
 5041TIP3   OH215065   4.801   4.847   4.907
 5041TIP3    H115066   4.723   4.845   4.851
 5041TIP3    H215067   4.775   4.800   4.986
 5042TIP3   OH215068   7.663   0.297   5.914
 5042TIP3    H115069   7.569   0.299   5.900
 5042TIP3    H215070   7.673   0.285   6.008
 5043TIP3   OH215071   7.817   1.197   3.779
 5043TIP3    H115072   7.888   1.209   3.716
 5043TIP3    H215073   7.773   1.116   3.752
 5044TIP3   OH215074   5.905   0.566   4.945
 5044TIP3    H115075   5.955   0.495   4.905
 5044TIP3    H215076   5.913   0.640   4.884
 5045TIP3   OH215077   5.300   6.399   2.852
 5045TIP3    H115078   5.384   6.376   2.813
 5045TIP3    H215079   5.239   6.402   2.778
 5046TIP3   OH215080   3.089   4.345   6.468
 5046TIP3    H115081   2.998   4.343   6.496
 5046TIP3    H215082   3.092   4.414   6.401
 5047TIP3   OH215083   1.639   3.328   1.940
 5047TIP3    H115084   1.548   3.325   1.913
 5047TIP3    H215085   1.669   3.416   1.917
 5048TIP3   OH215086   5.619   6.259   0.599
 5048TIP3    H115087   5.673   6.338   0.592
 5048TIP3    H215088   5.578   6.265   0.685
 5049TIP3   OH215089   5.630   6.032   2.076
 5049TIP3    H115090   5.710   6.079   2.056
 5049TIP3    H215091   5.658   5.957   2.128
 5050TIP3   OH215092   3.251   1.935   0.586
 5050TIP3    H115093   3.241   1.984   0.504
 5050TIP3    H215094   3.243   1.843   0.561
 5051TIP3   OH215095   6.775   6.211   6.407
 5051TIP3    H115096   6.775   6.246   6.496
 5051TIP3    H215097   6.696   6.157   6.403
 5052TIP3   OH215098   1.514   0.382   5.549
 5052TIP3    H115099   1.608   0.401   5.561
 5052TIP3    H215100   1.473   0.469   5.544
 5053TIP3   OH215101   3.186   1.356   0.436
 5053TIP3    H115102   3.199   1.353   0.341
 5053TIP3    H215103   3.234   1.434   0.464
 5054TIP3   OH215104   4.200   0.536   2.620
 5054TIP3    H115105   4.136   0.523   2.690
 5054TIP3    H215106   4.203   0.452   2.574
 5055TIP3   OH215107   4.318   5.083   1.634
 5055TIP3    H115108   4.258   5.027   1.685
 5055TIP3    H215109   4.405   5.047   1.652
 5056TIP3   OH215110   7.300   2.224   3.118
 5056TIP3    H115111   7.334   2.165   3.051
 5056TIP3    H215112   7.307   2.312   3.079
 5057TIP3   OH215113   2.833   6.436   3.975
 5057TIP3    H115114   2.923   6.426   3.944
 5057TIP3    H215115   2.791   6.492   3.910
 5058TIP3   OH215116   0.781   4.324   6.245
 5058TIP3    H115117   0.824   4.361   6.322
 5058TIP3    H215118   0.818   4.373   6.172
 5059TIP3   OH215119   3.295   5.655   1.724
 5059TIP3    H115120   3.217   5.695   1.685
 5059TIP3    H215121   3.289   5.562   1.700
 5060TIP3   OH215122   6.334   5.665   6.157
 5060TIP3    H115123   6.302   5.648   6.246
 5060TIP3    H215124   6.344   5.760   6.152
 5061TIP3   OH215125   6.464   1.077   4.935
 5061TIP3    H115126   6.421   1.147   4.887
 5061TIP3    H215127   6.483   1.011   4.868
 5062TIP3   OH215128   0.463   5.100   4.893
 5062TIP3    H115129   0.551   5.071   4.872
 5062TIP3    H215130   0.411   5.019   4.898
 5063TIP3   OH215131   6.675   1.468   5.591
 5063TIP3    H115132   6.688   1.562   5.600
 5063TIP3    H215133   6.605   1.459   5.527
 5064TIP3   OH215134   4.544   6.511   2.225
 5064TIP3    H115135   4.515   6.567   2.297
 5064TIP3    H215136   4.466   6.463   2.199
 5065TIP3   OH215137   4.473   2.150   2.685
 5065TIP3    H115138   4.379   2.166   2.680
 5065TIP3    H215139   4.495   2.159   2.778
 5066TIP3   OH215140   0.190   3.703   0.213
 5066TIP3    H115141   0.166   3.697   0.305
 5066TIP3    H215142   0.204   3.612   0.186
 5067TIP3   OH215143   1.831   5.572   2.153
 5067TIP3    H115144   1.839   5.483   2.186
 5067TIP3    H215145   1.763   5.567   2.086
 5068TIP3   OH215146   4.925   2.286   3.747
 5068TIP3    H115147   4.833   2.266   3.767
 5068TIP3    H215148   4.962   2.204   3.716
 5069TIP3   OH215149   4.088   5.583   2.177
 5069TIP3    H115150   3.997   5.607   2.161
 5069TIP3    H215151   4.139   5.649   2.130
 5070TIP3   OH215152   1.392   0.872   1.767
 5070TIP3    H115153   1.366   0.826   1.847
 5070TIP3    H215154   1.461   0.818   1.729
 5071TIP3   OH215155   7.021   7.787   6.102
 5071TIP3    H115156   7.115   7.772   6.094
 5071TIP3    H215157   6.985   7.756   6.019
 5072TIP3   OH215158   1.072   1.425   4.936
 5072TIP3    H115159   1.075   1.333   4.909
 5072TIP3    H215160   1.074   1.422   5.032
 5073TIP3   OH215161   6.923   3.849   3.331
 5073TIP3    H115162   6.860   3.862   3.401
 5073TIP3    H215163   6.941   3.755   3.332
 5074TIP3   OH215164   2.420   5.128   2.129
 5074TIP3    H115165   2.358   5.152   2.199
 5074TIP3    H215166   2.506   5.150   2.166
 5075TIP3   OH215167   1.461   2.548   6.627
 5075TIP3    H115168   1.553   2.569   6.611
 5075TIP3    H215169   1.457   2.528   6.720
 5076TIP3   OH215170   2.512   0.748   1.369
 5076TIP3    H115171   2.566   0.690   1.423
 5076TIP3    H215172   2.437   0.694   1.344
 5077TIP3   OH215173   3.310   4.700   0.326
 5077TIP3    H115174   3.296   4.789   0.358
 5077TIP3    H215175   3.235   4.683   0.269
 5078TIP3   OH215176   7.433   4.000   5.904
 5078TIP3    H115177   7.347   3.959   5.905
 5078TIP3    H215178   7.494   3.927   5.911
 5079TIP3   OH215179   3.650   2.536   4.812
 5079TIP3    H115180   3.608   2.504   4.733
 5079TIP3    H215181   3.732   2.576   4.782
 5080TIP3   OH215182   2.422   2.462   3.401
 5080TIP3    H115183   2.402   2.408   3.325
 5080TIP3    H215184   2.410   2.404   3.476
 5081TIP3   OH215185   2.913   2.841   5.628
 5081TIP3    H115186   2.935   2.914   5.571
 5081TIP3    H215187   2.876   2.775   5.570
 5082TIP3   OH215188   2.340   7.729   2.723
 5082TIP3    H115189   2.419   7.781   2.737
 5082TIP3    H215190   2.301   7.766   2.644
 5083TIP3   OH215191   0.046   5.743   2.545
 5083TIP3    H115192   0.043   5.823   2.597
 5083TIP3    H215193  -0.031   5.747   2.488
 5084TIP3   OH215194   4.260   7.375   1.234
 5084TIP3    H115195   4.238   7.433   1.308
 5084TIP3    H215196   4.318   7.428   1.180
 5085TIP3   OH215197   1.369   3.303   3.493
 5085TIP3    H115198   1.345   3.340   3.408
 5085TIP3    H215199   1.435   3.363   3.527
 5086TIP3   OH215200   4.223   2.278   1.325
 5086TIP3    H115201   4.293   2.344   1.334
 5086TIP3    H215202   4.142   2.329   1.326
 5087TIP3   OH215203   4.394   6.030   3.232
 5087TIP3    H115204   4.407   5.935   3.239
 5087TIP3    H215205   4.456   6.067   3.295
 5088TIP3   OH215206   0.712   4.753   5.821
 5088TIP3    H115207   0.688   4.673   5.867
 5088TIP3    H215208   0.650   4.759   5.749
 5089TIP3   OH215209   3.813   0.893   5.086
 5089TIP3    H115210   3.741   0.956   5.093
 5089TIP3    H215211   3.832   0.888   4.992
 5090TIP3   OH215212   3.299   7.402   3.676
 5090TIP3    H115213   3.210   7.400   3.713
 5090TIP3    H215214   3.295   7.469   3.608
 5091TIP3   OH215215   0.334   6.830   4.681
 5091TIP3    H115216   0.312   6.739   4.658
 5091TIP3    H215217   0.261   6.881   4.648
 5092TIP3   OH215218   4.550   6.809   5.230
 5092TIP3    H115219   4.521   6.718   5.238
 5092TIP3    H215220   4.546   6.827   5.136
 5093TIP3   OH215221   1.323   5.533   5.856
 5093TIP3    H115222   1.382   5.483   5.800
 5093TIP3    H215223   1.307   5.476   5.931
 5094TIP3   OH215224   5.114   3.471   4.076
 5094TIP3    H115225   5.194   3.507   4.116
 5094TIP3    H215226   5.128   3.482   3.982
 5095TIP3   OH215227   3.826   7.674   5.545
 5095TIP3    H115228   3.745   7.719   5.521
 5095TIP3    H215229   3.817   7.654   5.638
 5096TIP3   OH215230   8.185   0.470   5.362
 5096TIP3    H115231   8.150   0.526   5.293
 5096TIP3    H215232   8.115   0.469   5.429
 5097TIP3   OH215233   8.220   2.684   4.109
 5097TIP3    H115234   8.200   2.748   4.041
 5097TIP3    H215235   8.136   2.645   4.132
 5098TIP3   OH215236   0.313   1.428   1.917
 5098TIP3    H115237   0.402   1.445   1.887
 5098TIP3    H215238   0.320   1.418   2.012
 5099TIP3   OH215239   8.056   5.528   5.530
 5099TIP3    H115240   8.025   5.486   5.610
 5099TIP3    H215241   7.987   5.511   5.465
 5100TIP3   OH215242   5.674   6.685   6.726
 5100TIP3    H115243   5.759   6.704   6.766
 5100TIP3    H215244   5.684   6.708   6.634
 5101TIP3   OH215245   5.905   1.709   2.625
 5101TIP3    H115246   5.994   1.730   2.652
 5101TIP3    H215247   5.889   1.621   2.658
 5102TIP3   OH215248   1.786   6.064   5.293
 5102TIP3    H115249   1.812   6.108   5.374
 5102TIP3    H215250   1.721   6.122   5.253
 5103TIP3   OH215251   0.917   5.468   1.675
 5103TIP3    H115252   0.826   5.466   1.705
 5103TIP3    H215253   0.969   5.457   1.754
 5104TIP3   OH215254   6.833   5.935   3.915
 5104TIP3    H115255   6.822   5.853   3.963
 5104TIP3    H215256   6.851   5.908   3.825
 5105TIP3   OH215257   7.833   3.422   0.214
 5105TIP3    H115258   7.804   3.466   0.294
 5105TIP3    H215259   7.925   3.445   0.206
 5106TIP3   OH215260   8.009   4.363   0.404
 5106TIP3    H115261   8.083   4.342   0.461
 5106TIP3    H215262   8.049   4.401   0.326
 5107TIP3   OH215263   2.365   2.919   3.513
 5107TIP3    H115264   2.303   2.992   3.508
 5107TIP3    H215265   2.413   2.936   3.594
 5108TIP3   OH215266   3.227   1.074   5.856
 5108TIP3    H115267   3.312   1.057   5.897
 5108TIP3    H215268   3.183   0.990   5.857
 5109TIP3   OH215269   3.773   1.306   2.813
 5109TIP3    H115270   3.737   1.361   2.883
 5109TIP3    H215271   3.705   1.242   2.796
 5110TIP3   OH215272   4.524   5.704   4.019
 5110TIP3    H115273   4.571   5.620   4.012
 5110TIP3    H215274   4.581   5.759   4.073
 5111TIP3   OH215275   4.041   7.261   3.597
 5111TIP3    H115276   3.973   7.211   3.551
 5111TIP3    H215277   4.091   7.195   3.644
 5112TIP3   OH215278   4.106   1.373   0.932
 5112TIP3    H115279   4.136   1.291   0.972
 5112TIP3    H215280   4.162   1.440   0.971
 5113TIP3   OH215281   1.180   6.069   0.889
 5113TIP3    H115282   1.205   5.980   0.863
 5113TIP3    H215283   1.238   6.125   0.837
 5114TIP3   OH215284   3.124   5.137   2.314
 5114TIP3    H115285   3.057   5.169   2.376
 5114TIP3    H215286   3.078   5.072   2.261
 5115TIP3   OH215287   1.647   3.887   6.489
 5115TIP3    H115288   1.645   3.942   6.567
 5115TIP3    H215289   1.585   3.817   6.507
 5116TIP3   OH215290   5.001   7.379   3.012
 5116TIP3    H115291   5.005   7.393   3.106
 5116TIP3    H215292   5.081   7.418   2.978
 5117TIP3   OH215293   7.470   4.710   4.842
 5117TIP3    H115294   7.385   4.746   4.817
 5117TIP3    H215295   7.452   4.662   4.923
 5118TIP3   OH215296   3.046   5.869   5.562
 5118TIP3    H115297   3.077   5.807   5.628
 5118TIP3    H215298   3.006   5.939   5.613
 5119TIP3   OH215299   5.124   7.387   0.179
 5119TIP3    H115300   5.138   7.318   0.244
 5119TIP3    H215301   5.202   7.385   0.125
 5120TIP3   OH215302   3.974   2.454   5.241
 5120TIP3    H115303   4.024   2.384   5.197
 5120TIP3    H215304   3.895   2.410   5.271
 5121TIP3   OH215305   1.292   4.034   3.545
 5121TIP3    H115306   1.257   3.958   3.591
 5121TIP3    H215307   1.311   4.002   3.457
 5122TIP3   OH215308   1.086   0.182   0.191
 5122TIP3    H115309   1.037   0.102   0.208
 5122TIP3    H215310   1.082   0.231   0.273
 5123TIP3   OH215311   7.374   2.213   3.390
 5123TIP3    H115312   7.348   2.217   3.299
 5123TIP3    H215313   7.398   2.122   3.405
 5124TIP3   OH215314   2.981   3.640   2.111
 5124TIP3    H115315   3.062   3.689   2.122
 5124TIP3    H215316   2.961   3.607   2.199
 5125TIP3   OH215317   6.838   3.543   0.606
 5125TIP3    H115318   6.855   3.496   0.524
 5125TIP3    H215319   6.751   3.581   0.595
 5126TIP3   OH215320   6.102   2.819   1.253
 5126TIP3    H115321   6.015   2.857   1.241
 5126TIP3    H215322   6.121   2.774   1.171
 5127TIP3   OH215323   1.002   1.873   5.905
 5127TIP3    H115324   0.961   1.946   5.951
 5127TIP3    H215325   0.937   1.803   5.909
 5128TIP3   OH215326   8.081   1.920   3.885
 5128TIP3    H115327   8.015   1.920   3.816
 5128TIP3    H215328   8.060   1.844   3.938
 5129TIP3   OH215329   7.300   2.360   2.669
 5129TIP3    H115330   7.205   2.368   2.664
 5129TIP3    H215331   7.328   2.434   2.723
 5130TIP3   OH215332   6.444   2.177   3.014
 5130TIP3    H115333   6.379   2.131   3.067
 5130TIP3    H215334   6.501   2.220   3.078
 5131TIP3   OH215335   7.413   4.856   5.210
 5131TIP3    H115336   7.414   4.866   5.115
 5131TIP3    H215337   7.324   4.879   5.236
 5132TIP3   OH215338   4.191   3.999   3.960
 5132TIP3    H115339   4.132   3.924   3.961
 5132TIP3    H215340   4.251   3.983   4.033
 5133TIP3   OH215341   1.732   2.139   0.999
 5133TIP3    H115342   1.651   2.166   1.041
 5133TIP3    H215343   1.783   2.097   1.068
 5134TIP3   OH215344   0.848   5.149   4.975
 5134TIP3    H115345   0.825   5.076   4.917
 5134TIP3    H215346   0.870   5.108   5.058
 5135TIP3   OH215347   7.132   7.359   4.974
 5135TIP3    H115348   7.037   7.348   4.968
 5135TIP3    H215349   7.167   7.304   4.904
 5136TIP3   OH215350   3.265   1.462   4.108
 5136TIP3    H115351   3.262   1.414   4.025
 5136TIP3    H215352   3.340   1.521   4.098
 5137TIP3   OH215353   0.278   4.274   5.882
 5137TIP3    H115354   0.343   4.232   5.826
 5137TIP3    H215355   0.301   4.246   5.971
 5138TIP3   OH215356   3.428   6.772   6.624
 5138TIP3    H115357   3.450   6.682   6.650
 5138TIP3    H215358   3.349   6.762   6.569
 5139TIP3   OH215359   3.766   2.105   0.625
 5139TIP3    H115360   3.696   2.062   0.673
 5139TIP3    H215361   3.847   2.070   0.663
 5140TIP3   OH215362   1.240   5.769   3.878
 5140TIP3    H115363   1.278   5.799   3.961
 5140TIP3    H215364   1.180   5.699   3.903
 5141TIP3   OH215365   6.001   0.983   0.194
 5141TIP3    H115366   5.911   0.952   0.190
 5141TIP3    H215367   6.032   0.958   0.281
 5142TIP3   OH215368   4.392   6.413   0.648
 5142TIP3    H115369   4.307   6.369   0.648
 5142TIP3    H215370   4.376   6.495   0.601
 5143TIP3   OH215371   5.495   4.549   1.797
 5143TIP3    H115372   5.457   4.636   1.788
 5143TIP3    H215373   5.420   4.492   1.814
 5144TIP3   OH215374   5.460   4.184   4.389
 5144TIP3    H115375   5.394   4.188   4.459
 5144TIP3    H215376   5.520   4.115   4.417
 5145TIP3   OH215377   4.535   3.927   3.379
 5145TIP3    H115378   4.620   3.934   3.421
 5145TIP3    H215379   4.480   3.991   3.425
 5146TIP3   OH215380   7.002   1.543   3.375
 5146TIP3    H115381   7.007   1.600   3.452
 5146TIP3    H215382   7.009   1.455   3.411
 5147TIP3   OH215383   4.059   3.313   5.057
 5147TIP3    H115384   4.100   3.344   5.137
 5147TIP3    H215385   4.106   3.357   4.986
 5148TIP3   OH215386   0.066   4.687   5.469
 5148TIP3    H115387  -0.011   4.631   5.482
 5148TIP3    H215388   0.069   4.703   5.374
 5149TIP3   OH215389   3.007   1.821   4.824
 5149TIP3    H115390   2.966   1.734   4.822
 5149TIP3    H215391   3.092   1.808   4.784
 5150TIP3   OH215392   1.121   0.185   3.377
 5150TIP3    H115393   1.124   0.096   3.340
 5150TIP3    H215394   1.095   0.241   3.303
 5151TIP3   OH215395   0.792   1.001   1.499
 5151TIP3    H115396   0.869   1.037   1.543
 5151TIP3    H215397   0.763   0.930   1.556
 5152TIP3   OH215398   5.741   7.302   0.072
 5152TIP3    H115399   5.808   7.317   0.139
 5152TIP3    H215400   5.665   7.270   0.121
 5153TIP3   OH215401   5.348   6.330   6.077
 5153TIP3    H115402   5.294   6.335   6.156
 5153TIP3    H215403   5.369   6.237   6.069
 5154TIP3   OH215404   0.569   4.216   3.056
 5154TIP3    H115405   0.618   4.170   3.124
 5154TIP3    H215406   0.539   4.297   3.097
 5155TIP3   OH215407   7.708   2.647   6.126
 5155TIP3    H115408   7.635   2.699   6.159
 5155TIP3    H215409   7.751   2.613   6.204
 5156TIP3   OH215410   2.943   1.340   0.175
 5156TIP3    H115411   2.905   1.400   0.239
 5156TIP3    H215412   3.037   1.359   0.178
 5157TIP3   OH215413   1.310   6.286   2.727
 5157TIP3    H115414   1.334   6.264   2.817
 5157TIP3    H215415   1.380   6.249   2.673
 5158TIP3   OH215416   1.619   7.323   5.951
 5158TIP3    H115417   1.708   7.355   5.964
 5158TIP3    H215418   1.623   7.231   5.977
 5159TIP3   OH215419   7.646   0.360   2.510
 5159TIP3    H115420   7.726   0.412   2.499
 5159TIP3    H215421   7.668   0.296   2.578
 5160TIP3   OH215422   7.514   2.938   5.791
 5160TIP3    H115423   7.460   2.900   5.861
 5160TIP3    H215424   7.604   2.921   5.818
 5161TIP3   OH215425   2.885   4.918   3.420
 5161TIP3    H115426   2.836   4.975   3.480
 5161TIP3    H215427   2.818   4.882   3.362
 5162TIP3   OH215428   1.307   6.114   5.377
 5162TIP3    H115429   1.243   6.125   5.307
 5162TIP3    H215430   1.258   6.130   5.457
 5163TIP3   OH215431   5.529   0.108   4.799
 5163TIP3    H115432   5.595   0.039   4.813
 5163TIP3    H215433   5.570   0.167   4.736
 5164TIP3   OH215434   6.654   3.154   1.381
 5164TIP3    H115435   6.627   3.087   1.318
 5164TIP3    H215436   6.747   3.170   1.361
 5165TIP3   OH215437   4.921   3.304   6.184
 5165TIP3    H115438   4.834   3.317   6.221
 5165TIP3    H215439   4.951   3.392   6.162
 5166TIP3   OH215440   1.341   2.375   4.240
 5166TIP3    H115441   1.340   2.315   4.166
 5166TIP3    H215442   1.356   2.318   4.316
 5167TIP3   OH215443   1.451   6.634   0.866
 5167TIP3    H115444   1.361   6.667   0.854
 5167TIP3    H215445   1.459   6.622   0.960
 5168TIP3   OH215446   8.274   6.078   4.103
 5168TIP3    H115447   8.206   6.021   4.139
 5168TIP3    H215448   8.275   6.153   4.163
 5169TIP3   OH215449   4.740   0.230   2.126
 5169TIP3    H115450   4.729   0.148   2.078
 5169TIP3    H215451   4.829   0.259   2.103
 5170TIP3   OH215452   6.377   7.284   3.784
 5170TIP3    H115453   6.464   7.243   3.787
 5170TIP3    H215454   6.348   7.270   3.694
 5171TIP3   OH215455   2.604   2.022   3.976
 5171TIP3    H115456   2.695   1.995   3.968
 5171TIP3    H215457   2.573   2.030   3.886
 5172TIP3   OH215458   1.364   2.317   6.115
 5172TIP3    H115459   1.368   2.299   6.209
 5172TIP3    H215460   1.417   2.249   6.075
 5173TIP3   OH215461   7.711   6.795   2.280
 5173TIP3    H115462   7.687   6.782   2.188
 5173TIP3    H215463   7.777   6.728   2.297
 5174TIP3   OH215464   3.512   2.597   6.480
 5174TIP3    H115465   3.606   2.594   6.461
 5174TIP3    H215466   3.484   2.682   6.446
 5175TIP3   OH215467   2.248   5.579   6.147
 5175TIP3    H115468   2.267   5.670   6.170
 5175TIP3    H215469   2.334   5.538   6.136
 5176TIP3   OH215470   5.690   1.546   0.057
 5176TIP3    H115471   5.644   1.490  -0.006
 5176TIP3    H215472   5.628   1.616   0.076
 5177TIP3   OH215473   3.708   5.143   4.779
 5177TIP3    H115474   3.743   5.232   4.780
 5177TIP3    H215475   3.783   5.087   4.758
 5178TIP3   OH215476   0.706   5.200   1.261
 5178TIP3    H115477   0.764   5.152   1.203
 5178TIP3    H215478   0.651   5.253   1.203
 5179TIP3   OH215479   2.986   3.152   6.562
 5179TIP3    H115480   3.077   3.131   6.543
 5179TIP3    H215481   2.947   3.069   6.592
 5180TIP3   OH215482   7.506   2.218   2.549
 5180TIP3    H115483   7.427   2.260   2.585
 5180TIP3    H215484   7.547   2.285   2.496
 5181TIP3   OH215485   7.120   6.149   3.860
 5181TIP3    H115486   7.105   6.237   3.825
 5181TIP3    H215487   7.215   6.138   3.856
 5182TIP3   OH215488   7.201   4.461   2.893
 5182TIP3    H115489   7.160   4.548   2.891
 5182TIP3    H215490   7.129   4.400   2.879
 5183TIP3   OH215491   2.088   3.547   2.911
 5183TIP3    H115492   2.044   3.467   2.882
 5183TIP3    H215493   2.045   3.617   2.860
 5184TIP3   OH215494   1.889   7.228  -0.008
 5184TIP3    H115495   1.932   7.314  -0.006
 5184TIP3    H215496   1.912   7.188   0.076
 5185TIP3   OH215497   3.607   2.030   4.095
 5185TIP3    H115498   3.552   2.064   4.024
 5185TIP3    H215499   3.681   1.989   4.050
 5186TIP3   OH215500   5.058   7.157   3.456
 5186TIP3    H115501   5.045   7.235   3.402
 5186TIP3    H215502   5.143   7.170   3.497
 5187TIP3   OH215503   7.150   5.892   6.088
 5187TIP3    H115504   7.107   5.868   6.170
 5187TIP3    H215505   7.120   5.982   6.071
 5188TIP3   OH215506   6.437   0.214   3.752
 5188TIP3    H115507   6.413   0.173   3.669
 5188TIP3    H215508   6.353   0.231   3.795
 5189TIP3   OH215509   7.889   3.122   2.070
 5189TIP3    H115510   7.865   3.113   1.978
 5189TIP3    H215511   7.977   3.085   2.076
 5190TIP3   OH215512   0.274   5.381   1.823
 5190TIP3    H115513   0.328   5.396   1.746
 5190TIP3    H215514   0.262   5.286   1.826
 5191TIP3   OH215515   0.916   6.606   5.084
 5191TIP3    H115516   0.961   6.673   5.032
 5191TIP3    H215517   0.958   6.610   5.170
 5192TIP3   OH215518   2.100   2.054   3.364
 5192TIP3    H115519   2.041   2.126   3.342
 5192TIP3    H215520   2.188   2.090   3.349
 5193TIP3   OH215521   1.932   5.311   1.018
 5193TIP3    H115522   1.878   5.254   1.073
 5193TIP3    H215523   1.961   5.381   1.077
 5194TIP3   OH215524   3.001   3.035   2.219
 5194TIP3    H115525   3.001   3.056   2.125
 5194TIP3    H215526   3.020   3.119   2.262
 5195TIP3   OH215527   3.495   6.482   2.027
 5195TIP3    H115528   3.500   6.411   1.964
 5195TIP3    H215529   3.462   6.442   2.107
 5196TIP3   OH215530   7.833   3.424   0.632
 5196TIP3    H115531   7.926   3.426   0.653
 5196TIP3    H215532   7.789   3.432   0.717
 5197TIP3   OH215533   6.266   6.393   1.027
 5197TIP3    H115534   6.224   6.315   0.990
 5197TIP3    H215535   6.356   6.366   1.046
 5198TIP3   OH215536   5.792   5.229   0.567
 5198TIP3    H115537   5.794   5.145   0.614
 5198TIP3    H215538   5.862   5.222   0.502
 5199TIP3   OH215539   3.050   1.216   1.113
 5199TIP3    H115540   3.006   1.293   1.075
 5199TIP3    H215541   3.125   1.252   1.159
 5200TIP3   OH215542   6.558   5.178   3.083
 5200TIP3    H115543   6.584   5.112   3.019
 5200TIP3    H215544   6.641   5.219   3.110
 5201TIP3   OH215545   6.552   6.511   3.814
 5201TIP3    H115546   6.487   6.441   3.807
 5201TIP3    H215547   6.518   6.569   3.882
 5202TIP3   OH215548   7.162   7.325   1.335
 5202TIP3    H115549   7.070   7.314   1.360
 5202TIP3    H215550   7.201   7.372   1.409
 5203TIP3   OH215551   1.737   1.354   5.461
 5203TIP3    H115552   1.784   1.435   5.480
 5203TIP3    H215553   1.710   1.322   5.547
 5204TIP3   OH215554   5.824   5.250   3.826
 5204TIP3    H115555   5.754   5.191   3.854
 5204TIP3    H215556   5.886   5.251   3.899
 5205TIP3   OH215557   8.138   2.445   1.253
 5205TIP3    H115558   8.187   2.527   1.245
 5205TIP3    H215559   8.201   2.383   1.288
 5206TIP3   OH215560   5.836   3.922   2.445
 5206TIP3    H115561   5.748   3.958   2.439
 5206TIP3    H215562   5.844   3.867   2.367
 5207TIP3   OH215563   0.617   5.749   1.619
 5207TIP3    H115564   0.620   5.845   1.616
 5207TIP3    H215565   0.653   5.727   1.705
 5208TIP3   OH215566   0.052   1.665   4.890
 5208TIP3    H115567   0.011   1.752   4.892
 5208TIP3    H215568   0.141   1.682   4.861
 5209TIP3   OH215569   1.112   0.912   0.636
 5209TIP3    H115570   1.049   0.951   0.575
 5209TIP3    H215571   1.103   0.963   0.716
 5210TIP3   OH215572   4.365   5.549   4.964
 5210TIP3    H115573   4.330   5.632   4.931
 5210TIP3    H215574   4.327   5.540   5.051
 5211TIP3   OH215575   5.275   6.395   0.500
 5211TIP3    H115576   5.195   6.364   0.457
 5211TIP3    H215577   5.339   6.402   0.429
 5212TIP3   OH215578   6.688   5.981   5.625
 5212TIP3    H115579   6.710   5.899   5.580
 5212TIP3    H215580   6.650   5.953   5.708
 5213TIP3   OH215581   3.317   3.031   3.874
 5213TIP3    H115582   3.364   3.027   3.791
 5213TIP3    H215583   3.316   2.940   3.905
 5214TIP3   OH215584   1.196   5.293   2.934
 5214TIP3    H115585   1.182   5.270   2.842
 5214TIP3    H215586   1.252   5.370   2.932
 5215TIP3   OH215587   6.079   3.677   5.775
 5215TIP3    H115588   6.104   3.667   5.867
 5215TIP3    H215589   6.058   3.588   5.746
 5216TIP3   OH215590   3.959   5.344   2.823
 5216TIP3    H115591   4.033   5.354   2.884
 5216TIP3    H215592   3.932   5.434   2.804
 5217TIP3   OH215593   0.403   1.702   4.331
 5217TIP3    H115594   0.462   1.749   4.390
 5217TIP3    H215595   0.338   1.767   4.306
 5218TIP3   OH215596   4.438   6.043   2.483
 5218TIP3    H115597   4.435   5.970   2.544
 5218TIP3    H215598   4.405   6.118   2.533
 5219TIP3   OH215599   1.426   5.217   3.117
 5219TIP3    H115600   1.350   5.242   3.064
 5219TIP3    H215601   1.394   5.148   3.174
 5220TIP3   OH215602   1.027   7.257   2.001
 5220TIP3    H115603   1.029   7.211   1.917
 5220TIP3    H215604   1.097   7.217   2.052
 5221TIP3   OH215605   5.532   4.689   2.175
 5221TIP3    H115606   5.448   4.680   2.129
 5221TIP3    H215607   5.548   4.784   2.176
 5222TIP3   OH215608   7.011   4.240   3.913
 5222TIP3    H115609   7.006   4.324   3.867
 5222TIP3    H215610   6.921   4.207   3.913
 5223TIP3   OH215611   7.219   5.393   0.087
 5223TIP3    H115612   7.163   5.435   0.021
 5223TIP3    H215613   7.185   5.304   0.095
 5224TIP3   OH215614   2.784   3.555   3.977
 5224TIP3    H115615   2.728   3.516   3.910
 5224TIP3    H215616   2.871   3.520   3.960
 5225TIP3   OH215617   3.296   7.632   6.489
 5225TIP3    H115618   3.318   7.587   6.408
 5225TIP3    H215619   3.276   7.562   6.551
 5226TIP3   OH215620   5.126   6.846   2.432
 5226TIP3    H115621   5.033   6.848   2.410
 5226TIP3    H215622   5.130   6.878   2.523
 5227TIP3   OH215623   4.165   1.662   5.151
 5227TIP3    H115624   4.162   1.723   5.077
 5227TIP3    H215625   4.211   1.710   5.220
 5228TIP3   OH215626   4.002   1.823   1.213
 5228TIP3    H115627   4.041   1.789   1.293
 5228TIP3    H215628   4.076   1.835   1.153
 5229TIP3   OH215629   5.039   1.636   4.667
 5229TIP3    H115630   5.106   1.568   4.656
 5229TIP3    H215631   5.069   1.708   4.611
 5230TIP3   OH215632   3.963   0.321   1.896
 5230TIP3    H115633   3.951   0.412   1.923
 5230TIP3    H215634   3.875   0.287   1.884
 5231TIP3   OH215635   0.531   6.303   0.572
 5231TIP3    H115636   0.553   6.396   0.566
 5231TIP3    H215637   0.445   6.302   0.615
 5232TIP3   OH215638   7.745   3.562   5.933
 5232TIP3    H115639   7.770   3.532   6.021
 5232TIP3    H215640   7.827   3.560   5.883
 5233TIP3   OH215641   3.585   6.088   6.465
 5233TIP3    H115642   3.545   6.140   6.534
 5233TIP3    H215643   3.546   6.001   6.475
 5234TIP3   OH215644   7.511   4.861   1.164
 5234TIP3    H115645   7.525   4.846   1.070
 5234TIP3    H215646   7.544   4.781   1.206
 5235TIP3   OH215647   3.437   0.695   6.548
 5235TIP3    H115648   3.489   0.691   6.467
 5235TIP3    H215649   3.356   0.740   6.522
 5236TIP3   OH215650   0.737   2.045   0.480
 5236TIP3    H115651   0.724   2.109   0.551
 5236TIP3    H215652   0.658   2.052   0.427
 5237TIP3   OH215653   2.098   4.290   4.790
 5237TIP3    H115654   2.094   4.262   4.699
 5237TIP3    H215655   2.163   4.360   4.791
 5238TIP3   OH215656   3.784   4.176   5.633
 5238TIP3    H115657   3.805   4.262   5.668
 5238TIP3    H215658   3.688   4.172   5.637
 5239TIP3   OH215659   3.882   4.908   5.572
 5239TIP3    H115660   3.921   4.992   5.546
 5239TIP3    H215661   3.788   4.924   5.576
 5240TIP3   OH215662   7.023   7.469   5.403
 5240TIP3    H115663   7.112   7.441   5.422
 5240TIP3    H215664   6.994   7.410   5.334
 5241TIP3   OH215665   6.193   6.424   5.117
 5241TIP3    H115666   6.137   6.354   5.083
 5241TIP3    H215667   6.223   6.470   5.038
 5242TIP3   OH215668   5.893   1.781   2.302
 5242TIP3    H115669   5.908   1.870   2.270
 5242TIP3    H215670   5.883   1.728   2.223
 5243TIP3   OH215671   2.362   5.225   3.540
 5243TIP3    H115672   2.295   5.185   3.485
 5243TIP3    H215673   2.385   5.306   3.495
 5244TIP3   OH215674   5.232   7.375   6.400
 5244TIP3    H115675   5.164   7.433   6.368
 5244TIP3    H215676   5.210   7.361   6.492
 5245TIP3   OH215677   2.414   3.825   1.210
 5245TIP3    H115678   2.418   3.807   1.304
 5245TIP3    H215679   2.446   3.915   1.202
 5246TIP3   OH215680   2.135   6.189   5.131
 5246TIP3    H115681   2.090   6.254   5.186
 5246TIP3    H215682   2.145   6.233   5.047
 5247TIP3   OH215683   1.837   1.691   1.360
 5247TIP3    H115684   1.831   1.785   1.343
 5247TIP3    H215685   1.818   1.651   1.275
 5248TIP3   OH215686   3.744   6.781   3.502
 5248TIP3    H115687   3.763   6.874   3.489
 5248TIP3    H215688   3.816   6.749   3.555
 5249TIP3   OH215689   1.664   1.890   4.037
 5249TIP3    H115690   1.717   1.930   3.968
 5249TIP3    H215691   1.584   1.863   3.994
 5250TIP3   OH215692   5.193   1.569   2.295
 5250TIP3    H115693   5.285   1.540   2.292
 5250TIP3    H215694   5.143   1.488   2.301
 5251TIP3   OH215695   0.438   7.523   1.346
 5251TIP3    H115696   0.376   7.514   1.418
 5251TIP3    H215697   0.474   7.435   1.334
 5252TIP3   OH215698   2.258   2.950   5.187
 5252TIP3    H115699   2.337   2.998   5.162
 5252TIP3    H215700   2.190   3.016   5.195
 5253TIP3   OH215701   5.155   0.101   4.509
 5253TIP3    H115702   5.239   0.056   4.504
 5253TIP3    H215703   5.176   0.188   4.543
 5254TIP3   OH215704   5.671   5.888   5.712
 5254TIP3    H115705   5.712   5.900   5.798
 5254TIP3    H215706   5.745   5.877   5.652
 5255TIP3   OH215707   5.756   7.611   2.315
 5255TIP3    H115708   5.842   7.570   2.311
 5255TIP3    H215709   5.771   7.693   2.362
 5256TIP3   OH215710   1.137   2.714   3.514
 5256TIP3    H115711   1.189   2.674   3.444
 5256TIP3    H215712   1.050   2.675   3.505
 5257TIP3   OH215713   4.942   2.268   6.427
 5257TIP3    H115714   4.978   2.179   6.419
 5257TIP3    H215715   4.969   2.312   6.346
 5258TIP3   OH215716   7.454   7.212   3.231
 5258TIP3    H115717   7.508   7.158   3.174
 5258TIP3    H215718   7.419   7.280   3.173
 5259TIP3   OH215719   3.914   0.970   5.729
 5259TIP3    H115720   3.820   0.972   5.710
 5259TIP3    H215721   3.933   1.058   5.762
 5260TIP3   OH215722   0.214   5.671   0.718
 5260TIP3    H115723   0.128   5.709   0.702
 5260TIP3    H215724   0.197   5.577   0.725
 5261TIP3   OH215725   7.748   6.427   0.071
 5261TIP3    H115726   7.686   6.355   0.059
 5261TIP3    H215727   7.710   6.500   0.023
 5262TIP3   OH215728   7.383   1.696   5.240
 5262TIP3    H115729   7.334   1.633   5.186
 5262TIP3    H215730   7.322   1.721   5.309
 5263TIP3   OH215731   4.464   1.648   5.976
 5263TIP3    H115732   4.473   1.742   5.988
 5263TIP3    H215733   4.522   1.610   6.042
 5264TIP3   OH215734   0.162   5.335   3.449
 5264TIP3    H115735   0.231   5.298   3.394
 5264TIP3    H215736   0.111   5.390   3.389
 5265TIP3   OH215737   4.344   0.673   5.385
 5265TIP3    H115738   4.248   0.674   5.385
 5265TIP3    H215739   4.368   0.733   5.456
 5266TIP3   OH215740   7.881   5.934   1.447
 5266TIP3    H115741   7.973   5.907   1.440
 5266TIP3    H215742   7.843   5.871   1.509
 5267TIP3   OH215743   0.352   7.639   5.455
 5267TIP3    H115744   0.354   7.543   5.458
 5267TIP3    H215745   0.382   7.660   5.366
 5268TIP3   OH215746   6.540   5.317   0.476
 5268TIP3    H115747   6.592   5.340   0.399
 5268TIP3    H215748   6.591   5.249   0.520
 5269TIP3   OH215749   4.539   7.349   0.258
 5269TIP3    H115750   4.528   7.429   0.205
 5269TIP3    H215751   4.460   7.344   0.311
 5270TIP3   OH215752   0.436   2.848   2.029
 5270TIP3    H115753   0.378   2.832   1.954
 5270TIP3    H215754   0.401   2.927   2.071
 5271TIP3   OH215755   2.330   6.605   5.676
 5271TIP3    H115756   2.424   6.621   5.664
 5271TIP3    H215757   2.314   6.522   5.631
 5272TIP3   OH215758   5.027   1.154   3.658
 5272TIP3    H115759   5.076   1.227   3.621
 5272TIP3    H215760   5.036   1.083   3.594
 5273TIP3   OH215761   1.720   1.748   0.267
 5273TIP3    H115762   1.786   1.773   0.201
 5273TIP3    H215763   1.771   1.726   0.344
 5274TIP3   OH215764   4.214   0.064   4.368
 5274TIP3    H115765   4.261   0.083   4.287
 5274TIP3    H215766   4.243   0.132   4.429
 5275TIP3   OH215767   6.240   6.673   0.935
 5275TIP3    H115768   6.242   6.602   0.999
 5275TIP3    H215769   6.318   6.725   0.954
 5276TIP3   OH215770   1.141   4.649   1.968
 5276TIP3    H115771   1.129   4.668   1.875
 5276TIP3    H215772   1.082   4.709   2.013
 5277TIP3   OH215773   6.692   7.467   5.538
 5277TIP3    H115774   6.741   7.550   5.545
 5277TIP3    H215775   6.665   7.464   5.446
 5278TIP3   OH215776   4.627   4.350   1.600
 5278TIP3    H115777   4.618   4.378   1.509
 5278TIP3    H215778   4.576   4.269   1.604
 5279TIP3   OH215779   2.407   6.780   6.234
 5279TIP3    H115780   2.341   6.775   6.304
 5279TIP3    H215781   2.476   6.835   6.271
 5280TIP3   OH215782   4.657   2.369   1.508
 5280TIP3    H115783   4.607   2.320   1.442
 5280TIP3    H215784   4.591   2.422   1.553
 5281TIP3   OH215785   1.578   7.359   1.857
 5281TIP3    H115786   1.567   7.376   1.764
 5281TIP3    H215787   1.648   7.294   1.862
 5282TIP3   OH215788   3.744   2.176   0.152
 5282TIP3    H115789   3.796   2.125   0.214
 5282TIP3    H215790   3.657   2.136   0.155
 5283TIP3   OH215791   5.922   2.744   2.131
 5283TIP3    H115792   5.894   2.740   2.223
 5283TIP3    H215793   5.954   2.656   2.112
 5284TIP3   OH215794   6.755   7.761   6.766
 5284TIP3    H115795   6.764   7.714   6.683
 5284TIP3    H215796   6.679   7.817   6.754
 5285TIP3   OH215797   6.368   2.078   6.165
 5285TIP3    H115798   6.349   2.014   6.234
 5285TIP3    H215799   6.380   2.160   6.211
 5286TIP3   OH215800   5.133   0.038   3.399
 5286TIP3    H115801   5.216   0.052   3.445
 5286TIP3    H215802   5.103  -0.048   3.427
 5287TIP3   OH215803   4.878   0.599   2.506
 5287TIP3    H115804   4.946   0.665   2.510
 5287TIP3    H215805   4.912   0.525   2.556
 5288TIP3   OH215806   7.031   2.387   2.663
 5288TIP3    H115807   7.033   2.335   2.583
 5288TIP3    H215808   6.958   2.447   2.652
 5289TIP3   OH215809   1.710   6.620   2.147
 5289TIP3    H115810   1.684   6.638   2.237
 5289TIP3    H215811   1.631   6.583   2.107
 5290TIP3   OH215812   0.207   2.926   1.265
 5290TIP3    H115813   0.119   2.934   1.229
 5290TIP3    H215814   0.240   3.015   1.268
 5291TIP3   OH215815   3.918   2.608   3.545
 5291TIP3    H115816   3.860   2.561   3.486
 5291TIP3    H215817   3.878   2.694   3.557
 5292TIP3   OH215818   3.281   6.752   5.829
 5292TIP3    H115819   3.317   6.839   5.846
 5292TIP3    H215820   3.358   6.698   5.808
 5293TIP3   OH215821   7.524   1.233   0.878
 5293TIP3    H115822   7.445   1.210   0.927
 5293TIP3    H215823   7.596   1.202   0.933
 5294TIP3   OH215824   1.809   1.901   4.432
 5294TIP3    H115825   1.730   1.919   4.381
 5294TIP3    H215826   1.873   1.870   4.368
 5295TIP3   OH215827   5.472   2.756   0.534
 5295TIP3    H115828   5.510   2.674   0.502
 5295TIP3    H215829   5.521   2.824   0.488
 5296TIP3   OH215830   1.471   0.718   6.448
 5296TIP3    H115831   1.493   0.797   6.399
 5296TIP3    H215832   1.543   0.706   6.509
 5297TIP3   OH215833   8.241   2.110   1.296
 5297TIP3    H115834   8.197   2.063   1.367
 5297TIP3    H215835   8.291   2.179   1.340
 5298TIP3   OH215836   7.638   3.790   4.371
 5298TIP3    H115837   7.727   3.757   4.358
 5298TIP3    H215838   7.622   3.847   4.296
 5299TIP3   OH215839   2.641   7.493   3.752
 5299TIP3    H115840   2.705   7.559   3.780
 5299TIP3    H215841   2.591   7.474   3.831
 5300TIP3   OH215842   7.464   5.940   6.011
 5300TIP3    H115843   7.462   5.847   5.989
 5300TIP3    H215844   7.455   5.942   6.106
 5301TIP3   OH215845   5.035   6.996   1.391
 5301TIP3    H115846   5.117   6.967   1.351
 5301TIP3    H215847   5.057   7.011   1.483
 5302TIP3   OH215848   8.139   3.541   5.224
 5302TIP3    H115849   8.200   3.606   5.259
 5302TIP3    H215850   8.183   3.506   5.147
 5303TIP3   OH215851   3.484   5.920   1.403
 5303TIP3    H115852   3.537   5.972   1.342
 5303TIP3    H215853   3.448   5.849   1.348
 5304TIP3   OH215854   8.163   5.194   5.866
 5304TIP3    H115855   8.239   5.205   5.922
 5304TIP3    H215856   8.140   5.101   5.875
 5305TIP3   OH215857   5.674   4.392   3.630
 5305TIP3    H115858   5.749   4.386   3.570
 5305TIP3    H215859   5.605   4.433   3.578
 5306TIP3   OH215860   6.307   4.445   6.558
 5306TIP3    H115861   6.270   4.386   6.492
 5306TIP3    H215862   6.231   4.491   6.594
 5307TIP3   OH215863   1.558   5.129   3.722
 5307TIP3    H115864   1.575   5.051   3.776
 5307TIP3    H215865   1.501   5.184   3.777
 5308TIP3   OH215866   0.555   2.942   2.295
 5308TIP3    H115867   0.625   3.006   2.284
 5308TIP3    H215868   0.474   2.994   2.290
 5309TIP3   OH215869   2.257   0.836   3.978
 5309TIP3    H115870   2.294   0.808   3.894
 5309TIP3    H215871   2.204   0.914   3.956
 5310TIP3   OH215872   1.389   0.442   4.936
 5310TIP3    H115873   1.417   0.405   5.020
 5310TIP3    H215874   1.302   0.478   4.953
 5311TIP3   OH215875   6.497   0.355   3.067
 5311TIP3    H115876   6.582   0.325   3.098
 5311TIP3    H215877   6.483   0.308   2.985
 5312TIP3   OH215878   5.574   5.000   4.938
 5312TIP3    H115879   5.609   5.089   4.942
 5312TIP3    H215880   5.569   4.979   4.845
 5313TIP3   OH215881   3.671   2.820   1.097
 5313TIP3    H115882   3.732   2.817   1.023
 5313TIP3    H215883   3.696   2.745   1.151
 5314TIP3   OH215884   5.561   7.021   2.033
 5314TIP3    H115885   5.573   6.931   2.064
 5314TIP3    H215886   5.649   7.058   2.034
 5315TIP3   OH215887   3.256   4.720   2.826
 5315TIP3    H115888   3.237   4.712   2.732
 5315TIP3    H215889   3.350   4.740   2.830
 5316TIP3   OH215890   7.434   0.443   2.134
 5316TIP3    H115891   7.461   0.390   2.208
 5316TIP3    H215892   7.408   0.380   2.067
 5317TIP3   OH215893   3.987   6.533   3.898
 5317TIP3    H115894   3.971   6.465   3.832
 5317TIP3    H215895   3.928   6.604   3.873
 5318TIP3   OH215896   7.390   2.355   6.150
 5318TIP3    H115897   7.476   2.316   6.139
 5318TIP3    H215898   7.330   2.281   6.154
 5319TIP3   OH215899   2.072   3.737   4.565
 5319TIP3    H115900   2.023   3.720   4.484
 5319TIP3    H215901   2.150   3.784   4.537
 5320TIP3   OH215902   0.670   7.021   3.072
 5320TIP3    H115903   0.699   6.977   3.152
 5320TIP3    H215904   0.680   7.114   3.091
 5321TIP3   OH215905   2.355   1.000   5.726
 5321TIP3    H115906   2.305   1.049   5.791
 5321TIP3    H215907   2.325   1.034   5.641
 5322TIP3   OH215908   8.241   6.219   0.011
 5322TIP3    H115909   8.176   6.154  -0.016
 5322TIP3    H215910   8.192   6.302   0.013
 5323TIP3   OH215911   1.619   2.432   2.360
 5323TIP3    H115912   1.601   2.388   2.277
 5323TIP3    H215913   1.621   2.362   2.425
 5324TIP3   OH215914   4.038   5.055   6.567
 5324TIP3    H115915   3.990   4.975   6.592
 5324TIP3    H215916   4.071   5.036   6.479
 5325TIP3   OH215917   0.703   6.439   4.582
 5325TIP3    H115918   0.633   6.465   4.522
 5325TIP3    H215919   0.754   6.519   4.595
 5326TIP3   OH215920   2.263   5.454   4.492
 5326TIP3    H115921   2.314   5.472   4.413
 5326TIP3    H215922   2.255   5.359   4.495
 5327TIP3   OH215923   4.374   6.633   1.950
 5327TIP3    H115924   4.406   6.550   1.986
 5327TIP3    H215925   4.365   6.690   2.026
 5328TIP3   OH215926   2.020   2.235   1.742
 5328TIP3    H115927   2.048   2.280   1.662
 5328TIP3    H215928   2.073   2.275   1.811
 5329TIP3   OH215929   2.396   6.671   3.506
 5329TIP3    H115930   2.354   6.586   3.516
 5329TIP3    H215931   2.394   6.710   3.593
 5330TIP3   OH215932   0.235   3.451   1.559
 5330TIP3    H115933   0.274   3.436   1.645
 5330TIP3    H215934   0.232   3.546   1.550
 5331TIP3   OH215935   3.304   7.020   5.907
 5331TIP3    H115936   3.224   7.062   5.938
 5331TIP3    H215937   3.351   7.089   5.860
 5332TIP3   OH215938   2.565   6.360   4.021
 5332TIP3    H115939   2.655   6.389   4.039
 5332TIP3    H215940   2.510   6.411   4.080
 5333TIP3   OH215941   3.846   4.638   6.076
 5333TIP3    H115942   3.915   4.692   6.039
 5333TIP3    H215943   3.772   4.698   6.089
 5334TIP3   OH215944   0.647   4.367   5.209
 5334TIP3    H115945   0.572   4.366   5.268
 5334TIP3    H215946   0.609   4.356   5.122
 5335TIP3   OH215947   5.752   5.293   5.451
 5335TIP3    H115948   5.777   5.255   5.366
 5335TIP3    H215949   5.804   5.244   5.515
 5336TIP3   OH215950   2.050   2.794   1.086
 5336TIP3    H115951   2.078   2.849   1.160
 5336TIP3    H215952   2.060   2.851   1.010
 5337TIP3   OH215953   0.309   5.679   2.841
 5337TIP3    H115954   0.377   5.744   2.826
 5337TIP3    H215955   0.313   5.622   2.764
 5338TIP3   OH215956   4.614   2.644   2.928
 5338TIP3    H115957   4.701   2.664   2.962
 5338TIP3    H215958   4.555   2.700   2.980
 5339TIP3   OH215959   4.441   5.374   3.112
 5339TIP3    H115960   4.488   5.391   3.030
 5339TIP3    H215961   4.348   5.383   3.088
 5340TIP3   OH215962   3.632   0.398   0.413
 5340TIP3    H115963   3.557   0.447   0.379
 5340TIP3    H215964   3.597   0.311   0.432
 5341TIP3   OH215965   1.809   1.531   4.361
 5341TIP3    H115966   1.819   1.473   4.436
 5341TIP3    H215967   1.888   1.585   4.362
 5342TIP3   OH215968   4.301   6.545   3.314
 5342TIP3    H115969   4.248   6.556   3.235
 5342TIP3    H215970   4.320   6.451   3.317
 5343TIP3   OH215971   7.425   3.789   3.614
 5343TIP3    H115972   7.489   3.803   3.544
 5343TIP3    H215973   7.360   3.858   3.601
 5344TIP3   OH215974   2.652   3.951   5.140
 5344TIP3    H115975   2.662   3.966   5.046
 5344TIP3    H215976   2.741   3.953   5.174
 5345TIP3   OH215977   6.558   1.023   5.642
 5345TIP3    H115978   6.577   0.981   5.726
 5345TIP3    H215979   6.620   1.095   5.636
 5346TIP3   OH215980   3.252   3.380   0.787
 5346TIP3    H115981   3.346   3.390   0.775
 5346TIP3    H215982   3.225   3.459   0.836
 5347TIP3   OH215983   5.933   2.562   4.183
 5347TIP3    H115984   5.859   2.617   4.207
 5347TIP3    H215985   6.003   2.624   4.163
 5348TIP3   OH215986   2.959   2.970   0.231
 5348TIP3    H115987   2.949   3.063   0.211
 5348TIP3    H215988   2.869   2.938   0.239
 5349TIP3   OH215989   3.502   1.844   3.389
 5349TIP3    H115990   3.509   1.837   3.484
 5349TIP3    H215991   3.537   1.931   3.369
 5350TIP3   OH215992   0.960   0.492   5.041
 5350TIP3    H115993   0.889   0.428   5.042
 5350TIP3    H215994   0.923   0.569   5.083
 5351TIP3   OH215995   0.057   0.359   2.969
 5351TIP3    H115996   0.043   0.264   2.964
 5351TIP3    H215997  -0.004   0.395   2.905
 5352TIP3   OH215998   6.771   1.059   0.736
 5352TIP3    H115999   6.735   1.146   0.751
 5352TIP3    H216000   6.730   1.003   0.802
 5353TIP3   OH216001   4.771   4.489   1.811
 5353TIP3    H116002   4.758   4.439   1.731
 5353TIP3    H216003   4.703   4.555   1.810
 5354TIP3   OH216004   6.310   7.652   6.031
 5354TIP3    H116005   6.220   7.674   6.055
 5354TIP3    H216006   6.303   7.571   5.981
 5355TIP3   OH216007   2.675   3.178   4.549
 5355TIP3    H116008   2.745   3.127   4.588
 5355TIP3    H216009   2.609   3.185   4.618
 5356TIP3   OH216010   4.981   3.141   6.474
 5356TIP3    H116011   4.887   3.127   6.463
 5356TIP3    H216012   4.988   3.190   6.556
 5357TIP3   OH216013   4.549   6.541   6.627
 5357TIP3    H116014   4.611   6.477   6.590
 5357TIP3    H216015   4.469   6.491   6.641
 5358TIP3   OH216016   2.573   7.326   2.550
 5358TIP3    H116017   2.487   7.326   2.592
 5358TIP3    H216018   2.633   7.293   2.616
 5359TIP3   OH216019   4.825   7.703   4.771
 5359TIP3    H116020   4.817   7.638   4.702
 5359TIP3    H216021   4.841   7.652   4.850
 5360TIP3   OH216022   2.264   0.006   2.464
 5360TIP3    H116023   2.357   0.026   2.468
 5360TIP3    H216024   2.255  -0.054   2.390
 5361TIP3   OH216025   6.428   2.573   1.956
 5361TIP3    H116026   6.362   2.609   1.897
 5361TIP3    H216027   6.511   2.594   1.914
 5362TIP3   OH216028   6.539   4.332   5.191
 5362TIP3    H116029   6.493   4.252   5.216
 5362TIP3    H216030   6.497   4.358   5.109
 5363TIP3   OH216031   4.288   3.818   3.544
 5363TIP3    H116032   4.295   3.748   3.479
 5363TIP3    H216033   4.377   3.851   3.553
 5364TIP3   OH216034   5.075   0.949   3.227
 5364TIP3    H116035   5.078   1.043   3.242
 5364TIP3    H216036   5.006   0.937   3.162
 5365TIP3   OH216037   6.244   5.948   0.610
 5365TIP3    H116038   6.314   6.008   0.585
 5365TIP3    H216039   6.207   5.985   0.690
 5366TIP3   OH216040   8.245   4.362   2.463
 5366TIP3    H116041   8.165   4.375   2.412
 5366TIP3    H216042   8.219   4.379   2.553
 5367TIP3   OH216043   0.631   1.654   0.677
 5367TIP3    H116044   0.647   1.679   0.768
 5367TIP3    H216045   0.607   1.736   0.633
 5368TIP3   OH216046   0.284   7.765   3.818
 5368TIP3    H116047   0.212   7.763   3.882
 5368TIP3    H216048   0.249   7.815   3.745
 5369TIP3   OH216049   5.903   6.586   1.448
 5369TIP3    H116050   5.983   6.623   1.485
 5369TIP3    H216051   5.934   6.527   1.379
 5370TIP3   OH216052   2.770   1.430   1.427
 5370TIP3    H116053   2.769   1.348   1.379
 5370TIP3    H216054   2.855   1.468   1.409
 5371TIP3   OH216055   5.746   5.229   3.162
 5371TIP3    H116056   5.834   5.264   3.174
 5371TIP3    H216057   5.702   5.294   3.107
 5372TIP3   OH216058   3.557   0.218   6.015
 5372TIP3    H116059   3.483   0.277   6.028
 5372TIP3    H216060   3.567   0.212   5.920
 5373TIP3   OH216061   0.697   1.512   3.614
 5373TIP3    H116062   0.762   1.576   3.642
 5373TIP3    H216063   0.706   1.507   3.519
 5374TIP3   OH216064   2.199   3.100   3.428
 5374TIP3    H116065   2.111   3.107   3.465
 5374TIP3    H216066   2.226   3.190   3.411
 5375TIP3   OH216067   5.792   7.349   4.639
 5375TIP3    H116068   5.718   7.320   4.587
 5375TIP3    H216069   5.850   7.392   4.576
 5376TIP3   OH216070   7.189   2.083   4.096
 5376TIP3    H116071   7.266   2.035   4.066
 5376TIP3    H216072   7.190   2.074   4.191
 5377TIP3   OH216073   0.184   5.068   4.169
 5377TIP3    H116074   0.175   4.991   4.112
 5377TIP3    H216075   0.209   5.139   4.110
 5378TIP3   OH216076   3.879   2.687   6.762
 5378TIP3    H116077   3.918   2.630   6.696
 5378TIP3    H216078   3.830   2.752   6.712
 5379TIP3   OH216079   6.802   6.038   0.459
 5379TIP3    H116080   6.738   5.972   0.433
 5379TIP3    H216081   6.825   6.083   0.377
 5380TIP3   OH216082   6.927   2.836   3.424
 5380TIP3    H116083   6.882   2.909   3.381
 5380TIP3    H216084   7.018   2.843   3.393
 5381TIP3   OH216085   1.775   7.404   0.755
 5381TIP3    H116086   1.849   7.373   0.704
 5381TIP3    H216087   1.704   7.345   0.734
 5382TIP3   OH216088   2.176   6.483   0.879
 5382TIP3    H116089   2.177   6.564   0.829
 5382TIP3    H216090   2.129   6.505   0.959
 5383TIP3   OH216091   7.182   0.761   1.058
 5383TIP3    H116092   7.099   0.724   1.030
 5383TIP3    H216093   7.214   0.701   1.126
 5384TIP3   OH216094   3.428   4.186   5.072
 5384TIP3    H116095   3.518   4.213   5.087
 5384TIP3    H216096   3.436   4.099   5.032
 5385TIP3   OH216097   2.550   3.030   6.379
 5385TIP3    H116098   2.570   3.118   6.347
 5385TIP3    H216099   2.628   2.979   6.357
 5386TIP3   OH216100   0.467   0.728   3.401
 5386TIP3    H116101   0.533   0.700   3.339
 5386TIP3    H216102   0.430   0.807   3.363
 5387TIP3   OH216103   4.165   5.281   1.260
 5387TIP3    H116104   4.088   5.314   1.307
 5387TIP3    H216105   4.240   5.319   1.307
 5388TIP3   OH216106   1.101   5.255   4.052
 5388TIP3    H116107   1.116   5.193   3.980
 5388TIP3    H216108   1.044   5.208   4.112
 5389TIP3   OH216109   2.763   5.218   4.911
 5389TIP3    H116110   2.734   5.281   4.977
 5389TIP3    H216111   2.773   5.269   4.832
 5390TIP3   OH216112   4.230   6.707   6.327
 5390TIP3    H116113   4.144   6.704   6.369
 5390TIP3    H216114   4.231   6.631   6.270
 5391TIP3   OH216115   3.781   5.996   4.676
 5391TIP3    H116116   3.803   6.039   4.593
 5391TIP3    H216117   3.767   5.904   4.652
 5392TIP3   OH216118   4.665   4.931   0.433
 5392TIP3    H116119   4.639   5.011   0.480
 5392TIP3    H216120   4.732   4.893   0.488
 5393TIP3   OH216121   2.575   1.475   1.667
 5393TIP3    H116122   2.607   1.433   1.587
 5393TIP3    H216123   2.636   1.446   1.735
 5394TIP3   OH216124   3.102   5.635   4.519
 5394TIP3    H116125   3.059   5.609   4.601
 5394TIP3    H216126   3.082   5.728   4.510
 5395TIP3   OH216127   8.255   1.460  -0.028
 5395TIP3    H116128   8.315   1.408   0.026
 5395TIP3    H216129   8.205   1.511   0.035
 5396TIP3   OH216130   2.129   5.956   3.012
 5396TIP3    H116131   2.074   5.902   2.955
 5396TIP3    H216132   2.090   5.946   3.099
 5397TIP3   OH216133   2.035   0.872   2.274
 5397TIP3    H116134   2.053   0.783   2.244
 5397TIP3    H216135   2.122   0.909   2.293
 5398TIP3   OH216136   7.111   5.121   0.377
 5398TIP3    H116137   7.127   5.036   0.418
 5398TIP3    H216138   7.042   5.104   0.313
 5399TIP3   OH216139   0.641   2.760   5.541
 5399TIP3    H116140   0.645   2.679   5.489
 5399TIP3    H216141   0.710   2.750   5.606
 5400TIP3   OH216142   5.010   7.212   0.800
 5400TIP3    H116143   5.073   7.141   0.807
 5400TIP3    H216144   5.049   7.284   0.850
 5401TIP3   OH216145   6.168   2.714   5.048
 5401TIP3    H116146   6.115   2.714   4.968
 5401TIP3    H216147   6.238   2.777   5.030
 5402TIP3   OH216148   0.204   6.481   2.728
 5402TIP3    H116149   0.211   6.552   2.665
 5402TIP3    H216150   0.118   6.493   2.770
 5403TIP3   OH216151   7.638   2.124   1.577
 5403TIP3    H116152   7.697   2.194   1.603
 5403TIP3    H216153   7.684   2.079   1.505
 5404TIP3   OH216154   3.890   2.823   2.977
 5404TIP3    H116155   3.885   2.772   3.058
 5404TIP3    H216156   3.971   2.795   2.935
 5405TIP3   OH216157   6.724   2.018   0.755
 5405TIP3    H116158   6.779   2.079   0.707
 5405TIP3    H216159   6.784   1.972   0.814
 5406TIP3   OH216160   0.168   1.412   6.093
 5406TIP3    H116161   0.125   1.358   6.160
 5406TIP3    H216162   0.236   1.356   6.057
 5407TIP3   OH216163   5.700   2.925   2.319
 5407TIP3    H116164   5.775   2.981   2.299
 5407TIP3    H216165   5.671   2.893   2.234
 5408TIP3   OH216166   5.362   5.262   3.815
 5408TIP3    H116167   5.374   5.344   3.863
 5408TIP3    H216168   5.268   5.245   3.817
 5409TIP3   OH216169   6.620   0.507   1.598
 5409TIP3    H116170   6.556   0.459   1.650
 5409TIP3    H216171   6.699   0.454   1.602
 5410TIP3   OH216172   4.493   0.104   2.729
 5410TIP3    H116173   4.574   0.057   2.747
 5410TIP3    H216174   4.426   0.055   2.776
 5411TIP3   OH216175   6.901   4.493   2.741
 5411TIP3    H116176   6.912   4.423   2.805
 5411TIP3    H216177   6.912   4.450   2.656
 5412TIP3   OH216178   7.904   0.663   1.698
 5412TIP3    H116179   7.881   0.571   1.711
 5412TIP3    H216180   7.988   0.660   1.652
 5413TIP3   OH216181   5.313   6.892   0.964
 5413TIP3    H116182   5.275   6.876   1.050
 5413TIP3    H216183   5.401   6.856   0.970
 5414TIP3   OH216184   2.693   3.436   5.485
 5414TIP3    H116185   2.709   3.530   5.475
 5414TIP3    H216186   2.652   3.428   5.571
 5415TIP3   OH216187   0.352   3.020   0.449
 5415TIP3    H116188   0.401   3.096   0.419
 5415TIP3    H216189   0.330   2.973   0.368
 5416TIP3   OH216190   7.861   2.943   4.745
 5416TIP3    H116191   7.852   2.975   4.834
 5416TIP3    H216192   7.818   2.857   4.746
 5417TIP3   OH216193   8.000   3.007   0.927
 5417TIP3    H116194   7.981   2.925   0.972
 5417TIP3    H216195   7.950   3.001   0.845
 5418TIP3   OH216196   3.950   1.609   3.014
 5418TIP3    H116197   4.005   1.544   3.059
 5418TIP3    H216198   3.941   1.575   2.925
 5419TIP3   OH216199   3.363   0.738   4.557
 5419TIP3    H116200   3.397   0.792   4.486
 5419TIP3    H216201   3.371   0.793   4.635
 5420TIP3   OH216202   2.059   2.301   2.318
 5420TIP3    H116203   2.003   2.379   2.317
 5420TIP3    H216204   2.014   2.241   2.377
 5421TIP3   OH216205   6.579   5.719   1.266
 5421TIP3    H116206   6.484   5.707   1.270
 5421TIP3    H216207   6.613   5.631   1.249
 5422TIP3   OH216208   7.961   4.372   6.438
 5422TIP3    H116209   7.899   4.437   6.471
 5422TIP3    H216210   7.940   4.364   6.345
 5423TIP3   OH216211   5.043   6.630   5.779
 5423TIP3    H116212   5.027   6.701   5.716
 5423TIP3    H216213   5.135   6.607   5.766
 5424TIP3   OH216214   2.490   7.749   1.728
 5424TIP3    H116215   2.434   7.685   1.773
 5424TIP3    H216216   2.451   7.833   1.750
 5425TIP3   OH216217   3.745   6.612   1.926
 5425TIP3    H116218   3.686   6.579   1.994
 5425TIP3    H216219   3.798   6.537   1.900
 5426TIP3   OH216220   7.217   3.071   0.447
 5426TIP3    H116221   7.207   2.981   0.475
 5426TIP3    H216222   7.201   3.123   0.526
 5427TIP3   OH216223   4.582   5.044   3.525
 5427TIP3    H116224   4.601   5.131   3.490
 5427TIP3    H216225   4.654   5.027   3.586
 5428TIP3   OH216226   6.933   6.192   5.656
 5428TIP3    H116227   6.853   6.149   5.626
 5428TIP3    H216228   6.998   6.171   5.588
 5429TIP3   OH216229   6.325   1.869   6.349
 5429TIP3    H116230   6.261   1.873   6.420
 5429TIP3    H216231   6.300   1.792   6.297
 5430TIP3   OH216232   7.735   3.116   3.316
 5430TIP3    H116233   7.829   3.121   3.299
 5430TIP3    H216234   7.697   3.094   3.231
 5431TIP3   OH216235   0.585   4.726   6.280
 5431TIP3    H116236   0.663   4.776   6.255
 5431TIP3    H216237   0.588   4.649   6.225
 5432TIP3   OH216238   3.613   6.276   2.764
 5432TIP3    H116239   3.544   6.210   2.771
 5432TIP3    H216240   3.657   6.273   2.849
 5433TIP3   OH216241   7.335   0.042   4.208
 5433TIP3    H116242   7.370   0.013   4.292
 5433TIP3    H216243   7.401   0.102   4.174
 5434TIP3   OH216244   3.922   6.556   6.060
 5434TIP3    H116245   3.927   6.650   6.044
 5434TIP3    H216246   3.887   6.519   5.980
 5435TIP3   OH216247   4.764   7.736   1.940
 5435TIP3    H116248   4.826   7.762   1.872
 5435TIP3    H216249   4.767   7.807   2.003
 5436TIP3   OH216250   0.220   0.782   3.670
 5436TIP3    H116251   0.230   0.697   3.628
 5436TIP3    H216252   0.292   0.785   3.734
 5437TIP3   OH216253   2.881   7.723   2.739
 5437TIP3    H116254   2.892   7.808   2.697
 5437TIP3    H216255   2.971   7.696   2.761
 5438TIP3   OH216256   1.328   6.890   5.511
 5438TIP3    H116257   1.414   6.903   5.472
 5438TIP3    H216258   1.279   6.968   5.487
 5439TIP3   OH216259   2.251   3.217   0.168
 5439TIP3    H116260   2.198   3.294   0.145
 5439TIP3    H216261   2.187   3.152   0.196
 5440TIP3   OH216262   4.466   5.971   4.829
 5440TIP3    H116263   4.513   5.996   4.908
 5440TIP3    H216264   4.399   5.909   4.859
 5441TIP3   OH216265   4.341   1.918   1.742
 5441TIP3    H116266   4.384   2.003   1.727
 5441TIP3    H216267   4.248   1.937   1.730
 5442TIP3   OH216268   5.636   2.273   1.476
 5442TIP3    H116269   5.609   2.355   1.434
 5442TIP3    H216270   5.656   2.298   1.567
 5443TIP3   OH216271   1.463   6.345   3.241
 5443TIP3    H116272   1.544   6.315   3.283
 5443TIP3    H216273   1.487   6.428   3.198
 5444TIP3   OH216274   6.026   2.685   2.818
 5444TIP3    H116275   6.119   2.665   2.811
 5444TIP3    H216276   5.983   2.615   2.767
 5445TIP3   OH216277   6.180   5.269   1.374
 5445TIP3    H116278   6.116   5.263   1.445
 5445TIP3    H216279   6.133   5.240   1.297
 5446TIP3   OH216280   2.400   5.420   5.056
 5446TIP3    H116281   2.363   5.507   5.042
 5446TIP3    H216282   2.352   5.386   5.132
 5447TIP3   OH216283   0.827   0.493   5.545
 5447TIP3    H116284   0.778   0.416   5.574
 5447TIP3    H216285   0.819   0.555   5.618
 5448TIP3   OH216286   2.947   6.486   1.093
 5448TIP3    H116287   2.888   6.561   1.101
 5448TIP3    H216288   2.967   6.481   1.000
 5449TIP3   OH216289   4.740   0.805   1.702
 5449TIP3    H116290   4.719   0.896   1.681
 5449TIP3    H216291   4.671   0.754   1.659
 5450TIP3   OH216292   0.714   1.953   1.848
 5450TIP3    H116293   0.803   1.927   1.875
 5450TIP3    H216294   0.714   2.049   1.854
 5451TIP3   OH216295   8.009   6.356   6.251
 5451TIP3    H116296   8.040   6.396   6.332
 5451TIP3    H216297   7.956   6.282   6.279
 5452TIP3   OH216298   2.479   5.939   1.065
 5452TIP3    H116299   2.457   6.024   1.104
 5452TIP3    H216300   2.493   5.959   0.972
 5453TIP3   OH216301   0.611   0.366   1.574
 5453TIP3    H116302   0.636   0.351   1.665
 5453TIP3    H216303   0.529   0.318   1.563
 5454TIP3   OH216304   3.362   3.984   5.986
 5454TIP3    H116305   3.280   4.016   5.949
 5454TIP3    H216306   3.364   4.019   6.075
 5455TIP3   OH216307   1.390   5.756   4.737
 5455TIP3    H116308   1.406   5.683   4.796
 5455TIP3    H216309   1.297   5.749   4.715
 5456TIP3   OH216310   2.799   0.926   0.306
 5456TIP3    H116311   2.717   0.975   0.296
 5456TIP3    H216312   2.837   0.924   0.218
 5457TIP3   OH216313   1.676   7.688   6.261
 5457TIP3    H116314   1.590   7.652   6.241
 5457TIP3    H216315   1.735   7.612   6.257
 5458TIP3   OH216316   2.196   0.073   0.399
 5458TIP3    H116317   2.233   0.007   0.340
 5458TIP3    H216318   2.214   0.157   0.356
 5459TIP3   OH216319   8.267   2.829   0.277
 5459TIP3    H116320   8.190   2.781   0.310
 5459TIP3    H216321   8.296   2.778   0.201
 5460TIP3   OH216322   6.445   7.086   0.150
 5460TIP3    H116323   6.431   7.124   0.237
 5460TIP3    H216324   6.479   6.998   0.168
 5461TIP3   OH216325   5.436   3.664   5.778
 5461TIP3    H116326   5.392   3.584   5.748
 5461TIP3    H216327   5.510   3.632   5.830
 5462TIP3   OH216328   4.800   7.795   5.886
 5462TIP3    H116329   4.753   7.767   5.808
 5462TIP3    H216330   4.811   7.889   5.876
 5463TIP3   OH216331   7.093   5.393   6.327
 5463TIP3    H116332   7.148   5.472   6.325
 5463TIP3    H216333   7.154   5.323   6.351
 5464TIP3   OH216334   7.113   5.494   1.959
 5464TIP3    H116335   7.180   5.447   1.909
 5464TIP3    H216336   7.039   5.500   1.899
 5465TIP3   OH216337   4.267   2.353   2.554
 5465TIP3    H116338   4.270   2.391   2.642
 5465TIP3    H216339   4.358   2.356   2.523
 5466TIP3   OH216340   0.970   7.305   4.463
 5466TIP3    H116341   1.034   7.271   4.526
 5466TIP3    H216342   0.954   7.232   4.403
 5467TIP3   OH216343   1.813   1.786   0.525
 5467TIP3    H116344   1.823   1.785   0.620
 5467TIP3    H216345   1.746   1.851   0.508
 5468TIP3   OH216346   2.468   3.431   6.441
 5468TIP3    H116347   2.519   3.357   6.408
 5468TIP3    H216348   2.382   3.394   6.459
 5469TIP3   OH216349   1.082   7.617   2.291
 5469TIP3    H116350   1.077   7.579   2.379
 5469TIP3    H216351   1.147   7.687   2.300
 5470TIP3   OH216352   7.299   1.388   4.079
 5470TIP3    H116353   7.263   1.380   4.167
 5470TIP3    H216354   7.298   1.299   4.044
 5471TIP3   OH216355   7.579   2.591   6.434
 5471TIP3    H116356   7.500   2.645   6.436
 5471TIP3    H216357   7.547   2.501   6.430
 5472TIP3   OH216358   3.730   1.030   6.486
 5472TIP3    H116359   3.785   0.972   6.539
 5472TIP3    H216360   3.734   0.993   6.398
 5473TIP3   OH216361   5.654   5.818   2.682
 5473TIP3    H116362   5.710   5.825   2.604
 5473TIP3    H216363   5.689   5.884   2.742
 5474TIP3   OH216364   6.159   3.770   6.640
 5474TIP3    H116365   6.138   3.728   6.557
 5474TIP3    H216366   6.108   3.851   6.640
 5475TIP3   OH216367   5.878   4.573   6.314
 5475TIP3    H116368   5.871   4.629   6.236
 5475TIP3    H216369   5.787   4.558   6.339
 5476TIP3   OH216370   0.513   3.143   1.013
 5476TIP3    H116371   0.525   3.176   0.924
 5476TIP3    H216372   0.419   3.123   1.018
 5477TIP3   OH216373   6.105   5.212   4.779
 5477TIP3    H116374   6.156   5.227   4.859
 5477TIP3    H216375   6.170   5.189   4.713
 5478TIP3   OH216376   2.361   2.101   2.971
 5478TIP3    H116377   2.345   2.167   2.904
 5478TIP3    H216378   2.306   2.027   2.945
 5479TIP3   OH216379   6.813   0.399   5.843
 5479TIP3    H116380   6.844   0.309   5.839
 5479TIP3    H216381   6.823   0.433   5.754
 5480TIP3   OH216382   3.047   6.160   2.154
 5480TIP3    H116383   2.952   6.170   2.147
 5480TIP3    H216384   3.078   6.150   2.064
 5481TIP3   OH216385   4.560   3.762   1.751
 5481TIP3    H116386   4.470   3.752   1.780
 5481TIP3    H216387   4.580   3.680   1.705
 5482TIP3   OH216388   2.307   4.061   0.482
 5482TIP3    H116389   2.330   3.988   0.539
 5482TIP3    H216390   2.257   4.022   0.411
 5483TIP3   OH216391   6.824   4.038   3.154
 5483TIP3    H116392   6.845   4.123   3.193
 5483TIP3    H216393   6.858   3.974   3.216
 5484TIP3   OH216394   5.237   5.483   1.694
 5484TIP3    H116395   5.297   5.546   1.734
 5484TIP3    H216396   5.284   5.452   1.616
 5485TIP3   OH216397   6.582   0.449   0.818
 5485TIP3    H116398   6.523   0.441   0.893
 5485TIP3    H216399   6.663   0.408   0.847
 5486TIP3   OH216400   6.347   2.899   4.953
 5486TIP3    H116401   6.415   2.889   5.020
 5486TIP3    H216402   6.363   2.987   4.917
 5487TIP3   OH216403   0.651   2.992   5.317
 5487TIP3    H116404   0.640   3.080   5.354
 5487TIP3    H216405   0.664   2.936   5.394
 5488TIP3   OH216406   4.793   6.263   4.549
 5488TIP3    H116407   4.868   6.318   4.525
 5488TIP3    H216408   4.746   6.249   4.467
 5489TIP3   OH216409   2.837   4.338   6.312
 5489TIP3    H116410   2.831   4.324   6.218
 5489TIP3    H216411   2.768   4.283   6.350
 5490TIP3   OH216412   6.119   3.066   2.856
 5490TIP3    H116413   6.150   3.157   2.852
 5490TIP3    H216414   6.107   3.041   2.764
 5491TIP3   OH216415   4.429   7.280   4.643
 5491TIP3    H116416   4.406   7.307   4.555
 5491TIP3    H216417   4.505   7.223   4.632
 5492TIP3   OH216418   7.656   6.146   3.798
 5492TIP3    H116419   7.676   6.071   3.853
 5492TIP3    H216420   7.727   6.208   3.817
 5493TIP3   OH216421   1.467   2.172   1.166
 5493TIP3    H116422   1.419   2.147   1.244
 5493TIP3    H216423   1.443   2.106   1.100
 5494TIP3   OH216424   7.012   3.222   3.687
 5494TIP3    H116425   7.092   3.214   3.740
 5494TIP3    H216426   7.017   3.310   3.649
 5495TIP3   OH216427   4.664   2.641   2.049
 5495TIP3    H116428   4.724   2.715   2.054
 5495TIP3    H216429   4.703   2.575   2.107
 5496TIP3   OH216430   7.850   5.583   6.336
 5496TIP3    H116431   7.776   5.631   6.373
 5496TIP3    H216432   7.915   5.651   6.316
 5497TIP3   OH216433   5.007   3.348   6.652
 5497TIP3    H116434   4.915   3.327   6.668
 5497TIP3    H216435   5.035   3.396   6.730
 5498TIP3   OH216436   5.665   0.372   0.546
 5498TIP3    H116437   5.686   0.285   0.581
 5498TIP3    H216438   5.574   0.366   0.520
 5499TIP3   OH216439   0.704   4.334   1.538
 5499TIP3    H116440   0.779   4.336   1.478
 5499TIP3    H216441   0.661   4.250   1.520
 5500TIP3   OH216442   8.137   6.120   3.854
 5500TIP3    H116443   8.081   6.047   3.829
 5500TIP3    H216444   8.165   6.100   3.943
 5501TIP3   OH216445   2.954   4.615   6.646
 5501TIP3    H116446   3.012   4.545   6.676
 5501TIP3    H216447   3.012   4.680   6.609
 5502TIP3   OH216448   7.339   1.837   3.138
 5502TIP3    H116449   7.285   1.827   3.060
 5502TIP3    H216450   7.397   1.910   3.119
 5503TIP3   OH216451   2.147   2.190   5.368
 5503TIP3    H116452   2.198   2.261   5.328
 5503TIP3    H216453   2.186   2.110   5.335
 5504TIP3   OH216454   7.427   7.706   3.668
 5504TIP3    H116455   7.483   7.688   3.593
 5504TIP3    H216456   7.380   7.786   3.646
 5505TIP3   OH216457   2.538   2.134   5.093
 5505TIP3    H116458   2.600   2.099   5.157
 5505TIP3    H216459   2.577   2.112   5.008
 5506TIP3   OH216460   3.110   3.413   2.725
 5506TIP3    H116461   3.173   3.377   2.788
 5506TIP3    H216462   3.025   3.385   2.758
 5507TIP3   OH216463   3.082   4.275   1.151
 5507TIP3    H116464   2.999   4.312   1.181
 5507TIP3    H216465   3.086   4.296   1.058
 5508TIP3   OH216466   3.185   7.307   1.382
 5508TIP3    H116467   3.279   7.322   1.368
 5508TIP3    H216468   3.172   7.325   1.475
 5509TIP3   OH216469   5.209   3.290   3.297
 5509TIP3    H116470   5.166   3.352   3.355
 5509TIP3    H216471   5.155   3.211   3.303
 5510TIP3   OH216472   1.885   3.783   6.376
 5510TIP3    H116473   1.919   3.713   6.432
 5510TIP3    H216474   1.794   3.794   6.403
 5511TIP3   OH216475   0.273   3.284   4.865
 5511TIP3    H116476   0.245   3.238   4.786
 5511TIP3    H216477   0.203   3.270   4.928
 5512TIP3   OH216478   2.070   1.127   5.075
 5512TIP3    H116479   2.111   1.058   5.022
 5512TIP3    H216480   2.075   1.205   5.020
 5513TIP3   OH216481   3.425   2.229   6.127
 5513TIP3    H116482   3.454   2.267   6.044
 5513TIP3    H216483   3.486   2.263   6.192
 5514TIP3   OH216484   7.086   3.731   0.145
 5514TIP3    H116485   7.062   3.805   0.089
 5514TIP3    H216486   7.003   3.688   0.165
 5515TIP3   OH216487   2.893   1.615   5.873
 5515TIP3    H116488   2.959   1.608   5.804
 5515TIP3    H216489   2.813   1.640   5.827
 5516TIP3   OH216490   2.042   7.793   6.755
 5516TIP3    H116491   2.094   7.724   6.714
 5516TIP3    H216492   1.952   7.760   6.751
 5517TIP3   OH216493   0.537   5.601   3.846
 5517TIP3    H116494   0.472   5.651   3.795
 5517TIP3    H216495   0.531   5.638   3.934
 5518TIP3   OH216496   1.519   2.505   5.996
 5518TIP3    H116497   1.574   2.519   6.073
 5518TIP3    H216498   1.444   2.454   6.028
 5519TIP3   OH216499   7.444   2.432   4.348
 5519TIP3    H116500   7.485   2.348   4.368
 5519TIP3    H216501   7.512   2.481   4.303
 5520TIP3   OH216502   2.465   0.634   5.527
 5520TIP3    H116503   2.499   0.648   5.438
 5520TIP3    H216504   2.419   0.550   5.521
 5521TIP3   OH216505   5.892   7.368   2.236
 5521TIP3    H116506   5.910   7.279   2.264
 5521TIP3    H216507   5.904   7.366   2.141
 5522TIP3   OH216508   6.006   5.167   0.352
 5522TIP3    H116509   5.974   5.242   0.302
 5522TIP3    H216510   6.026   5.101   0.286
 5523TIP3   OH216511   3.146   4.291   1.711
 5523TIP3    H116512   3.147   4.281   1.616
 5523TIP3    H216513   3.222   4.242   1.742
 5524TIP3   OH216514   4.698   4.239   2.586
 5524TIP3    H116515   4.705   4.181   2.510
 5524TIP3    H216516   4.775   4.219   2.639
 5525TIP3   OH216517   5.064   7.002   1.705
 5525TIP3    H116518   5.145   6.965   1.672
 5525TIP3    H216519   5.089   7.051   1.783
 5526TIP3   OH216520   2.996   1.177   4.093
 5526TIP3    H116521   2.945   1.126   4.155
 5526TIP3    H216522   3.070   1.121   4.071
 5527TIP3   OH216523   4.642   7.314   1.074
 5527TIP3    H116524   4.603   7.231   1.100
 5527TIP3    H216525   4.613   7.376   1.140
 5528TIP3   OH216526   5.145   3.987   4.550
 5528TIP3    H116527   5.123   3.981   4.457
 5528TIP3    H216528   5.107   4.070   4.578
 5529TIP3   OH216529   5.272   0.664   1.692
 5529TIP3    H116530   5.291   0.650   1.600
 5529TIP3    H216531   5.217   0.743   1.694
 5530TIP3   OH216532   2.932   3.750   1.109
 5530TIP3    H116533   2.889   3.670   1.076
 5530TIP3    H216534   2.984   3.719   1.182
 5531TIP3   OH216535   7.727   1.733   1.506
 5531TIP3    H116536   7.763   1.678   1.437
 5531TIP3    H216537   7.681   1.672   1.564
 5532TIP3   OH216538   1.392   2.975   4.461
 5532TIP3    H116539   1.460   2.947   4.522
 5532TIP3    H216540   1.393   2.909   4.392
 5533TIP3   OH216541   3.789   3.042   2.156
 5533TIP3    H116542   3.715   2.992   2.121
 5533TIP3    H216543   3.762   3.133   2.148
 5534TIP3   OH216544   7.552   4.317   1.741
 5534TIP3    H116545   7.596   4.369   1.808
 5534TIP3    H216546   7.471   4.289   1.783
 5535TIP3   OH216547   6.880   7.388   2.417
 5535TIP3    H116548   6.910   7.428   2.335
 5535TIP3    H216549   6.884   7.458   2.481
 5536TIP3   OH216550   4.473   7.678   0.434
 5536TIP3    H116551   4.473   7.772   0.453
 5536TIP3    H216552   4.562   7.649   0.452
 5537TIP3   OH216553   6.959   6.670   2.839
 5537TIP3    H116554   7.019   6.696   2.909
 5537TIP3    H216555   6.907   6.749   2.821
 5538TIP3   OH216556   0.198   6.778   0.376
 5538TIP3    H116557   0.188   6.835   0.300
 5538TIP3    H216558   0.205   6.838   0.450
 5539TIP3   OH216559   1.197   5.589   6.135
 5539TIP3    H116560   1.179   5.502   6.098
 5539TIP3    H216561   1.121   5.641   6.110
 5540TIP3   OH216562   6.576   1.155   2.194
 5540TIP3    H116563   6.626   1.122   2.269
 5540TIP3    H216564   6.517   1.221   2.232
 5541TIP3   OH216565   1.375   0.363   0.473
 5541TIP3    H116566   1.297   0.401   0.432
 5541TIP3    H216567   1.407   0.432   0.531
 5542TIP3   OH216568   3.870   6.917   0.115
 5542TIP3    H116569   3.882   6.968   0.035
 5542TIP3    H216570   3.918   6.836   0.099
 5543TIP3   OH216571   1.306   4.906   6.068
 5543TIP3    H116572   1.353   4.959   6.004
 5543TIP3    H216573   1.213   4.917   6.045
 5544TIP3   OH216574   7.931   1.744   0.329
 5544TIP3    H116575   7.960   1.830   0.301
 5544TIP3    H216576   7.835   1.747   0.324
 5545TIP3   OH216577   4.270   5.956   6.065
 5545TIP3    H116578   4.313   5.894   6.006
 5545TIP3    H216579   4.188   5.914   6.088
 5546TIP3   OH216580   3.254   0.893   0.522
 5546TIP3    H116581   3.279   0.823   0.583
 5546TIP3    H216582   3.297   0.971   0.558
 5547TIP3   OH216583   2.288   3.841   6.223
 5547TIP3    H116584   2.376   3.813   6.199
 5547TIP3    H216585   2.247   3.865   6.140
 5548TIP3   OH216586   4.758   1.110   2.530
 5548TIP3    H116587   4.786   1.024   2.497
 5548TIP3    H216588   4.751   1.164   2.452
 5549TIP3   OH216589   0.165   6.709   2.507
 5549TIP3    H116590   0.125   6.630   2.472
 5549TIP3    H216591   0.091   6.766   2.528
 5550TIP3   OH216592   3.895   5.770   1.366
 5550TIP3    H116593   3.841   5.845   1.389
 5550TIP3    H216594   3.952   5.757   1.442
 5551TIP3   OH216595   7.113   1.216   1.916
 5551TIP3    H116596   7.053   1.271   1.966
 5551TIP3    H216597   7.122   1.136   1.968
 5552TIP3   OH216598   3.151   1.214   3.548
 5552TIP3    H116599   3.059   1.241   3.550
 5552TIP3    H216600   3.201   1.294   3.558
 5553TIP3   OH216601   0.390   4.345   3.989
 5553TIP3    H116602   0.412   4.423   4.040
 5553TIP3    H216603   0.382   4.376   3.899
 5554TIP3   OH216604   2.025   3.662   5.879
 5554TIP3    H116605   2.109   3.688   5.916
 5554TIP3    H216606   2.048   3.607   5.804
 5555TIP3   OH216607   2.545   4.141   2.946
 5555TIP3    H116608   2.511   4.142   3.036
 5555TIP3    H216609   2.532   4.231   2.915
 5556TIP3   OH216610   7.428   2.584   0.262
 5556TIP3    H116611   7.438   2.591   0.357
 5556TIP3    H216612   7.459   2.668   0.228
 5557TIP3   OH216613  -0.020   1.370   4.082
 5557TIP3    H116614   0.020   1.452   4.109
 5557TIP3    H216615   0.037   1.302   4.118
 5558TIP3   OH216616   1.985   5.613   3.138
 5558TIP3    H116617   1.893   5.601   3.118
 5558TIP3    H216618   1.999   5.566   3.220
 5559TIP3   OH216619   7.837   5.720   3.320
 5559TIP3    H116620   7.831   5.791   3.383
 5559TIP3    H216621   7.930   5.697   3.319
 5560TIP3   OH216622   1.580   2.020   3.664
 5560TIP3    H116623   1.659   2.057   3.703
 5560TIP3    H216624   1.610   1.939   3.622
 5561TIP3   OH216625   5.301   1.895   3.704
 5561TIP3    H116626   5.270   1.814   3.745
 5561TIP3    H216627   5.366   1.866   3.640
 5562TIP3   OH216628   2.888   4.235   5.846
 5562TIP3    H116629   2.840   4.262   5.768
 5562TIP3    H216630   2.939   4.159   5.818
 5563TIP3   OH216631   7.044   6.250   1.066
 5563TIP3    H116632   7.072   6.264   1.157
 5563TIP3    H216633   7.097   6.176   1.037
 5564TIP3   OH216634   4.362   6.055   3.581
 5564TIP3    H116635   4.326   6.109   3.512
 5564TIP3    H216636   4.446   6.096   3.603
 5565TIP3   OH216637   0.609   0.242   0.499
 5565TIP3    H116638   0.675   0.306   0.472
 5565TIP3    H216639   0.526   0.289   0.495
 5566TIP3   OH216640   2.076   4.701   4.272
 5566TIP3    H116641   2.062   4.743   4.187
 5566TIP3    H216642   2.133   4.626   4.253
 5567TIP3   OH216643   2.056   7.626   1.451
 5567TIP3    H116644   1.982   7.683   1.427
 5567TIP3    H216645   2.102   7.612   1.368
 5568TIP3   OH216646   2.532   0.725   2.918
 5568TIP3    H116647   2.536   0.771   2.834
 5568TIP3    H216648   2.622   0.696   2.934
 5569TIP3   OH216649   2.938   1.653   3.888
 5569TIP3    H116650   3.017   1.673   3.840
 5569TIP3    H216651   2.941   1.558   3.901
 5570TIP3   OH216652   8.231   7.054   3.869
 5570TIP3    H116653   8.292   7.078   3.800
 5570TIP3    H216654   8.286   7.014   3.937
 5571TIP3   OH216655   7.052   2.093   6.347
 5571TIP3    H116656   7.056   2.002   6.319
 5571TIP3    H216657   6.974   2.128   6.304
 5572TIP3   OH216658   2.560   3.781   4.896
 5572TIP3    H116659   2.576   3.695   4.860
 5572TIP3    H216660   2.508   3.765   4.975
 5573TIP3   OH216661   7.395   4.256   4.749
 5573TIP3    H116662   7.483   4.274   4.783
 5573TIP3    H216663   7.347   4.224   4.825
 5574TIP3   OH216664   3.726   6.030   1.336
 5574TIP3    H116665   3.701   6.113   1.377
 5574TIP3    H216666   3.741   6.051   1.244
 5575TIP3   OH216667   6.484   6.507   6.118
 5575TIP3    H116668   6.523   6.440   6.062
 5575TIP3    H216669   6.517   6.488   6.206
 5576TIP3   OH216670   1.886   5.878   0.765
 5576TIP3    H116671   1.937   5.958   0.777
 5576TIP3    H216672   1.944   5.819   0.716
 5577TIP3   OH216673   2.889   4.870   1.047
 5577TIP3    H116674   2.967   4.835   1.090
 5577TIP3    H216675   2.853   4.795   0.999
 5578TIP3   OH216676   6.266   5.626   1.719
 5578TIP3    H116677   6.314   5.556   1.675
 5578TIP3    H216678   6.188   5.639   1.665
 5579TIP3   OH216679   3.285   3.371   1.159
 5579TIP3    H116680   3.243   3.316   1.226
 5579TIP3    H216681   3.315   3.310   1.093
 5580TIP3   OH216682   0.889   0.585   1.652
 5580TIP3    H116683   0.856   0.605   1.564
 5580TIP3    H216684   0.911   0.492   1.649
 5581TIP3   OH216685   6.664   3.962   5.522
 5581TIP3    H116686   6.709   3.882   5.550
 5581TIP3    H216687   6.724   4.032   5.544
 5582TIP3   OH216688   0.204   6.433   5.309
 5582TIP3    H116689   0.290   6.462   5.280
 5582TIP3    H216690   0.211   6.337   5.313
 5583TIP3   OH216691   6.490   4.891   4.365
 5583TIP3    H116692   6.456   4.897   4.454
 5583TIP3    H216693   6.570   4.839   4.374
 5584TIP3   OH216694   3.691   1.567   6.226
 5584TIP3    H116695   3.669   1.632   6.158
 5584TIP3    H216696   3.677   1.482   6.183
 5585TIP3   OH216697   0.530   5.834   2.873
 5585TIP3    H116698   0.559   5.886   2.797
 5585TIP3    H216699   0.608   5.786   2.900
 5586TIP3   OH216700   4.882   5.379   5.617
 5586TIP3    H116701   4.959   5.354   5.669
 5586TIP3    H216702   4.907   5.360   5.527
 5587TIP3   OH216703   2.921   4.104   4.237
 5587TIP3    H116704   2.930   4.168   4.308
 5587TIP3    H216705   2.838   4.060   4.254
 5588TIP3   OH216706   5.762   3.177   0.095
 5588TIP3    H116707   5.730   3.091   0.070
 5588TIP3    H216708   5.683   3.232   0.099
 5589TIP3   OH216709   4.336   1.810   5.326
 5589TIP3    H116710   4.330   1.904   5.311
 5589TIP3    H216711   4.426   1.788   5.304
 5590TIP3   OH216712   1.840   6.773   4.367
 5590TIP3    H116713   1.891   6.798   4.290
 5590TIP3    H216714   1.755   6.748   4.332
 5591TIP3   OH216715   7.597   3.181   0.832
 5591TIP3    H116716   7.619   3.261   0.784
 5591TIP3    H216717   7.656   3.181   0.907
 5592TIP3   OH216718   8.017   3.592   1.444
 5592TIP3    H116719   8.090   3.533   1.464
 5592TIP3    H216720   7.941   3.534   1.436
 5593TIP3   OH216721   8.288   1.323   5.421
 5593TIP3    H116722   8.349   1.384   5.379
 5593TIP3    H216723   8.216   1.315   5.359
 5594TIP3   OH216724   3.589   6.529   2.940
 5594TIP3    H116725   3.619   6.447   2.979
 5594TIP3    H216726   3.666   6.585   2.939
 5595TIP3   OH216727   6.572   0.451   2.747
 5595TIP3    H116728   6.597   0.543   2.745
 5595TIP3    H216729   6.655   0.404   2.734
 5596TIP3   OH216730   5.719   3.465   6.534
 5596TIP3    H116731   5.746   3.545   6.488
 5596TIP3    H216732   5.783   3.455   6.604
 5597TIP3   OH216733   5.769   6.968   0.588
 5597TIP3    H116734   5.716   6.963   0.668
 5597TIP3    H216735   5.725   7.033   0.533
 5598TIP3   OH216736   3.102   7.192   3.507
 5598TIP3    H116737   3.056   7.141   3.440
 5598TIP3    H216738   3.056   7.171   3.588
 5599TIP3   OH216739   0.202   4.067   1.591
 5599TIP3    H116740   0.259   4.030   1.658
 5599TIP3    H216741   0.116   4.073   1.632
 5600TIP3   OH216742   2.581   3.430   6.787
 5600TIP3    H116743   2.628   3.356   6.750
 5600TIP3    H216744   2.603   3.504   6.729
 5601TIP3   OH216745   3.572   3.947   3.845
 5601TIP3    H116746   3.495   3.974   3.895
 5601TIP3    H216747   3.536   3.891   3.776
 5602TIP3   OH216748   6.523   3.326   5.908
 5602TIP3    H116749   6.616   3.331   5.931
 5602TIP3    H216750   6.478   3.364   5.983
 5603TIP3   OH216751   5.968   1.081   1.074
 5603TIP3    H116752   6.053   1.097   1.114
 5603TIP3    H216753   5.979   0.999   1.025
 5604TIP3   OH216754   4.491   6.130   0.700
 5604TIP3    H116755   4.455   6.201   0.646
 5604TIP3    H216756   4.580   6.159   0.721
 5605TIP3   OH216757   3.960   5.642   0.871
 5605TIP3    H116758   3.973   5.666   0.963
 5605TIP3    H216759   3.929   5.552   0.874
 5606TIP3   OH216760   7.225   0.395   3.853
 5606TIP3    H116761   7.272   0.457   3.909
 5606TIP3    H216762   7.264   0.406   3.767
 5607TIP3   OH216763   6.697   5.480   1.379
 5607TIP3    H116764   6.661   5.533   1.450
 5607TIP3    H216765   6.755   5.418   1.422
 5608TIP3   OH216766   7.644   0.867   0.763
 5608TIP3    H116767   7.589   0.889   0.687
 5608TIP3    H216768   7.581   0.856   0.835
 5609TIP3   OH216769   2.232   3.250   6.521
 5609TIP3    H116770   2.165   3.312   6.551
 5609TIP3    H216771   2.249   3.195   6.597
 5610TIP3   OH216772   1.815   0.448   1.484
 5610TIP3    H116773   1.733   0.483   1.448
 5610TIP3    H216774   1.851   0.520   1.536
 5611TIP3   OH216775   6.635   7.249   0.874
 5611TIP3    H116776   6.658   7.211   0.959
 5611TIP3    H216777   6.716   7.248   0.824
 5612TIP3   OH216778   1.628   7.293   2.532
 5612TIP3    H116779   1.622   7.376   2.579
 5612TIP3    H216780   1.591   7.311   2.446
 5613TIP3   OH216781   5.012   2.204   5.811
 5613TIP3    H116782   4.960   2.158   5.877
 5613TIP3    H216783   5.071   2.138   5.777
 5614TIP3   OH216784   5.197   7.111   4.612
 5614TIP3    H116785   5.226   7.188   4.661
 5614TIP3    H216786   5.152   7.056   4.677
 5615TIP3   OH216787   4.913   5.012   4.292
 5615TIP3    H116788   4.993   4.981   4.335
 5615TIP3    H216789   4.844   4.999   4.357
 5616TIP3   OH216790   4.819   0.894   3.367
 5616TIP3    H116791   4.914   0.887   3.370
 5616TIP3    H216792   4.794   0.854   3.284
 5617TIP3   OH216793   6.341   0.677   3.995
 5617TIP3    H116794   6.309   0.661   4.083
 5617TIP3    H216795   6.421   0.624   3.988
 5618TIP3   OH216796   0.282   2.809   1.794
 5618TIP3    H116797   0.232   2.831   1.715
 5618TIP3    H216798   0.320   2.723   1.775
 5619TIP3   OH216799   0.459   7.332   3.151
 5619TIP3    H116800   0.426   7.422   3.149
 5619TIP3    H216801   0.535   7.333   3.093
 5620TIP3   OH216802   6.649   0.751   1.864
 5620TIP3    H116803   6.614   0.681   1.810
 5620TIP3    H216804   6.699   0.805   1.803
 5621TIP3   OH216805   1.853   4.274   4.955
 5621TIP3    H116806   1.839   4.325   4.876
 5621TIP3    H216807   1.879   4.338   5.021
 5622TIP3   OH216808   5.482   1.625   3.333
 5622TIP3    H116809   5.509   1.547   3.283
 5622TIP3    H216810   5.440   1.589   3.411
 5623TIP3   OH216811   8.184   4.023   5.927
 5623TIP3    H116812   8.203   4.112   5.954
 5623TIP3    H216813   8.158   4.031   5.835
 5624TIP3   OH216814   3.543   4.704   5.842
 5624TIP3    H116815   3.548   4.662   5.756
 5624TIP3    H216816   3.479   4.774   5.832
 5625TIP3   OH216817   2.175   5.050   0.504
 5625TIP3    H116818   2.167   4.975   0.445
 5625TIP3    H216819   2.087   5.089   0.504
 5626TIP3   OH216820   7.816   2.110   5.853
 5626TIP3    H116821   7.733   2.067   5.872
 5626TIP3    H216822   7.814   2.123   5.758
 5627TIP3   OH216823   5.274   2.355   2.143
 5627TIP3    H116824   5.245   2.264   2.144
 5627TIP3    H216825   5.309   2.370   2.230
 5628TIP3   OH216826   0.059   2.316   2.572
 5628TIP3    H116827   0.058   2.412   2.567
 5628TIP3    H216828   0.087   2.298   2.662
 5629TIP3   OH216829   0.869   0.206   4.055
 5629TIP3    H116830   0.807   0.278   4.062
 5629TIP3    H216831   0.896   0.188   4.145
 5630TIP3   OH216832   7.525   3.601   3.009
 5630TIP3    H116833   7.483   3.611   2.924
 5630TIP3    H216834   7.472   3.655   3.068
 5631TIP3   OH216835   6.774   0.034   5.453
 5631TIP3    H116836   6.726  -0.046   5.472
 5631TIP3    H216837   6.793   0.029   5.360
 5632TIP3   OH216838   8.179   4.124   0.445
 5632TIP3    H116839   8.239   4.076   0.388
 5632TIP3    H216840   8.094   4.081   0.432
 5633TIP3   OH216841   7.420   6.881   1.993
 5633TIP3    H116842   7.494   6.826   2.020
 5633TIP3    H216843   7.343   6.836   2.026
 5634TIP3   OH216844   5.160   1.261   0.246
 5634TIP3    H116845   5.231   1.232   0.304
 5634TIP3    H216846   5.111   1.323   0.299
 5635TIP3   OH216847   5.017   6.855   6.300
 5635TIP3    H116848   5.024   6.949   6.320
 5635TIP3    H216849   4.986   6.853   6.210
 5636TIP3   OH216850   6.760   6.609   4.328
 5636TIP3    H116851   6.821   6.589   4.399
 5636TIP3    H216852   6.738   6.524   4.289
 5637TIP3   OH216853   1.624   4.168   1.201
 5637TIP3    H116854   1.606   4.111   1.275
 5637TIP3    H216855   1.702   4.217   1.227
 5638TIP3   OH216856   6.632   4.592   6.082
 5638TIP3    H116857   6.542   4.616   6.100
 5638TIP3    H216858   6.626   4.510   6.034
 5639TIP3   OH216859   6.498   5.212   3.858
 5639TIP3    H116860   6.478   5.240   3.769
 5639TIP3    H216861   6.554   5.135   3.847
 5640TIP3   OH216862   7.626   5.030   3.532
 5640TIP3    H116863   7.560   4.961   3.539
 5640TIP3    H216864   7.655   5.044   3.622
 5641TIP3   OH216865   7.972   3.130   6.512
 5641TIP3    H116866   7.919   3.074   6.456
 5641TIP3    H216867   7.996   3.075   6.586
 5642TIP3   OH216868   4.176   0.785   4.236
 5642TIP3    H116869   4.098   0.776   4.182
 5642TIP3    H216870   4.161   0.729   4.312
 5643TIP3   OH216871   6.596   0.873   0.950
 5643TIP3    H116872   6.531   0.830   1.005
 5643TIP3    H216873   6.590   0.827   0.865
 5644TIP3   OH216874   3.785   5.953   5.284
 5644TIP3    H116875   3.719   6.021   5.286
 5644TIP3    H216876   3.737   5.872   5.301
 5645TIP3   OH216877   2.274   0.659   0.760
 5645TIP3    H116878   2.180   0.666   0.743
 5645TIP3    H216879   2.312   0.642   0.674
 5646TIP3   OH216880   5.028   7.541   6.308
 5646TIP3    H116881   4.949   7.594   6.320
 5646TIP3    H216882   5.087   7.598   6.259
 5647TIP3   OH216883   6.621   7.570   5.243
 5647TIP3    H116884   6.714   7.558   5.222
 5647TIP3    H216885   6.577   7.566   5.158
 5648TIP3   OH216886   6.192   3.591   1.793
 5648TIP3    H116887   6.113   3.610   1.844
 5648TIP3    H216888   6.241   3.674   1.794
 5649TIP3   OH216889   5.631   3.868   5.106
 5649TIP3    H116890   5.547   3.901   5.075
 5649TIP3    H216891   5.669   3.941   5.155
 5650TIP3   OH216892   0.189   0.728   3.972
 5650TIP3    H116893   0.266   0.768   4.012
 5650TIP3    H216894   0.223   0.652   3.925
 5651TIP3   OH216895   6.591   2.620   2.370
 5651TIP3    H116896   6.577   2.552   2.304
 5651TIP3    H216897   6.502   2.650   2.392
 5652TIP3   OH216898   3.437   3.785   6.528
 5652TIP3    H116899   3.358   3.763   6.578
 5652TIP3    H216900   3.501   3.718   6.553
 5653TIP3   OH216901   3.594   2.621   4.026
 5653TIP3    H116902   3.653   2.574   3.967
 5653TIP3    H216903   3.524   2.559   4.045
 5654TIP3   OH216904   3.322   5.416   2.986
 5654TIP3    H116905   3.242   5.402   2.935
 5654TIP3    H216906   3.306   5.370   3.068
 5655TIP3   OH216907   5.129   6.477   5.423
 5655TIP3    H116908   5.112   6.405   5.363
 5655TIP3    H216909   5.042   6.507   5.450
 5656TIP3   OH216910   7.447   7.423   0.610
 5656TIP3    H116911   7.405   7.473   0.540
 5656TIP3    H216912   7.497   7.355   0.564
 5657TIP3   OH216913   1.050   7.287   2.335
 5657TIP3    H116914   1.062   7.198   2.303
 5657TIP3    H216915   1.113   7.297   2.406
 5658TIP3   OH216916   1.542   3.034   5.286
 5658TIP3    H116917   1.610   2.975   5.252
 5658TIP3    H216918   1.590   3.111   5.317
 5659TIP3   OH216919   3.900   3.453   0.130
 5659TIP3    H116920   3.877   3.468   0.222
 5659TIP3    H216921   3.995   3.465   0.127
 5660TIP3   OH216922   3.105   5.237   2.860
 5660TIP3    H116923   3.021   5.203   2.891
 5660TIP3    H216924   3.084   5.283   2.779
 5661TIP3   OH216925   0.730   3.285   4.039
 5661TIP3    H116926   0.731   3.232   4.118
 5661TIP3    H216927   0.692   3.369   4.067
 5662TIP3   OH216928   7.815   0.345   5.648
 5662TIP3    H116929   7.748   0.352   5.716
 5662TIP3    H216930   7.828   0.251   5.636
 5663TIP3   OH216931   6.364   5.171   6.431
 5663TIP3    H116932   6.341   5.088   6.474
 5663TIP3    H216933   6.358   5.152   6.338
 5664TIP3   OH216934   8.234   4.925   1.100
 5664TIP3    H116935   8.329   4.915   1.086
 5664TIP3    H216936   8.194   4.891   1.021
 5665TIP3   OH216937   2.386   6.387   1.645
 5665TIP3    H116938   2.404   6.392   1.551
 5665TIP3    H216939   2.411   6.298   1.670
 5666TIP3   OH216940   7.679   2.378   3.741
 5666TIP3    H116941   7.657   2.465   3.706
 5666TIP3    H216942   7.613   2.362   3.809
 5667TIP3   OH216943   6.572   6.246   0.319
 5667TIP3    H116944   6.609   6.300   0.389
 5667TIP3    H216945   6.552   6.308   0.249
 5668TIP3   OH216946   2.526   5.977   4.525
 5668TIP3    H116947   2.593   6.007   4.586
 5668TIP3    H216948   2.567   5.986   4.439
 5669TIP3   OH216949   5.189   3.807   1.828
 5669TIP3    H116950   5.189   3.892   1.874
 5669TIP3    H216951   5.102   3.803   1.787
 5670TIP3   OH216952   2.093   0.895   6.326
 5670TIP3    H116953   2.118   0.839   6.252
 5670TIP3    H216954   2.134   0.979   6.307
 5671TIP3   OH216955   7.035   0.262   0.728
 5671TIP3    H116956   7.023   0.355   0.745
 5671TIP3    H216957   7.128   0.253   0.706
 5672TIP3   OH216958   7.735   0.996   6.422
 5672TIP3    H116959   7.772   0.935   6.486
 5672TIP3    H216960   7.693   1.063   6.474
 5673TIP3   OH216961   0.447   3.236   3.929
 5673TIP3    H116962   0.440   3.327   3.959
 5673TIP3    H216963   0.382   3.189   3.980
 5674TIP3   OH216964   7.481   2.631   0.535
 5674TIP3    H116965   7.571   2.613   0.563
 5674TIP3    H216966   7.434   2.549   0.552
 5675TIP3   OH216967   5.453   3.711   0.587
 5675TIP3    H116968   5.428   3.803   0.585
 5675TIP3    H216969   5.544   3.710   0.558
 5676TIP3   OH216970   1.627   3.419   3.088
 5676TIP3    H116971   1.597   3.337   3.128
 5676TIP3    H216972   1.646   3.476   3.163
 5677TIP3   OH216973   6.979   3.643   4.521
 5677TIP3    H116974   6.981   3.704   4.595
 5677TIP3    H216975   6.963   3.699   4.444
 5678TIP3   OH216976   2.029   5.428   0.434
 5678TIP3    H116977   2.005   5.375   0.510
 5678TIP3    H216978   2.071   5.365   0.375
 5679TIP3   OH216979   7.773   2.602   0.557
 5679TIP3    H116980   7.832   2.674   0.577
 5679TIP3    H216981   7.830   2.534   0.520
 5680TIP3   OH216982   7.085   7.732   5.011
 5680TIP3    H116983   7.159   7.672   5.016
 5680TIP3    H216984   7.116   7.805   4.958
 5681TIP3   OH216985   6.282   4.928   0.969
 5681TIP3    H116986   6.188   4.945   0.977
 5681TIP3    H216987   6.288   4.838   0.938
 5682TIP3   OH216988   1.750   7.758   2.173
 5682TIP3    H116989   1.827   7.740   2.118
 5682TIP3    H216990   1.746   7.684   2.234
 5683TIP3   OH216991   4.011   1.395   4.362
 5683TIP3    H116992   4.068   1.406   4.285
 5683TIP3    H216993   4.049   1.321   4.409
 5684TIP3   OH216994   8.059   0.362   3.239
 5684TIP3    H116995   8.133   0.338   3.295
 5684TIP3    H216996   8.095   0.424   3.176
 5685TIP3   OH216997   7.038   6.115   4.722
 5685TIP3    H116998   6.978   6.170   4.671
 5685TIP3    H216999   7.078   6.176   4.785
 5686TIP3   OH217000   6.610   7.442   4.573
 5686TIP3    H117001   6.670   7.450   4.648
 5686TIP3    H217002   6.589   7.532   4.549
 5687TIP3   OH217003   4.760   0.588   4.124
 5687TIP3    H117004   4.772   0.679   4.148
 5687TIP3    H217005   4.665   0.577   4.117
 5688TIP3   OH217006   0.587   6.708   0.962
 5688TIP3    H117007   0.595   6.628   0.910
 5688TIP3    H217008   0.548   6.772   0.902
 5689TIP3   OH217009   0.325   3.078   1.783
 5689TIP3    H117010   0.318   2.982   1.779
 5689TIP3    H217011   0.416   3.096   1.760
 5690TIP3   OH217012   4.745   3.792   0.551
 5690TIP3    H117013   4.795   3.735   0.492
 5690TIP3    H217014   4.789   3.782   0.636
 5691TIP3   OH217015   1.773   7.437   5.314
 5691TIP3    H117016   1.761   7.355   5.361
 5691TIP3    H217017   1.787   7.503   5.382
 5692TIP3   OH217018   6.652   3.908   1.073
 5692TIP3    H117019   6.617   3.863   0.995
 5692TIP3    H217020   6.723   3.851   1.104
 5693TIP3   OH217021   1.171   5.157   6.628
 5693TIP3    H117022   1.163   5.221   6.556
 5693TIP3    H217023   1.263   5.157   6.651
 5694TIP3   OH217024   7.389   3.617   2.048
 5694TIP3    H117025   7.398   3.656   1.961
 5694TIP3    H217026   7.354   3.529   2.030
 5695TIP3   OH217027   4.806   5.984   4.457
 5695TIP3    H117028   4.780   6.043   4.387
 5695TIP3    H217029   4.827   6.041   4.530
 5696TIP3   OH217030   4.243   6.433   4.447
 5696TIP3    H117031   4.237   6.409   4.540
 5696TIP3    H217032   4.152   6.430   4.415
 5697TIP3   OH217033   4.621   5.131   1.189
 5697TIP3    H117034   4.562   5.104   1.259
 5697TIP3    H217035   4.566   5.132   1.110
 5698TIP3   OH217036   0.206   7.413   3.336
 5698TIP3    H117037   0.147   7.465   3.281
 5698TIP3    H217038   0.275   7.474   3.362
 5699TIP3   OH217039   4.164   3.199   2.654
 5699TIP3    H117040   4.070   3.204   2.642
 5699TIP3    H217041   4.201   3.229   2.570
 5700TIP3   OH217042   4.075   6.040   1.916
 5700TIP3    H117043   4.023   6.016   1.839
 5700TIP3    H217044   4.163   6.009   1.895
 5701TIP3   OH217045   1.122   0.450   5.692
 5701TIP3    H117046   1.056   0.436   5.624
 5701TIP3    H217047   1.110   0.376   5.752
 5702TIP3   OH217048   4.893   1.892   0.913
 5702TIP3    H117049   4.801   1.914   0.924
 5702TIP3    H217050   4.914   1.839   0.991
 5703TIP3   OH217051   2.961  -0.009   3.555
 5703TIP3    H117052   2.909   0.050   3.500
 5703TIP3    H217053   2.909  -0.089   3.560
 5704TIP3   OH217054   0.936   5.139   1.106
 5704TIP3    H117055   1.031   5.141   1.109
 5704TIP3    H217056   0.911   5.220   1.062
 5705TIP3   OH217057   7.431   5.563   3.568
 5705TIP3    H117058   7.405   5.549   3.659
 5705TIP3    H217059   7.405   5.653   3.549
 5706TIP3   OH217060   0.066   4.727   4.594
 5706TIP3    H117061  -0.010   4.784   4.588
 5706TIP3    H217062   0.120   4.767   4.663
 5707TIP3   OH217063   1.477   5.572   3.905
 5707TIP3    H117064   1.436   5.654   3.930
 5707TIP3    H217065   1.564   5.575   3.943
 5708TIP3   OH217066   4.736   1.746   1.851
 5708TIP3    H117067   4.667   1.750   1.784
 5708TIP3    H217068   4.714   1.818   1.911
 5709TIP3   OH217069   4.968   1.067   4.487
 5709TIP3    H117070   4.880   1.036   4.465
 5709TIP3    H217071   4.997   1.009   4.558
 5710TIP3   OH217072   5.930   4.094   0.427
 5710TIP3    H117073   6.003   4.155   0.441
 5710TIP3    H217074   5.954   4.016   0.476
 5711TIP3   OH217075   1.090   2.408   4.791
 5711TIP3    H117076   1.005   2.378   4.824
 5711TIP3    H217077   1.109   2.486   4.843
 5712TIP3   OH217078   3.833   1.084   1.318
 5712TIP3    H117079   3.888   1.134   1.257
 5712TIP3    H217080   3.747   1.124   1.309
 5713TIP3   OH217081   7.601   3.352   3.738
 5713TIP3    H117082   7.667   3.340   3.670
 5713TIP3    H217083   7.603   3.269   3.787
 5714TIP3   OH217084   5.836   5.656   3.034
 5714TIP3    H117085   5.832   5.624   3.124
 5714TIP3    H217086   5.929   5.651   3.012
 5715TIP3   OH217087   6.302   3.719   2.084
 5715TIP3    H117088   6.382   3.764   2.109
 5715TIP3    H217089   6.231   3.776   2.114
 5716TIP3   OH217090   1.244   1.760   4.748
 5716TIP3    H117091   1.158   1.795   4.768
 5716TIP3    H217092   1.299   1.838   4.734
 5717TIP3   OH217093   2.598   6.814   3.400
 5717TIP3    H117094   2.532   6.759   3.443
 5717TIP3    H217095   2.549   6.891   3.371
 5718TIP3   OH217096   2.829   3.736   0.226
 5718TIP3    H117097   2.924   3.729   0.212
 5718TIP3    H217098   2.803   3.649   0.257
 5719TIP3   OH217099   8.198   4.104   6.260
 5719TIP3    H117100   8.244   4.182   6.290
 5719TIP3    H217101   8.265   4.036   6.253
 5720TIP3   OH217102   0.493   0.073   0.694
 5720TIP3    H117103   0.529   0.145   0.745
 5720TIP3    H217104   0.521   0.091   0.604
 5721TIP3   OH217105   0.100   4.297   6.765
 5721TIP3    H117106   0.011   4.262   6.757
 5721TIP3    H217107   0.143   4.270   6.684
 5722TIP3   OH217108   3.409   5.078   4.202
 5722TIP3    H117109   3.417   5.092   4.296
 5722TIP3    H217110   3.364   4.994   4.194
 5723TIP3   OH217111   3.090   1.273   4.349
 5723TIP3    H117112   3.113   1.235   4.265
 5723TIP3    H217113   3.065   1.364   4.328
 5724TIP3   OH217114   2.010   5.441   6.104
 5724TIP3    H117115   2.102   5.468   6.107
 5724TIP3    H217116   1.977   5.477   6.021
 5725TIP3   OH217117   6.032   2.472   0.478
 5725TIP3    H117118   6.086   2.396   0.456
 5725TIP3    H217119   5.970   2.479   0.405
 5726TIP3   OH217120   7.094   3.326   6.795
 5726TIP3    H117121   7.154   3.286   6.732
 5726TIP3    H217122   7.011   3.281   6.781
 5727TIP3   OH217123   1.615   7.480   4.653
 5727TIP3    H117124   1.609   7.501   4.559
 5727TIP3    H217125   1.624   7.565   4.696
 5728TIP3   OH217126   2.454   2.560   1.785
 5728TIP3    H117127   2.432   2.492   1.721
 5728TIP3    H217128   2.413   2.639   1.749
 5729TIP3   OH217129   6.858   7.001   1.820
 5729TIP3    H117130   6.936   6.955   1.850
 5729TIP3    H217131   6.884   7.093   1.817
 5730TIP3   OH217132   5.390   2.280   0.724
 5730TIP3    H117133   5.376   2.363   0.678
 5730TIP3    H217134   5.316   2.225   0.698
 5731TIP3   OH217135   7.676   7.163   5.611
 5731TIP3    H117136   7.744   7.195   5.670
 5731TIP3    H217137   7.683   7.068   5.615
 5732TIP3   OH217138   4.792   1.659   3.110
 5732TIP3    H117139   4.766   1.664   3.202
 5732TIP3    H217140   4.820   1.747   3.088
 5733TIP3   OH217141   7.933   4.367   3.730
 5733TIP3    H117142   7.935   4.356   3.825
 5733TIP3    H217143   8.016   4.327   3.701
 5734TIP3   OH217144   6.885   1.450   6.159
 5734TIP3    H117145   6.818   1.502   6.204
 5734TIP3    H217146   6.958   1.446   6.222
 5735TIP3   OH217147   7.033   3.748   4.779
 5735TIP3    H117148   7.125   3.774   4.783
 5735TIP3    H217149   7.023   3.683   4.849
 5736TIP3   OH217150   6.388   1.595   0.631
 5736TIP3    H117151   6.422   1.652   0.700
 5736TIP3    H217152   6.351   1.655   0.566
 5737TIP3   OH217153   3.434   6.071   0.974
 5737TIP3    H117154   3.353   6.064   1.024
 5737TIP3    H217155   3.499   6.026   1.029
 5738TIP3   OH217156   0.566   7.033   5.844
 5738TIP3    H117157   0.514   6.973   5.789
 5738TIP3    H217158   0.654   6.997   5.842
 5739TIP3   OH217159   6.956   3.559   3.325
 5739TIP3    H117160   6.993   3.498   3.388
 5739TIP3    H217161   6.870   3.523   3.304
 5740TIP3   OH217162   1.577   2.692   2.541
 5740TIP3    H117163   1.659   2.712   2.586
 5740TIP3    H217164   1.597   2.611   2.492
 5741TIP3   OH217165   8.129   2.868   3.569
 5741TIP3    H117166   8.144   2.810   3.643
 5741TIP3    H217167   8.197   2.844   3.505
 5742TIP3   OH217168   1.297   1.080   4.161
 5742TIP3    H117169   1.248   1.144   4.212
 5742TIP3    H217170   1.296   1.113   4.071
 5743TIP3   OH217171   5.469   1.410   0.203
 5743TIP3    H117172   5.453   1.331   0.253
 5743TIP3    H217173   5.565   1.416   0.197
 5744TIP3   OH217174   5.917   3.170   1.970
 5744TIP3    H117175   5.830   3.209   1.986
 5744TIP3    H217176   5.978   3.240   1.993
 5745TIP3   OH217177   0.547   4.141   1.451
 5745TIP3    H117178   0.602   4.087   1.394
 5745TIP3    H217179   0.461   4.142   1.409
 5746TIP3   OH217180   5.516   3.930   4.489
 5746TIP3    H117181   5.502   3.882   4.407
 5746TIP3    H217182   5.491   3.867   4.557
 5747TIP3   OH217183   7.867   2.482   1.254
 5747TIP3    H117184   7.844   2.480   1.161
 5747TIP3    H217185   7.963   2.473   1.254
 5748TIP3   OH217186   1.363   0.460   4.624
 5748TIP3    H117187   1.314   0.386   4.662
 5748TIP3    H217188   1.394   0.427   4.539
 5749TIP3   OH217189   6.832   3.484   0.895
 5749TIP3    H117190   6.905   3.541   0.917
 5749TIP3    H217191   6.833   3.480   0.799
 5750TIP3   OH217192   5.617   2.457   4.566
 5750TIP3    H117193   5.654   2.541   4.540
 5750TIP3    H217194   5.620   2.404   4.486
 5751TIP3   OH217195   7.271   0.593   4.637
 5751TIP3    H117196   7.216   0.666   4.609
 5751TIP3    H217197   7.316   0.625   4.715
 5752TIP3   OH217198   3.000   4.902   0.642
 5752TIP3    H117199   3.027   4.810   0.638
 5752TIP3    H217200   3.021   4.930   0.731
 5753TIP3   OH217201   3.561   4.560   1.219
 5753TIP3    H117202   3.522   4.505   1.287
 5753TIP3    H217203   3.624   4.615   1.266
 5754TIP3   OH217204   7.688   0.607   0.300
 5754TIP3    H117205   7.679   0.596   0.394
 5754TIP3    H217206   7.768   0.658   0.289
 5755TIP3   OH217207   2.775   6.615   1.613
 5755TIP3    H117208   2.785   6.658   1.528
 5755TIP3    H217209   2.745   6.685   1.672
 5756TIP3   OH217210   1.977   6.328   5.302
 5756TIP3    H117211   1.986   6.416   5.336
 5756TIP3    H217212   1.887   6.324   5.269
 5757TIP3   OH217213   6.040   5.674   1.549
 5757TIP3    H117214   6.094   5.648   1.475
 5757TIP3    H217215   5.950   5.662   1.519
 5758TIP3   OH217216   2.755   5.950   2.791
 5758TIP3    H117217   2.698   6.025   2.778
 5758TIP3    H217218   2.807   5.945   2.710
 5759TIP3   OH217219   5.992   2.957   1.793
 5759TIP3    H117220   6.057   2.932   1.859
 5759TIP3    H217221   5.938   3.023   1.836
 5760TIP3   OH217222   2.141   7.455   0.944
 5760TIP3    H117223   2.105   7.399   0.876
 5760TIP3    H217224   2.136   7.543   0.907
 5761TIP3   OH217225   6.284   3.740   3.730
 5761TIP3    H117226   6.221   3.803   3.766
 5761TIP3    H217227   6.264   3.658   3.775
 5762TIP3   OH217228   6.814   0.156   2.435
 5762TIP3    H117229   6.744   0.217   2.458
 5762TIP3    H217230   6.892   0.194   2.474
 5763TIP3   OH217231   4.654   7.730   1.071
 5763TIP3    H117232   4.680   7.705   1.159
 5763TIP3    H217233   4.735   7.722   1.019
 5764TIP3   OH217234   3.011   3.303   1.220
 5764TIP3    H117235   2.955   3.374   1.251
 5764TIP3    H217236   2.992   3.230   1.279
 5765TIP3   OH217237   6.295   0.408   2.693
 5765TIP3    H117238   6.315   0.371   2.607
 5765TIP3    H217239   6.380   0.429   2.731
 5766TIP3   OH217240   7.151   2.364   1.089
 5766TIP3    H117241   7.207   2.295   1.124
 5766TIP3    H217242   7.138   2.340   0.997
 5767TIP3   OH217243   4.580   0.939   0.354
 5767TIP3    H117244   4.598   0.874   0.422
 5767TIP3    H217245   4.582   0.890   0.272
 5768TIP3   OH217246   2.948   7.217   0.991
 5768TIP3    H117247   3.019   7.268   1.030
 5768TIP3    H217248   2.922   7.268   0.914
 5769TIP3   OH217249   1.369   3.756   5.994
 5769TIP3    H117250   1.299   3.797   6.046
 5769TIP3    H217251   1.334   3.670   5.970
 5770TIP3   OH217252   6.625   4.155   3.972
 5770TIP3    H117253   6.532   4.165   3.953
 5770TIP3    H217254   6.663   4.122   3.891
 5771TIP3   OH217255   0.390   5.513   2.636
 5771TIP3    H117256   0.370   5.425   2.667
 5771TIP3    H217257   0.466   5.502   2.579
 5772TIP3   OH217258   2.964   2.170   5.127
 5772TIP3    H117259   2.902   2.131   5.064
 5772TIP3    H217260   2.937   2.261   5.133
 5773TIP3   OH217261   7.961   7.395   6.102
 5773TIP3    H117262   7.947   7.488   6.114
 5773TIP3    H217263   8.050   7.389   6.067
 5774TIP3   OH217264   2.701   5.730   1.690
 5774TIP3    H117265   2.699   5.683   1.773
 5774TIP3    H217266   2.756   5.676   1.633
 5775TIP3   OH217267   8.103   1.582   0.563
 5775TIP3    H117268   8.013   1.556   0.583
 5775TIP3    H217269   8.152   1.500   0.561
 5776TIP3   OH217270   7.732   7.787   1.648
 5776TIP3    H117271   7.823   7.791   1.676
 5776TIP3    H217272   7.708   7.695   1.658
 5777TIP3   OH217273   4.666   7.033   2.455
 5777TIP3    H117274   4.693   7.068   2.540
 5777TIP3    H217275   4.571   7.045   2.453
 5778TIP3   OH217276   6.073   2.046   4.947
 5778TIP3    H117277   6.137   1.984   4.912
 5778TIP3    H217278   6.080   2.122   4.889
 5779TIP3   OH217279   6.148   3.926   0.458
 5779TIP3    H117280   6.164   3.834   0.479
 5779TIP3    H217281   6.233   3.958   0.427
 5780TIP3   OH217282   4.775   0.757   5.449
 5780TIP3    H117283   4.828   0.710   5.512
 5780TIP3    H217284   4.832   0.768   5.373
 5781TIP3   OH217285   4.096   0.794   0.631
 5781TIP3    H117286   4.078   0.883   0.602
 5781TIP3    H217287   4.061   0.789   0.720
 5782TIP3   OH217288   1.774   1.449   3.635
 5782TIP3    H117289   1.726   1.529   3.656
 5782TIP3    H217290   1.718   1.404   3.572
 5783TIP3   OH217291   3.271   3.251   2.891
 5783TIP3    H117292   3.200   3.188   2.886
 5783TIP3    H217293   3.341   3.205   2.937
 5784TIP3   OH217294   6.591   6.618   3.577
 5784TIP3    H117295   6.512   6.671   3.576
 5784TIP3    H217296   6.582   6.563   3.655
 5785TIP3   OH217297   3.751   3.645   1.103
 5785TIP3    H117298   3.713   3.694   1.176
 5785TIP3    H217299   3.758   3.709   1.032
 5786TIP3   OH217300   6.008   4.025   5.964
 5786TIP3    H117301   6.097   4.016   5.932
 5786TIP3    H217302   5.970   4.094   5.909
 5787TIP3   OH217303   4.075   0.131   4.927
 5787TIP3    H117304   3.996   0.077   4.933
 5787TIP3    H217305   4.075   0.165   4.838
 5788TIP3   OH217306   5.808   7.411   6.701
 5788TIP3    H117307   5.809   7.401   6.796
 5788TIP3    H217308   5.880   7.470   6.682
 5789TIP3   OH217309   5.959   1.184   3.183
 5789TIP3    H117310   5.988   1.093   3.185
 5789TIP3    H217311   6.039   1.234   3.167
 5790TIP3   OH217312   5.622   6.241   1.488
 5790TIP3    H117313   5.548   6.213   1.542
 5790TIP3    H217314   5.598   6.215   1.399
 5791TIP3   OH217315   8.274   6.137   5.162
 5791TIP3    H117316   8.240   6.227   5.163
 5791TIP3    H217317   8.363   6.146   5.129
 5792TIP3   OH217318   0.352   5.235   3.254
 5792TIP3    H117319   0.441   5.234   3.220
 5792TIP3    H217320   0.297   5.219   3.177
 5793TIP3   OH217321   0.322   2.896   3.061
 5793TIP3    H117322   0.304   2.886   3.154
 5793TIP3    H217323   0.396   2.957   3.057
 5794TIP3   OH217324   2.756   1.561   6.742
 5794TIP3    H117325   2.835   1.523   6.780
 5794TIP3    H217326   2.754   1.531   6.652
 5795TIP3   OH217327   2.208   0.336   0.841
 5795TIP3    H117328   2.293   0.311   0.877
 5795TIP3    H217329   2.145   0.308   0.908
 5796TIP3   OH217330   0.624   2.108   2.861
 5796TIP3    H117331   0.576   2.025   2.862
 5796TIP3    H217332   0.716   2.083   2.861
 5797TIP3   OH217333   1.031   4.450   3.881
 5797TIP3    H117334   1.012   4.370   3.833
 5797TIP3    H217335   1.081   4.422   3.957
 5798TIP3   OH217336   6.282   5.314   0.376
 5798TIP3    H117337   6.352   5.293   0.437
 5798TIP3    H217338   6.214   5.249   0.394
 5799TIP3   OH217339   5.397   5.563   6.731
 5799TIP3    H117340   5.472   5.506   6.718
 5799TIP3    H217341   5.434   5.645   6.764
 5800TIP3   OH217342   3.623   4.445   1.818
 5800TIP3    H117343   3.683   4.372   1.828
 5800TIP3    H217344   3.546   4.420   1.868
 5801TIP3   OH217345   0.258   6.215   3.125
 5801TIP3    H117346   0.293   6.212   3.036
 5801TIP3    H217347   0.200   6.139   3.132
 5802TIP3   OH217348   0.420   0.865   6.665
 5802TIP3    H117349   0.461   0.952   6.669
 5802TIP3    H217350   0.417   0.844   6.572
 5803TIP3   OH217351   0.623   5.565   3.428
 5803TIP3    H117352   0.636   5.643   3.373
 5803TIP3    H217353   0.685   5.577   3.500
 5804TIP3   OH217354   3.464   1.657   1.097
 5804TIP3    H117355   3.487   1.635   1.007
 5804TIP3    H217356   3.504   1.743   1.111
 5805TIP3   OH217357   0.314   1.286   2.491
 5805TIP3    H117358   0.233   1.288   2.441
 5805TIP3    H217359   0.304   1.355   2.556
 5806TIP3   OH217360   3.919   7.825   4.503
 5806TIP3    H117361   3.992   7.846   4.561
 5806TIP3    H217362   3.927   7.731   4.488
 5807TIP3   OH217363   2.191   1.504   6.319
 5807TIP3    H117364   2.196   1.465   6.232
 5807TIP3    H217365   2.206   1.430   6.379
 5808TIP3   OH217366   6.038   2.744   3.613
 5808TIP3    H117367   6.031   2.702   3.527
 5808TIP3    H217368   6.043   2.838   3.594
 5809TIP3   OH217369   0.586   1.172   0.593
 5809TIP3    H117370   0.530   1.248   0.603
 5809TIP3    H217371   0.549   1.106   0.651
 5810TIP3   OH217372   3.443   5.035   3.065
 5810TIP3    H117373   3.390   5.101   3.110
 5810TIP3    H217374   3.434   5.056   2.972
 5811TIP3   OH217375   6.141   1.741   5.133
 5811TIP3    H117376   6.136   1.835   5.118
 5811TIP3    H217377   6.069   1.721   5.193
 5812TIP3   OH217378   0.597   7.088   6.699
 5812TIP3    H117379   0.679   7.039   6.700
 5812TIP3    H217380   0.537   7.033   6.649
 5813TIP3   OH217381   3.945   3.017   1.109
 5813TIP3    H117382   4.009   2.976   1.051
 5813TIP3    H217383   3.980   3.003   1.197
 5814TIP3   OH217384   6.967   7.169   1.481
 5814TIP3    H117385   7.054   7.143   1.511
 5814TIP3    H217386   6.942   7.241   1.539
 5815TIP3   OH217387   3.181   0.431   6.287
 5815TIP3    H117388   3.185   0.343   6.250
 5815TIP3    H217389   3.233   0.484   6.226
 5816TIP3   OH217390   1.612   3.638   2.791
 5816TIP3    H117391   1.662   3.561   2.766
 5816TIP3    H217392   1.536   3.604   2.839
 5817TIP3   OH217393   7.696   4.330   3.430
 5817TIP3    H117394   7.784   4.315   3.396
 5817TIP3    H217395   7.648   4.368   3.357
 5818TIP3   OH217396   3.165   3.963   0.325
 5818TIP3    H117397   3.120   3.886   0.289
 5818TIP3    H217398   3.256   3.952   0.299
 5819TIP3   OH217399   1.983   5.505   3.922
 5819TIP3    H117400   2.023   5.592   3.925
 5819TIP3    H217401   2.029   5.455   3.989
 5820TIP3   OH217402   5.211   3.188   2.960
 5820TIP3    H117403   5.248   3.274   2.979
 5820TIP3    H217404   5.260   3.127   3.015
 5821TIP3   OH217405   6.534   3.765   4.374
 5821TIP3    H117406   6.578   3.847   4.394
 5821TIP3    H217407   6.479   3.786   4.298
 5822TIP3   OH217408   6.706   2.625   3.119
 5822TIP3    H117409   6.729   2.641   3.211
 5822TIP3    H217410   6.646   2.551   3.123
 5823TIP3   OH217411   6.618   7.076   3.914
 5823TIP3    H117412   6.540   7.040   3.956
 5823TIP3    H217413   6.623   7.030   3.831
 5824TIP3   OH217414   0.279   4.613   5.660
 5824TIP3    H117415   0.210   4.632   5.597
 5824TIP3    H217416   0.269   4.681   5.727
 5825TIP3   OH217417   6.793   5.330   4.857
 5825TIP3    H117418   6.785   5.254   4.799
 5825TIP3    H217419   6.874   5.373   4.828
 5826TIP3   OH217420   8.107   1.220   0.333
 5826TIP3    H117421   8.164   1.281   0.380
 5826TIP3    H217422   8.035   1.203   0.393
 5827TIP3   OH217423   5.506   4.593   2.884
 5827TIP3    H117424   5.436   4.564   2.826
 5827TIP3    H217425   5.527   4.682   2.856
 5828TIP3   OH217426   0.571   1.320   5.947
 5828TIP3    H117427   0.625   1.302   5.870
 5828TIP3    H217428   0.527   1.238   5.966
 5829TIP3   OH217429   5.987   4.613   3.666
 5829TIP3    H117430   6.054   4.660   3.616
 5829TIP3    H217431   5.908   4.666   3.656
 5830TIP3   OH217432   0.552   5.203   4.143
 5830TIP3    H117433   0.482   5.219   4.079
 5830TIP3    H217434   0.604   5.283   4.143
 5831TIP3   OH217435   4.951   0.498   2.039
 5831TIP3    H117436   4.968   0.468   1.949
 5831TIP3    H217437   5.017   0.452   2.092
 5832TIP3   OH217438   1.381   4.555   4.821
 5832TIP3    H117439   1.396   4.543   4.915
 5832TIP3    H217440   1.411   4.644   4.803
 5833TIP3   OH217441   4.895   6.821   5.660
 5833TIP3    H117442   4.861   6.850   5.745
 5833TIP3    H217443   4.851   6.876   5.596
 5834TIP3   OH217444   1.216   6.475   0.861
 5834TIP3    H117445   1.149   6.452   0.925
 5834TIP3    H217446   1.200   6.567   0.842
 5835TIP3   OH217447   8.167   6.528   3.235
 5835TIP3    H117448   8.076   6.523   3.265
 5835TIP3    H217449   8.176   6.454   3.174
 5836TIP3   OH217450   5.531   5.153   2.844
 5836TIP3    H117451   5.605   5.172   2.787
 5836TIP3    H217452   5.538   5.217   2.915
 5837TIP3   OH217453   5.162   2.607   4.568
 5837TIP3    H117454   5.073   2.639   4.588
 5837TIP3    H217455   5.198   2.674   4.510
 5838TIP3   OH217456   3.557   2.726   3.597
 5838TIP3    H117457   3.469   2.716   3.633
 5838TIP3    H217458   3.601   2.786   3.657
 5839TIP3   OH217459   5.844   6.860   1.748
 5839TIP3    H117460   5.901   6.915   1.802
 5839TIP3    H217461   5.884   6.773   1.751
 5840TIP3   OH217462   1.061   7.225   2.709
 5840TIP3    H117463   1.122   7.267   2.769
 5840TIP3    H217464   1.007   7.169   2.765
 5841TIP3   OH217465   5.680   1.831   3.760
 5841TIP3    H117466   5.623   1.793   3.693
 5841TIP3    H217467   5.763   1.786   3.749
 5842TIP3   OH217468   6.709   5.681   5.506
 5842TIP3    H117469   6.799   5.692   5.476
 5842TIP3    H217470   6.675   5.610   5.451
 5843TIP3   OH217471   1.367   2.070   1.390
 5843TIP3    H117472   1.404   1.982   1.403
 5843TIP3    H217473   1.407   2.123   1.459
 5844TIP3   OH217474   6.740   6.750   1.798
 5844TIP3    H117475   6.648   6.769   1.784
 5844TIP3    H217476   6.786   6.801   1.731
 5845TIP3   OH217477   1.406   6.528   2.802
 5845TIP3    H117478   1.375   6.440   2.780
 5845TIP3    H217479   1.338   6.563   2.860
 5846TIP3   OH217480   4.903   0.800   0.282
 5846TIP3    H117481   4.822   0.762   0.247
 5846TIP3    H217482   4.973   0.754   0.237
 5847TIP3   OH217483   1.009   5.923   6.307
 5847TIP3    H117484   1.102   5.928   6.284
 5847TIP3    H217485   1.007   5.870   6.387
 5848TIP3   OH217486   3.457   7.566   1.002
 5848TIP3    H117487   3.435   7.518   1.082
 5848TIP3    H217488   3.528   7.624   1.028
 5849TIP3   OH217489   2.205   4.615   2.280
 5849TIP3    H117490   2.129   4.574   2.239
 5849TIP3    H217491   2.168   4.669   2.350
 5850TIP3   OH217492   3.836   1.938   5.796
 5850TIP3    H117493   3.795   1.974   5.875
 5850TIP3    H217494   3.780   1.967   5.724
 5851TIP3   OH217495   6.518   4.374   1.263
 5851TIP3    H117496   6.497   4.455   1.217
 5851TIP3    H217497   6.487   4.304   1.206
 5852TIP3   OH217498   0.993   5.054   2.439
 5852TIP3    H117499   1.030   5.090   2.359
 5852TIP3    H217500   1.032   4.967   2.446
 5853TIP3   OH217501   6.923   5.362   3.203
 5853TIP3    H117502   6.859   5.325   3.264
 5853TIP3    H217503   6.988   5.294   3.191
 5854TIP3   OH217504   5.393   2.505   0.371
 5854TIP3    H117505   5.480   2.544   0.368
 5854TIP3    H217506   5.360   2.513   0.281
 5855TIP3   OH217507   2.507   0.977   2.791
 5855TIP3    H117508   2.512   0.977   2.887
 5855TIP3    H217509   2.527   1.067   2.766
 5856TIP3   OH217510   6.882   6.326   5.918
 5856TIP3    H117511   6.935   6.308   5.841
 5856TIP3    H217512   6.937   6.384   5.972
 5857TIP3   OH217513   2.870   7.075   2.987
 5857TIP3    H117514   2.827   7.051   3.068
 5857TIP3    H217515   2.889   7.169   2.997
 5858TIP3   OH217516   1.109   2.706   2.146
 5858TIP3    H117517   1.042   2.646   2.177
 5858TIP3    H217518   1.191   2.658   2.158
 5859TIP3   OH217519   0.410   0.106   5.726
 5859TIP3    H117520   0.374   0.089   5.639
 5859TIP3    H217521   0.438   0.021   5.757
 5860TIP3   OH217522   6.173   7.019   1.166
 5860TIP3    H117523   6.199   7.062   1.084
 5860TIP3    H217524   6.253   6.977   1.197
 5861TIP3   OH217525   5.655   7.541   3.010
 5861TIP3    H117526   5.588   7.521   2.945
 5861TIP3    H217527   5.698   7.619   2.976
 5862TIP3   OH217528   2.077   4.869   1.049
 5862TIP3    H117529   2.063   4.963   1.061
 5862TIP3    H217530   2.052   4.852   0.958
 5863TIP3   OH217531   3.305   6.215   4.630
 5863TIP3    H117532   3.371   6.220   4.561
 5863TIP3    H217533   3.296   6.122   4.648
 5864TIP3   OH217534   1.040   6.250   1.048
 5864TIP3    H117535   0.989   6.309   0.992
 5864TIP3    H217536   1.068   6.180   0.990
 5865TIP3   OH217537   0.400   0.794   6.006
 5865TIP3    H117538   0.457   0.723   6.037
 5865TIP3    H217539   0.392   0.778   5.912
 5866TIP3   OH217540   6.806   5.104   6.170
 5866TIP3    H117541   6.897   5.114   6.142
 5866TIP3    H217542   6.784   5.013   6.148
 5867TIP3   OH217543   6.399   6.617   2.960
 5867TIP3    H117544   6.368   6.628   3.050
 5867TIP3    H217545   6.491   6.645   2.963
 5868TIP3   OH217546   2.975   2.040   6.280
 5868TIP3    H117547   2.927   1.970   6.324
 5868TIP3    H217548   2.977   2.014   6.189
 5869TIP3   OH217549   3.740   6.105   1.844
 5869TIP3    H117550   3.658   6.088   1.796
 5869TIP3    H217551   3.805   6.051   1.799
 5870TIP3   OH217552   5.715   3.566   5.845
 5870TIP3    H117553   5.735   3.493   5.787
 5870TIP3    H217554   5.734   3.644   5.792
 5871TIP3   OH217555   0.808   7.601   0.077
 5871TIP3    H117556   0.752   7.634   0.007
 5871TIP3    H217557   0.860   7.676   0.105
 5872TIP3   OH217558   4.786   2.457   3.436
 5872TIP3    H117559   4.792   2.472   3.531
 5872TIP3    H217560   4.760   2.365   3.428
 5873TIP3   OH217561   5.178   4.298   6.075
 5873TIP3    H117562   5.194   4.204   6.083
 5873TIP3    H217563   5.140   4.323   6.160
 5874TIP3   OH217564   3.464   7.193   4.428
 5874TIP3    H117565   3.439   7.264   4.487
 5874TIP3    H217566   3.465   7.115   4.483
 5875TIP3   OH217567   3.056   3.180   0.974
 5875TIP3    H117568   2.985   3.121   1.001
 5875TIP3    H217569   3.049   3.254   1.034
 5876TIP3   OH217570   7.682   4.086   3.599
 5876TIP3    H117571   7.751   4.082   3.665
 5876TIP3    H217572   7.691   4.173   3.559
 5877TIP3   OH217573   7.428   0.296   5.667
 5877TIP3    H117574   7.398   0.224   5.721
 5877TIP3    H217575   7.413   0.374   5.720
 5878TIP3   OH217576   4.199   4.150   1.174
 5878TIP3    H117577   4.194   4.075   1.115
 5878TIP3    H217578   4.271   4.203   1.140
 5879TIP3   OH217579   7.635   0.009   3.802
 5879TIP3    H117580   7.542   0.012   3.826
 5879TIP3    H217581   7.658   0.100   3.784
 5880TIP3   OH217582   3.132   7.313   5.323
 5880TIP3    H117583   3.220   7.276   5.307
 5880TIP3    H217584   3.103   7.269   5.403
 5881TIP3   OH217585   7.902   2.440   5.034
 5881TIP3    H117586   7.900   2.482   4.948
 5881TIP3    H217587   7.877   2.510   5.095
 5882TIP3   OH217588   1.180   3.983   2.457
 5882TIP3    H117589   1.155   3.897   2.492
 5882TIP3    H217590   1.138   3.987   2.372
 5883TIP3   OH217591   7.606   7.638   5.060
 5883TIP3    H117592   7.518   7.608   5.035
 5883TIP3    H217593   7.646   7.562   5.102
 5884TIP3   OH217594   2.962   6.120   6.763
 5884TIP3    H117595   3.035   6.129   6.702
 5884TIP3    H217596   2.888   6.161   6.718
 5885TIP3   OH217597   4.356   2.286   3.729
 5885TIP3    H117598   4.421   2.216   3.721
 5885TIP3    H217599   4.386   2.337   3.804
 5886TIP3   OH217600   6.778   7.260   4.451
 5886TIP3    H117601   6.713   7.330   4.455
 5886TIP3    H217602   6.815   7.267   4.362
 5887TIP3   OH217603   3.922   6.281   0.214
 5887TIP3    H117604   3.971   6.326   0.282
 5887TIP3    H217605   3.887   6.352   0.159
 5888TIP3   OH217606   6.902   4.460   0.647
 5888TIP3    H117607   6.875   4.440   0.557
 5888TIP3    H217608   6.838   4.415   0.702
 5889TIP3   OH217609   4.801   7.456   1.562
 5889TIP3    H117610   4.866   7.506   1.610
 5889TIP3    H217611   4.821   7.365   1.582
 5890TIP3   OH217612   4.052   1.046   0.474
 5890TIP3    H117613   4.043   1.140   0.457
 5890TIP3    H217614   4.146   1.033   0.486
 5891TIP3   OH217615   6.074   4.833   3.526
 5891TIP3    H117616   6.037   4.865   3.608
 5891TIP3    H217617   6.020   4.871   3.457
 5892TIP3   OH217618   3.635   0.299   5.464
 5892TIP3    H117619   3.701   0.248   5.511
 5892TIP3    H217620   3.679   0.382   5.444
 5893TIP3   OH217621   7.509   2.532   5.660
 5893TIP3    H117622   7.581   2.595   5.651
 5893TIP3    H217623   7.485   2.511   5.569
 5894TIP3   OH217624   0.669   0.538   6.494
 5894TIP3    H117625   0.602   0.479   6.530
 5894TIP3    H217626   0.712   0.575   6.571
 5895TIP3   OH217627   6.137   7.154   5.873
 5895TIP3    H117628   6.139   7.241   5.915
 5895TIP3    H217629   6.149   7.172   5.780
 5896TIP3   OH217630   8.198   4.608   6.307
 5896TIP3    H117631   8.208   4.541   6.375
 5896TIP3    H217632   8.166   4.685   6.354
 5897TIP3   OH217633   0.295   5.809   6.700
 5897TIP3    H117634   0.275   5.825   6.792
 5897TIP3    H217635   0.389   5.791   6.699
 5898TIP3   OH217636   7.721   2.715   5.635
 5898TIP3    H117637   7.744   2.747   5.722
 5898TIP3    H217638   7.733   2.791   5.578
 5899TIP3   OH217639   0.714   2.357   0.527
 5899TIP3    H117640   0.630   2.380   0.489
 5899TIP3    H217641   0.761   2.312   0.457
 5900TIP3   OH217642   4.590   1.764   3.651
 5900TIP3    H117643   4.593   1.672   3.679
 5900TIP3    H217644   4.641   1.810   3.717
 5901TIP3   OH217645   0.433   7.387   5.431
 5901TIP3    H117646   0.521   7.392   5.393
 5901TIP3    H217647   0.413   7.294   5.434
 5902TIP3   OH217648   1.664   5.726   1.938
 5902TIP3    H117649   1.754   5.757   1.949
 5902TIP3    H217650   1.667   5.668   1.862
 5903TIP3   OH217651   1.110   5.140   5.093
 5903TIP3    H117652   1.179   5.198   5.125
 5903TIP3    H217653   1.068   5.189   5.022
 5904TIP3   OH217654   1.466   4.043   3.800
 5904TIP3    H117655   1.438   3.993   3.723
 5904TIP3    H217656   1.496   3.977   3.862
 5905TIP3   OH217657   2.226   5.178   4.269
 5905TIP3    H117658   2.318   5.161   4.248
 5905TIP3    H217659   2.215   5.148   4.359
 5906TIP3   OH217660   7.982   2.748   1.021
 5906TIP3    H117661   8.075   2.730   1.008
 5906TIP3    H217662   7.937   2.694   0.956
 5907TIP3   OH217663   2.926   4.706   3.200
 5907TIP3    H117664   2.850   4.727   3.256
 5907TIP3    H217665   2.903   4.743   3.115
 5908TIP3   OH217666   4.809   2.941   4.123
 5908TIP3    H117667   4.860   3.008   4.077
 5908TIP3    H217668   4.875   2.881   4.158
 5909TIP3   OH217669   0.930   1.070   3.098
 5909TIP3    H117670   0.954   1.003   3.034
 5909TIP3    H217671   0.878   1.023   3.164
 5910TIP3   OH217672   3.322   5.023  -0.005
 5910TIP3    H117673   3.344   5.109   0.030
 5910TIP3    H217674   3.403   4.973  -0.002
 5911TIP3   OH217675   2.980   2.003   3.653
 5911TIP3    H117676   2.932   2.013   3.736
 5911TIP3    H217677   3.069   2.030   3.674
 5912TIP3   OH217678   5.500   5.577   2.053
 5912TIP3    H117679   5.571   5.513   2.049
 5912TIP3    H217680   5.521   5.632   2.128
 5913TIP3   OH217681   3.791   4.226   1.826
 5913TIP3    H117682   3.743   4.158   1.875
 5913TIP3    H217683   3.782   4.200   1.735
 5914TIP3   OH217684   1.175   6.610   4.521
 5914TIP3    H117685   1.090   6.569   4.538
 5914TIP3    H217686   1.162   6.658   4.439
 5915TIP3   OH217687   7.696   6.889   5.623
 5915TIP3    H117688   7.759   6.844   5.680
 5915TIP3    H217689   7.695   6.836   5.543
 5916TIP3   OH217690   4.994   6.632   0.307
 5916TIP3    H117691   4.995   6.645   0.402
 5916TIP3    H217692   4.931   6.562   0.293
 5917TIP3   OH217693   5.542   5.808   0.229
 5917TIP3    H117694   5.622   5.831   0.276
 5917TIP3    H217695   5.472   5.847   0.280
 5918TIP3   OH217696   3.100   6.729   4.523
 5918TIP3    H117697   3.068   6.754   4.436
 5918TIP3    H217698   3.139   6.643   4.511
 5919TIP3   OH217699   3.594   3.449   6.187
 5919TIP3    H117700   3.657   3.480   6.123
 5919TIP3    H217701   3.540   3.525   6.207
 5920TIP3   OH217702   4.843   6.970   5.888
 5920TIP3    H117703   4.798   7.017   5.818
 5920TIP3    H217704   4.847   7.033   5.960
 5921TIP3   OH217705   6.035   1.027   3.565
 5921TIP3    H117706   6.126   1.005   3.544
 5921TIP3    H217707   5.986   0.949   3.538
 5922TIP3   OH217708   2.257   7.701   6.576
 5922TIP3    H117709   2.234   7.625   6.630
 5922TIP3    H217710   2.337   7.736   6.616
 5923TIP3   OH217711   4.940   4.740   0.906
 5923TIP3    H117712   4.931   4.688   0.986
 5923TIP3    H217713   4.891   4.820   0.923
 5924TIP3   OH217714   5.280   5.540   0.931
 5924TIP3    H117715   5.334   5.496   0.864
 5924TIP3    H217716   5.246   5.618   0.887
 5925TIP3   OH217717   2.941   4.961   0.374
 5925TIP3    H117718   2.912   5.052   0.364
 5925TIP3    H217719   2.960   4.952   0.467
 5926TIP3   OH217720   2.281   4.968   3.635
 5926TIP3    H117721   2.292   4.964   3.730
 5926TIP3    H217722   2.303   5.059   3.613
 5927TIP3   OH217723   2.432   3.801   6.571
 5927TIP3    H117724   2.383   3.881   6.588
 5927TIP3    H217725   2.486   3.821   6.495
 5928TIP3   OH217726   6.376   2.729   0.002
 5928TIP3    H117727   6.328   2.688  -0.070
 5928TIP3    H217728   6.432   2.659   0.036
 5929TIP3   OH217729   4.268   1.819   4.077
 5929TIP3    H117730   4.289   1.853   3.990
 5929TIP3    H217731   4.351   1.826   4.125
 5930TIP3   OH217732   3.359   1.122   1.489
 5930TIP3    H117733   3.378   1.038   1.448
 5930TIP3    H217734   3.266   1.118   1.511
 5931TIP3   OH217735   3.652   0.757   0.708
 5931TIP3    H117736   3.567   0.727   0.675
 5931TIP3    H217737   3.635   0.845   0.741
 5932TIP3   OH217738   5.569   3.241   2.938
 5932TIP3    H117739   5.572   3.147   2.954
 5932TIP3    H217740   5.558   3.250   2.844
 5933TIP3   OH217741   5.603   2.046   3.429
 5933TIP3    H117742   5.658   2.105   3.379
 5933TIP3    H217743   5.527   2.099   3.454
 5934TIP3   OH217744   5.625   2.899   0.732
 5934TIP3    H117745   5.697   2.875   0.673
 5934TIP3    H217746   5.554   2.926   0.673
 5935TIP3   OH217747   3.507   0.547   3.016
 5935TIP3    H117748   3.599   0.533   2.993
 5935TIP3    H217749   3.501   0.641   3.035
 5936TIP3   OH217750   4.860   0.366   0.686
 5936TIP3    H117751   4.836   0.439   0.629
 5936TIP3    H217752   4.799   0.296   0.662
 5937TIP3   OH217753   6.646   5.399   6.665
 5937TIP3    H117754   6.642   5.314   6.709
 5937TIP3    H217755   6.739   5.412   6.647
 5938TIP3   OH217756   1.876   6.508   5.044
 5938TIP3    H117757   1.877   6.604   5.045
 5938TIP3    H217758   1.817   6.485   4.973
 5939TIP3   OH217759   7.926   3.051   2.838
 5939TIP3    H117760   7.903   3.127   2.891
 5939TIP3    H217761   7.959   2.987   2.901
 5940TIP3   OH217762   3.857   4.437   5.878
 5940TIP3    H117763   3.834   4.488   5.801
 5940TIP3    H217764   3.866   4.502   5.948
 5941TIP3   OH217765   5.802   7.585   5.994
 5941TIP3    H117766   5.768   7.635   5.920
 5941TIP3    H217767   5.831   7.651   6.057
 5942TIP3   OH217768   5.618   5.510   6.151
 5942TIP3    H117769   5.584   5.466   6.072
 5942TIP3    H217770   5.683   5.571   6.118
 5943TIP3   OH217771   2.332   2.249   3.905
 5943TIP3    H117772   2.381   2.172   3.876
 5943TIP3    H217773   2.243   2.234   3.873
 5944TIP3   OH217774   6.616   1.944   5.414
 5944TIP3    H117775   6.610   1.948   5.319
 5944TIP3    H217776   6.632   2.034   5.441
 5945TIP3   OH217777   2.374   4.581   6.730
 5945TIP3    H117778   2.386   4.512   6.665
 5945TIP3    H217779   2.371   4.662   6.679
 5946TIP3   OH217780   6.349   7.328   2.624
 5946TIP3    H117781   6.430   7.371   2.595
 5946TIP3    H217782   6.305   7.395   2.676
 5947TIP3   OH217783   4.064   1.582   4.086
 5947TIP3    H117784   4.092   1.658   4.036
 5947TIP3    H217785   4.143   1.528   4.094
 5948TIP3   OH217786   7.215   3.711   4.267
 5948TIP3    H117787   7.232   3.622   4.296
 5948TIP3    H217788   7.150   3.702   4.197
 5949TIP3   OH217789   6.530   2.833   4.428
 5949TIP3    H117790   6.509   2.830   4.521
 5949TIP3    H217791   6.528   2.742   4.400
 5950TIP3   OH217792   5.311   3.905   6.725
 5950TIP3    H117793   5.337   3.897   6.633
 5950TIP3    H217794   5.394   3.911   6.773
 5951TIP3   OH217795   6.429   5.480   3.374
 5951TIP3    H117796   6.515   5.521   3.389
 5951TIP3    H217797   6.429   5.405   3.434
 5952TIP3   OH217798   1.187   4.350   4.809
 5952TIP3    H117799   1.251   4.421   4.814
 5952TIP3    H217800   1.184   4.328   4.715
 5953TIP3   OH217801   2.044   7.258   4.007
 5953TIP3    H117802   2.058   7.332   4.065
 5953TIP3    H217803   1.964   7.216   4.040
 5954TIP3   OH217804   7.537   5.413   2.676
 5954TIP3    H117805   7.451   5.401   2.715
 5954TIP3    H217806   7.528   5.380   2.586
 5955TIP3   OH217807   0.381   3.795   5.441
 5955TIP3    H117808   0.342   3.724   5.493
 5955TIP3    H217809   0.341   3.875   5.476
 5956TIP3   OH217810   1.972   3.605   0.167
 5956TIP3    H117811   1.920   3.684   0.148
 5956TIP3    H217812   1.958   3.590   0.260
 5957TIP3   OH217813   0.456   7.162   0.290
 5957TIP3    H117814   0.515   7.234   0.270
 5957TIP3    H217815   0.444   7.167   0.385
 5958TIP3   OH217816   4.705   3.535   3.259
 5958TIP3    H117817   4.779   3.497   3.306
 5958TIP3    H217818   4.646   3.566   3.329
 5959TIP3   OH217819   3.107   2.594   2.802
 5959TIP3    H117820   3.194   2.604   2.763
 5959TIP3    H217821   3.047   2.609   2.729
 5960TIP3   OH217822   4.359   6.867   5.405
 5960TIP3    H117823   4.416   6.850   5.330
 5960TIP3    H217824   4.418   6.874   5.480
 5961TIP3   OH217825   2.112   5.905   5.466
 5961TIP3    H117826   2.194   5.862   5.490
 5961TIP3    H217827   2.063   5.838   5.418
 5962TIP3   OH217828   7.051   5.177   5.406
 5962TIP3    H117829   7.112   5.246   5.382
 5962TIP3    H217830   7.097   5.095   5.384
 5963TIP3   OH217831   1.568   4.936   6.639
 5963TIP3    H117832   1.630   4.898   6.701
 5963TIP3    H217833   1.575   4.881   6.561
 5964TIP3   OH217834   4.598   7.713   1.666
 5964TIP3    H117835   4.554   7.628   1.666
 5964TIP3    H217836   4.688   7.693   1.692
 5965TIP3   OH217837   4.401   7.356   2.927
 5965TIP3    H117838   4.356   7.289   2.978
 5965TIP3    H217839   4.490   7.323   2.915
 5966TIP3   OH217840   3.719   5.833   5.824
 5966TIP3    H117841   3.636   5.827   5.872
 5966TIP3    H217842   3.697   5.886   5.747
 5967TIP3   OH217843   0.074   5.548   6.502
 5967TIP3    H117844   0.002   5.596   6.541
 5967TIP3    H217845   0.076   5.464   6.548
 5968TIP3   OH217846   7.739   2.309   3.185
 5968TIP3    H117847   7.730   2.214   3.174
 5968TIP3    H217848   7.710   2.325   3.275
 5969TIP3   OH217849   2.090   7.504   5.164
 5969TIP3    H117850   2.027   7.447   5.118
 5969TIP3    H217851   2.160   7.518   5.100
 5970TIP3   OH217852   5.139   5.663   0.588
 5970TIP3    H117853   5.067   5.615   0.629
 5970TIP3    H217854   5.171   5.604   0.520
 5971TIP3   OH217855   4.462   5.136   2.249
 5971TIP3    H117856   4.394   5.195   2.217
 5971TIP3    H217857   4.444   5.052   2.206
 5972TIP3   OH217858   6.353   1.862   5.585
 5972TIP3    H117859   6.411   1.858   5.509
 5972TIP3    H217860   6.404   1.827   5.657
 5973TIP3   OH217861   7.020   0.301   4.028
 5973TIP3    H117862   7.019   0.207   4.048
 5973TIP3    H217863   7.097   0.313   3.973
 5974TIP3   OH217864   7.316   1.391   1.877
 5974TIP3    H117865   7.317   1.324   1.809
 5974TIP3    H217866   7.253   1.359   1.941
 5975TIP3   OH217867   8.010   6.118   6.739
 5975TIP3    H117868   7.925   6.073   6.740
 5975TIP3    H217869   7.990   6.205   6.702
 5976TIP3   OH217870   2.829   5.673   2.426
 5976TIP3    H117871   2.914   5.644   2.459
 5976TIP3    H217872   2.796   5.598   2.376
 5977TIP3   OH217873   6.870   2.566   2.877
 5977TIP3    H117874   6.854   2.588   2.969
 5977TIP3    H217875   6.830   2.480   2.865
 5978TIP3   OH217876   7.960   7.719   2.018
 5978TIP3    H117877   7.957   7.626   1.996
 5978TIP3    H217878   8.013   7.758   1.949
 5979TIP3   OH217879   5.333   2.116   6.579
 5979TIP3    H117880   5.428   2.105   6.589
 5979TIP3    H217881   5.296   2.075   6.657
 5980TIP3   OH217882   5.322   2.830   2.530
 5980TIP3    H117883   5.279   2.748   2.555
 5980TIP3    H217884   5.253   2.881   2.488
 5981TIP3   OH217885   4.909   7.688   2.643
 5981TIP3    H117886   4.862   7.605   2.634
 5981TIP3    H217887   4.841   7.752   2.661
 5982TIP3   OH217888   2.581   3.869   6.351
 5982TIP3    H117889   2.566   3.955   6.310
 5982TIP3    H217890   2.673   3.871   6.377
 5983TIP3   OH217891   0.919   2.617   0.611
 5983TIP3    H117892   1.006   2.629   0.571
 5983TIP3    H217893   0.930   2.544   0.672
 5984TIP3   OH217894   4.324   0.982   2.761
 5984TIP3    H117895   4.309   1.035   2.839
 5984TIP3    H217896   4.403   1.018   2.722
 5985TIP3   OH217897   2.305   6.543   4.771
 5985TIP3    H117898   2.237   6.523   4.835
 5985TIP3    H217899   2.333   6.632   4.793
 5986TIP3   OH217900   0.557   5.698   6.705
 5986TIP3    H117901   0.587   5.657   6.787
 5986TIP3    H217902   0.509   5.628   6.660
 5987TIP3   OH217903   6.916   7.527   5.765
 5987TIP3    H117904   6.968   7.547   5.688
 5987TIP3    H217905   6.971   7.469   5.817
 5988TIP3   OH217906   7.687   4.323   4.845
 5988TIP3    H117907   7.732   4.240   4.829
 5988TIP3    H217908   7.756   4.389   4.837
 5989TIP3   OH217909   4.000   6.542   6.418
 5989TIP3    H117910   3.971   6.584   6.500
 5989TIP3    H217911   3.919   6.531   6.368
 5990TIP3   OH217912   5.038   3.999   4.889
 5990TIP3    H117913   5.124   3.968   4.863
 5990TIP3    H217914   4.977   3.953   4.830
 5991TIP3   OH217915   1.601   0.720   2.711
 5991TIP3    H117916   1.633   0.791   2.766
 5991TIP3    H217917   1.666   0.650   2.723
 5992TIP3   OH217918   0.771   2.462   3.946
 5992TIP3    H117919   0.828   2.527   3.905
 5992TIP3    H217920   0.718   2.513   4.008
 5993TIP3   OH217921   2.223   4.684   6.482
 5993TIP3    H117922   2.227   4.697   6.387
 5993TIP3    H217923   2.287   4.746   6.517
 5994TIP3   OH217924   0.932   6.408   3.000
 5994TIP3    H117925   0.948   6.327   2.951
 5994TIP3    H217926   0.883   6.381   3.077
 5995TIP3   OH217927   3.086   2.552   4.555
 5995TIP3    H117928   3.092   2.480   4.492
 5995TIP3    H217929   2.992   2.564   4.567
 5996TIP3   OH217930   5.403   4.164   0.109
 5996TIP3    H117931   5.411   4.259   0.101
 5996TIP3    H217932   5.488   4.129   0.081
 5997TIP3   OH217933   7.340   4.621   2.648
 5997TIP3    H117934   7.299   4.539   2.623
 5997TIP3    H217935   7.294   4.648   2.728
 5998TIP3   OH217936   0.639   3.206   0.766
 5998TIP3    H117937   0.608   3.121   0.733
 5998TIP3    H217938   0.691   3.242   0.693
 5999TIP3   OH217939   8.123   7.690   4.947
 5999TIP3    H117940   8.180   7.643   4.886
 5999TIP3    H217941   8.173   7.693   5.028
 6000TIP3   OH217942   7.012   4.573   0.035
 6000TIP3    H117943   6.946   4.612   0.092
 6000TIP3    H217944   7.052   4.504   0.088
 6001TIP3   OH217945   6.478   0.148   0.730
 6001TIP3    H117946   6.487   0.227   0.676
 6001TIP3    H217947   6.488   0.179   0.820
 6002TIP3   OH217948   3.634   7.341   2.035
 6002TIP3    H117949   3.596   7.428   2.022
 6002TIP3    H217950   3.711   7.356   2.089
 6003TIP3   OH217951   6.125   6.871   5.243
 6003TIP3    H117952   6.098   6.940   5.182
 6003TIP3    H217953   6.113   6.909   5.330
 6004TIP3   OH217954   7.547   6.236   1.866
 6004TIP3    H117955   7.599   6.170   1.822
 6004TIP3    H217956   7.590   6.249   1.950
 6005TIP3   OH217957   2.075   2.139   6.328
 6005TIP3    H117958   2.128   2.062   6.306
 6005TIP3    H217959   2.131   2.213   6.306
 6006TIP3   OH217960   0.565   0.811   1.556
 6006TIP3    H117961   0.505   0.764   1.613
 6006TIP3    H217962   0.516   0.887   1.525
 6007TIP3   OH217963   7.834   5.135   0.983
 6007TIP3    H117964   7.812   5.136   0.890
 6007TIP3    H217965   7.761   5.178   1.026
 6008TIP3   OH217966   7.742   3.640   4.888
 6008TIP3    H117967   7.823   3.691   4.884
 6008TIP3    H217968   7.749   3.579   4.814
 6009TIP3   OH217969   4.476   0.820   3.384
 6009TIP3    H117970   4.462   0.747   3.444
 6009TIP3    H217971   4.502   0.778   3.302
 6010TIP3   OH217972   7.459   5.689   2.999
 6010TIP3    H117973   7.543   5.664   3.036
 6010TIP3    H217974   7.424   5.754   3.059
 6011TIP3   OH217975   6.789   5.697   3.726
 6011TIP3    H117976   6.807   5.618   3.777
 6011TIP3    H217977   6.694   5.701   3.721
 6012TIP3   OH217978   0.365   5.526   6.609
 6012TIP3    H117979   0.274   5.553   6.610
 6012TIP3    H217980   0.390   5.524   6.517
 6013TIP3   OH217981   2.308   7.669   5.441
 6013TIP3    H117982   2.288   7.659   5.534
 6013TIP3    H217983   2.230   7.709   5.404
 6014TIP3   OH217984   2.215   2.492   6.052
 6014TIP3    H117985   2.222   2.588   6.048
 6014TIP3    H217986   2.143   2.472   5.991
 6015TIP3   OH217987   7.435   7.047   4.981
 6015TIP3    H117988   7.456   6.980   4.916
 6015TIP3    H217989   7.355   7.015   5.023
 6016TIP3   OH217990   6.664   7.521   0.203
 6016TIP3    H117991   6.678   7.485   0.291
 6016TIP3    H217992   6.661   7.616   0.217
 6017TIP3   OH217993   6.907   7.326   3.031
 6017TIP3    H117994   6.954   7.321   2.948
 6017TIP3    H217995   6.975   7.334   3.097
 6018TIP3   OH217996   3.884   6.958   3.725
 6018TIP3    H117997   3.837   7.035   3.758
 6018TIP3    H217998   3.904   6.980   3.634
 6019TIP3   OH217999   7.594   4.398   6.658
 6019TIP3    H118000   7.629   4.343   6.588
 6019TIP3    H218001   7.571   4.480   6.615
 6020TIP3   OH218002   5.660   2.757   3.127
 6020TIP3    H118003   5.569   2.750   3.097
 6020TIP3    H218004   5.704   2.807   3.058
 6021TIP3   OH218005   6.956   4.611   2.987
 6021TIP3    H118006   6.917   4.689   3.027
 6021TIP3    H218007   6.914   4.604   2.902
 6022TIP3   OH218008   7.557   2.609   3.621
 6022TIP3    H118009   7.491   2.540   3.614
 6022TIP3    H218010   7.507   2.689   3.632
 6023TIP3   OH218011   5.256   1.234   2.150
 6023TIP3    H118012   5.251   1.145   2.183
 6023TIP3    H218013   5.167   1.268   2.158
 6024TIP3   OH218014   6.328   4.603   5.037
 6024TIP3    H118015   6.380   4.614   4.957
 6024TIP3    H218016   6.323   4.691   5.075
 6025TIP3   OH218017   6.077   3.529   3.765
 6025TIP3    H118018   6.007   3.580   3.807
 6025TIP3    H218019   6.059   3.539   3.671
 6026TIP3   OH218020   0.897   5.894   0.946
 6026TIP3    H118021   0.875   5.889   0.853
 6026TIP3    H218022   0.984   5.933   0.948
 6027TIP3   OH218023   2.107   7.206   2.716
 6027TIP3    H118024   2.060   7.201   2.800
 6027TIP3    H218025   2.126   7.114   2.694
 6028TIP3   OH218026   5.580   3.260   2.660
 6028TIP3    H118027   5.580   3.350   2.629
 6028TIP3    H218028   5.564   3.207   2.582
 6029TIP3   OH218029   7.784   2.294   2.594
 6029TIP3    H118030   7.869   2.285   2.637
 6029TIP3    H218031   7.788   2.233   2.520
 6030TIP3   OH218032   5.584   0.914   6.078
 6030TIP3    H118033   5.626   1.000   6.076
 6030TIP3    H218034   5.576   0.889   5.986
 6031TIP3   OH218035   0.552   4.978   4.550
 6031TIP3    H118036   0.515   4.890   4.555
 6031TIP3    H218037   0.493   5.025   4.490
 6032TIP3   OH218038   8.038   0.963   0.148
 6032TIP3    H118039   8.068   1.020   0.219
 6032TIP3    H218040   7.943   0.968   0.151
 6033TIP3   OH218041   5.255   4.803   5.479
 6033TIP3    H118042   5.305   4.739   5.429
 6033TIP3    H218043   5.320   4.850   5.531
 6034TIP3   OH218044   5.670   0.244   5.542
 6034TIP3    H118045   5.608   0.271   5.474
 6034TIP3    H218046   5.685   0.151   5.525
 6035TIP3   OH218047   1.883   4.432   2.736
 6035TIP3    H118048   1.846   4.403   2.820
 6035TIP3    H218049   1.821   4.401   2.671
 6036TIP3   OH218050   2.899   2.689   3.587
 6036TIP3    H118051   2.922   2.636   3.664
 6036TIP3    H218052   2.914   2.779   3.615
 6037TIP3   OH218053   0.316  -0.011   0.088
 6037TIP3    H118054   0.245   0.044   0.120
 6037TIP3    H218055   0.395   0.028   0.124
 6038TIP3   OH218056  -0.022   1.588   5.596
 6038TIP3    H118057   0.059   1.584   5.545
 6038TIP3    H218058   0.001   1.549   5.680
 6039TIP3   OH218059   1.633   7.769   2.963
 6039TIP3    H118060   1.549   7.757   2.919
 6039TIP3    H218061   1.686   7.693   2.936
 6040TIP3   OH218062   3.634   2.367   1.607
 6040TIP3    H118063   3.714   2.316   1.608
 6040TIP3    H218064   3.569   2.310   1.567
 6041TIP3   OH218065   0.385   7.382   4.811
 6041TIP3    H118066   0.399   7.450   4.745
 6041TIP3    H218067   0.365   7.303   4.760
 6042TIP3   OH218068   3.840   0.121   5.562
 6042TIP3    H118069   3.776   0.055   5.589
 6042TIP3    H218070   3.833   0.124   5.467
 6043TIP3   OH218071   3.533   5.842   0.438
 6043TIP3    H118072   3.527   5.760   0.488
 6043TIP3    H218073   3.621   5.842   0.403
 6044TIP3   OH218074   1.438   4.934   5.830
 6044TIP3    H118075   1.526   4.898   5.815
 6044TIP3    H218076   1.382   4.857   5.843
 6045TIP3   OH218077   5.417   4.666   5.263
 6045TIP3    H118078   5.381   4.739   5.212
 6045TIP3    H218079   5.495   4.639   5.215
 6046TIP3   OH218080   2.473   7.700   0.347
 6046TIP3    H118081   2.411   7.632   0.319
 6046TIP3    H218082   2.542   7.651   0.392
 6047TIP3   OH218083   7.866   3.998   0.217
 6047TIP3    H118084   7.838   4.089   0.207
 6047TIP3    H218085   7.894   3.992   0.308
 6048TIP3   OH218086   5.111   1.436   1.640
 6048TIP3    H118087   5.147   1.393   1.718
 6048TIP3    H218088   5.073   1.517   1.672
 6049TIP3   OH218089   3.679   3.154   2.450
 6049TIP3    H118090   3.652   3.105   2.372
 6049TIP3    H218091   3.605   3.211   2.469
 6050TIP3   OH218092   2.608   1.239   4.914
 6050TIP3    H118093   2.531   1.262   4.863
 6050TIP3    H218094   2.574   1.180   4.982
 6051TIP3   OH218095   1.380   5.862   1.180
 6051TIP3    H118096   1.304   5.884   1.235
 6051TIP3    H218097   1.435   5.941   1.183
 6052TIP3   OH218098   7.779   7.132   2.440
 6052TIP3    H118099   7.747   7.128   2.531
 6052TIP3    H218100   7.845   7.064   2.435
 6053TIP3   OH218101   5.474   3.951   2.002
 6053TIP3    H118102   5.567   3.952   1.981
 6053TIP3    H218103   5.446   3.861   1.982
 6054TIP3   OH218104   3.272   0.567   1.407
 6054TIP3    H118105   3.185   0.544   1.440
 6054TIP3    H218106   3.283   0.659   1.429
 6055TIP3   OH218107   3.541   1.839   4.278
 6055TIP3    H118108   3.516   1.888   4.356
 6055TIP3    H218109   3.574   1.906   4.217
 6056TIP3   OH218110   0.854   2.448   5.382
 6056TIP3    H118111   0.778   2.482   5.335
 6056TIP3    H218112   0.923   2.441   5.316
 6057TIP3   OH218113   4.872   7.738   6.143
 6057TIP3    H118114   4.922   7.806   6.187
 6057TIP3    H218115   4.857   7.772   6.055
 6058TIP3   OH218116   3.103   4.886   3.548
 6058TIP3    H118117   3.030   4.896   3.487
 6058TIP3    H218118   3.062   4.863   3.631
 6059TIP3   OH218119   2.293   3.385   3.627
 6059TIP3    H118120   2.297   3.421   3.538
 6059TIP3    H218121   2.361   3.318   3.629
 6060TIP3   OH218122   1.812   1.937   3.814
 6060TIP3    H118123   1.829   1.842   3.809
 6060TIP3    H218124   1.897   1.975   3.837
 6061TIP3   OH218125   0.613   4.809   3.612
 6061TIP3    H118126   0.568   4.800   3.696
 6061TIP3    H218127   0.697   4.765   3.626
 6062TIP3   OH218128   7.869   3.845   1.130
 6062TIP3    H118129   7.958   3.850   1.166
 6062TIP3    H218130   7.860   3.923   1.076
 6063TIP3   OH218131   0.887   2.054   2.869
 6063TIP3    H118132   0.934   2.030   2.789
 6063TIP3    H218133   0.956   2.073   2.933
 6064TIP3   OH218134   0.997   3.472   4.400
 6064TIP3    H118135   0.989   3.377   4.392
 6064TIP3    H218136   0.939   3.494   4.473
 6065TIP3   OH218137   5.473   1.074   4.467
 6065TIP3    H118138   5.404   1.135   4.441
 6065TIP3    H218139   5.534   1.128   4.518
 6066TIP3   OH218140   7.256   0.835   0.299
 6066TIP3    H118141   7.192   0.817   0.368
 6066TIP3    H218142   7.235   0.924   0.270
 6067TIP3   OH218143   3.556   6.292   4.190
 6067TIP3    H118144   3.507   6.214   4.164
 6067TIP3    H218145   3.500   6.365   4.165
 6068TIP3   OH218146   5.707   7.136   1.394
 6068TIP3    H118147   5.634   7.194   1.371
 6068TIP3    H218148   5.701   7.128   1.489
 6069TIP3   OH218149   7.800   6.811   6.769
 6069TIP3    H118150   7.819   6.902   6.745
 6069TIP3    H218151   7.704   6.806   6.766
 6070TIP3   OH218152   2.338   7.701   0.711
 6070TIP3    H118153   2.290   7.716   0.792
 6070TIP3    H218154   2.356   7.788   0.677
 6071TIP3   OH218155   0.079   7.830   0.028
 6071TIP3    H118156   0.108   7.893   0.094
 6071TIP3    H218157   0.047   7.756   0.079
 6072TIP3   OH218158   7.982   4.855   0.098
 6072TIP3    H118159   7.965   4.882   0.008
 6072TIP3    H218160   7.916   4.900   0.149
 6073TIP3   OH218161   0.248   7.109   2.220
 6073TIP3    H118162   0.337   7.079   2.201
 6073TIP3    H218163   0.261   7.192   2.267
 6074TIP3   OH218164   7.285   4.223   4.508
 6074TIP3    H118165   7.346   4.176   4.451
 6074TIP3    H218166   7.330   4.228   4.592
 6075TIP3   OH218167   4.479   2.150   5.512
 6075TIP3    H118168   4.444   2.132   5.599
 6075TIP3    H218169   4.530   2.231   5.523
 6076TIP3   OH218170   7.177   1.453   4.568
 6076TIP3    H118171   7.257   1.458   4.516
 6076TIP3    H218172   7.208   1.426   4.655
 6077TIP3   OH218173   0.350   7.036   0.988
 6077TIP3    H118174   0.373   7.129   0.992
 6077TIP3    H218175   0.271   7.028   1.043
 6078TIP3   OH218176   7.275   3.494   1.245
 6078TIP3    H118177   7.190   3.475   1.205
 6078TIP3    H218178   7.260   3.574   1.295
 6079TIP3   OH218179   6.346   3.952   6.434
 6079TIP3    H118180   6.297   3.876   6.404
 6079TIP3    H218181   6.409   3.969   6.364
 6080TIP3   OH218182   1.622   2.455   4.320
 6080TIP3    H118183   1.527   2.453   4.323
 6080TIP3    H218184   1.649   2.374   4.364
 6081TIP3   OH218185   6.845   7.636   5.078
 6081TIP3    H118186   6.777   7.702   5.090
 6081TIP3    H218187   6.927   7.684   5.087
 6082TIP3   OH218188   4.709   1.181   4.663
 6082TIP3    H118189   4.633   1.138   4.625
 6082TIP3    H218190   4.768   1.110   4.687
 6083TIP3   OH218191   1.802   1.403   4.601
 6083TIP3    H118192   1.756   1.385   4.683
 6083TIP3    H218193   1.876   1.343   4.601
 6084TIP3   OH218194   2.137   6.602   6.697
 6084TIP3    H118195   2.164   6.628   6.786
 6084TIP3    H218196   2.049   6.638   6.687
 6085TIP3   OH218197   1.888   2.848   0.249
 6085TIP3    H118198   1.855   2.828   0.336
 6085TIP3    H218199   1.901   2.762   0.208
 6086TIP3   OH218200   0.256   6.172   5.307
 6086TIP3    H118201   0.245   6.109   5.235
 6086TIP3    H218202   0.351   6.177   5.320
 6087TIP3   OH218203   3.961   4.432   4.636
 6087TIP3    H118204   4.012   4.388   4.704
 6087TIP3    H218205   4.022   4.494   4.596
 6088TIP3   OH218206   2.509   5.671   1.062
 6088TIP3    H118207   2.519   5.651   0.969
 6088TIP3    H218208   2.487   5.764   1.064
 6089TIP3   OH218209   6.142   0.038   4.194
 6089TIP3    H118210   6.079   0.090   4.144
 6089TIP3    H218211   6.179  -0.023   4.130
 6090TIP3   OH218212   3.147   6.508   0.137
 6090TIP3    H118213   3.226   6.524   0.189
 6090TIP3    H218214   3.094   6.588   0.148
 6091TIP3   OH218215   1.505   0.115   5.667
 6091TIP3    H118216   1.491   0.203   5.632
 6091TIP3    H218217   1.504   0.127   5.762
 6092TIP3   OH218218   1.439   1.442   5.340
 6092TIP3    H118219   1.530   1.433   5.367
 6092TIP3    H218220   1.391   1.384   5.398
 6093TIP3   OH218221   3.685   5.183   0.923
 6093TIP3    H118222   3.744   5.167   0.850
 6093TIP3    H218223   3.713   5.122   0.991
 6094TIP3   OH218224   6.221   2.381   3.603
 6094TIP3    H118225   6.226   2.430   3.521
 6094TIP3    H218226   6.252   2.293   3.582
 6095TIP3   OH218227   7.880   4.265   4.585
 6095TIP3    H118228   7.912   4.175   4.584
 6095TIP3    H218229   7.788   4.258   4.558
 6096TIP3   OH218230   5.728   1.179   6.366
 6096TIP3    H118231   5.685   1.232   6.434
 6096TIP3    H218232   5.741   1.240   6.293
 6097TIP3   OH218233   3.510   6.538   6.667
 6097TIP3    H118234   3.581   6.528   6.731
 6097TIP3    H218235   3.537   6.485   6.592
 6098TIP3   OH218236   0.458   5.786   5.654
 6098TIP3    H118237   0.459   5.841   5.733
 6098TIP3    H218238   0.477   5.698   5.686
 6099TIP3   OH218239   6.601   3.211   2.398
 6099TIP3    H118240   6.554   3.198   2.480
 6099TIP3    H218241   6.533   3.235   2.335
 6100TIP3   OH218242   0.222   5.753   6.337
 6100TIP3    H118243   0.210   5.681   6.399
 6100TIP3    H218244   0.209   5.833   6.389
 6101TIP3   OH218245   8.056   6.655   2.904
 6101TIP3    H118246   7.981   6.621   2.954
 6101TIP3    H218247   8.075   6.739   2.944
 6102TIP3   OH218248   6.053   4.534   4.966
 6102TIP3    H118249   6.038   4.488   4.883
 6102TIP3    H218250   6.146   4.522   4.983
 6103TIP3   OH218251   3.422   3.497   1.488
 6103TIP3    H118252   3.495   3.438   1.506
 6103TIP3    H218253   3.349   3.439   1.466
 6104TIP3   OH218254   8.137   1.518   2.092
 6104TIP3    H118255   8.222   1.541   2.053
 6104TIP3    H218256   8.074   1.573   2.046
 6105TIP3   OH218257   3.033   6.894   2.637
 6105TIP3    H118258   2.941   6.901   2.661
 6105TIP3    H218259   3.080   6.946   2.702
 6106TIP3   OH218260   1.031   7.323   5.912
 6106TIP3    H118261   1.019   7.294   6.003
 6106TIP3    H218262   1.114   7.371   5.913
 6107TIP3   OH218263   7.853   0.095   1.816
 6107TIP3    H118264   7.767   0.070   1.783
 6107TIP3    H218265   7.915   0.044   1.766
 6108TIP3   OH218266   7.013   3.175   4.063
 6108TIP3    H118267   6.997   3.193   4.156
 6108TIP3    H218268   7.086   3.113   4.063
 6109TIP3   OH218269   2.078   4.675   5.485
 6109TIP3    H118270   1.987   4.705   5.495
 6109TIP3    H218271   2.125   4.719   5.555
 6110TIP3   OH218272   3.051   1.439   1.679
 6110TIP3    H118273   3.115   1.387   1.727
 6110TIP3    H218274   3.027   1.509   1.739
 6111TIP3   OH218275   5.645   7.010   3.142
 6111TIP3    H118276   5.713   7.047   3.199
 6111TIP3    H218277   5.602   6.943   3.196
 6112TIP3   OH218278   1.701   5.478   1.376
 6112TIP3    H118279   1.785   5.523   1.367
 6112TIP3    H218280   1.638   5.549   1.389
 6113TIP3   OH218281   6.203   1.634   1.095
 6113TIP3    H118282   6.227   1.687   1.019
 6113TIP3    H218283   6.115   1.663   1.118
 6114TIP3   OH218284   1.732   5.996   3.943
 6114TIP3    H118285   1.739   5.966   4.034
 6114TIP3    H218286   1.775   5.928   3.892
 6115TIP3   OH218287   1.348   6.314   4.378
 6115TIP3    H118288   1.309   6.367   4.309
 6115TIP3    H218289   1.273   6.266   4.416
 6116TIP3   OH218290   6.527   5.922   4.099
 6116TIP3    H118291   6.512   5.911   4.193
 6116TIP3    H218292   6.525   5.832   4.064
 6117TIP3   OH218293   1.799   6.732   2.903
 6117TIP3    H118294   1.811   6.827   2.897
 6117TIP3    H218295   1.880   6.700   2.943
 6118TIP3   OH218296   0.300   3.647   3.576
 6118TIP3    H118297   0.301   3.595   3.496
 6118TIP3    H218298   0.265   3.732   3.549
 6119TIP3   OH218299   5.837   0.056   4.992
 6119TIP3    H118300   5.791  -0.027   4.987
 6119TIP3    H218301   5.884   0.062   4.909
 6120TIP3   OH218302   3.326   7.560   3.439
 6120TIP3    H118303   3.384   7.635   3.447
 6120TIP3    H218304   3.342   7.526   3.351
 6121TIP3   OH218305   0.053   6.712   0.628
 6121TIP3    H118306  -0.014   6.779   0.637
 6121TIP3    H218307   0.009   6.641   0.580
 6122TIP3   OH218308   5.315   0.961   2.400
 6122TIP3    H118309   5.256   0.942   2.328
 6122TIP3    H218310   5.333   0.875   2.440
 6123TIP3   OH218311   0.828   0.040   0.961
 6123TIP3    H118312   0.779   0.050   0.879
 6123TIP3    H218313   0.761   0.031   1.028
 6124TIP3   OH218314   1.976   3.218   4.166
 6124TIP3    H118315   1.909   3.199   4.100
 6124TIP3    H218316   1.948   3.169   4.243
 6125TIP3   OH218317   7.947   7.333   6.374
 6125TIP3    H118318   7.920   7.358   6.286
 6125TIP3    H218319   8.028   7.284   6.362
 6126TIP3   OH218320   1.800   2.736   2.673
 6126TIP3    H118321   1.762   2.713   2.758
 6126TIP3    H218322   1.888   2.698   2.676
 6127TIP3   OH218323   3.130   4.961   1.669
 6127TIP3    H118324   3.081   4.886   1.704
 6127TIP3    H218325   3.076   4.993   1.597
 6128TIP3   OH218326   3.524   1.347   1.148
 6128TIP3    H118327   3.497   1.435   1.174
 6128TIP3    H218328   3.549   1.304   1.230
 6129TIP3   OH218329   3.883   7.741   4.095
 6129TIP3    H118330   3.926   7.657   4.111
 6129TIP3    H218331   3.814   7.745   4.161
 6130TIP3   OH218332   1.568   0.383   0.887
 6130TIP3    H118333   1.519   0.459   0.917
 6130TIP3    H218334   1.578   0.397   0.793
 6131TIP3   OH218335   2.573   1.066   0.507
 6131TIP3    H118336   2.571   1.084   0.601
 6131TIP3    H218337   2.647   1.117   0.474
 6132TIP3   OH218338   2.277   4.939   1.480
 6132TIP3    H118339   2.194   4.891   1.485
 6132TIP3    H218340   2.252   5.031   1.485
 6133TIP3   OH218341   0.376   1.447   3.652
 6133TIP3    H118342   0.460   1.459   3.697
 6133TIP3    H218343   0.399   1.444   3.559
 6134TIP3   OH218344   7.247   4.251   0.880
 6134TIP3    H118345   7.291   4.257   0.965
 6134TIP3    H218346   7.317   4.233   0.818
 6135TIP3   OH218347   4.361   4.180   4.166
 6135TIP3    H118348   4.426   4.250   4.156
 6135TIP3    H218349   4.395   4.107   4.114
 6136TIP3   OH218350   0.278   6.998   0.569
 6136TIP3    H118351   0.190   7.035   0.571
 6136TIP3    H218352   0.332   7.067   0.529
 6137TIP3   OH218353   2.438   1.476   2.529
 6137TIP3    H118354   2.532   1.483   2.548
 6137TIP3    H218355   2.413   1.564   2.501
 6138TIP3   OH218356   3.210   3.909   3.431
 6138TIP3    H118357   3.256   3.920   3.348
 6138TIP3    H218358   3.140   3.974   3.429
 6139TIP3   OH218359   1.570   5.431   4.219
 6139TIP3    H118360   1.610   5.472   4.143
 6139TIP3    H218361   1.505   5.371   4.183
 6140TIP3   OH218362   5.842   7.160   3.344
 6140TIP3    H118363   5.846   7.152   3.440
 6140TIP3    H218364   5.837   7.254   3.328
 6141TIP3   OH218365   6.452   5.419   1.248
 6141TIP3    H118366   6.529   5.433   1.305
 6141TIP3    H218367   6.396   5.495   1.266
 6142TIP3   OH218368   4.548   2.965   3.762
 6142TIP3    H118369   4.567   3.057   3.777
 6142TIP3    H218370   4.516   2.961   3.672
 6143TIP3   OH218371   7.742   7.089   0.296
 6143TIP3    H118372   7.651   7.060   0.300
 6143TIP3    H218373   7.743   7.153   0.225
 6144TIP3   OH218374   3.641   5.936   4.383
 6144TIP3    H118375   3.605   5.974   4.302
 6144TIP3    H218376   3.733   5.919   4.362
 6145TIP3   OH218377   0.671   4.484   4.324
 6145TIP3    H118378   0.727   4.406   4.315
 6145TIP3    H218379   0.599   4.468   4.262
 6146TIP3   OH218380   5.290   6.246   4.566
 6146TIP3    H118381   5.286   6.280   4.656
 6146TIP3    H218382   5.330   6.317   4.516
 6147TIP3   OH218383   2.811   2.384   1.587
 6147TIP3    H118384   2.788   2.456   1.645
 6147TIP3    H218385   2.895   2.410   1.549
 6148TIP3   OH218386   1.661   4.144   0.784
 6148TIP3    H118387   1.638   4.171   0.695
 6148TIP3    H218388   1.688   4.226   0.827
 6149TIP3   OH218389   1.551   6.577   6.711
 6149TIP3    H118390   1.477   6.631   6.738
 6149TIP3    H218391   1.523   6.536   6.629
 6150TIP3   OH218392   3.950   5.852   3.453
 6150TIP3    H118393   3.920   5.931   3.499
 6150TIP3    H218394   3.889   5.841   3.380
 6151TIP3   OH218395   3.970   6.093   0.633
 6151TIP3    H118396   3.886   6.124   0.598
 6151TIP3    H218397   3.973   6.000   0.609
 6152TIP3   OH218398   3.415   4.783   6.661
 6152TIP3    H118399   3.441   4.829   6.741
 6152TIP3    H218400   3.491   4.789   6.603
 6153TIP3   OH218401   6.488   3.848   1.883
 6153TIP3    H118402   6.540   3.857   1.963
 6153TIP3    H218403   6.400   3.876   1.909
 6154TIP3   OH218404   0.195   2.167   1.714
 6154TIP3    H118405   0.182   2.262   1.722
 6154TIP3    H218406   0.223   2.139   1.801
 6155TIP3   OH218407   2.656   2.420   5.687
 6155TIP3    H118408   2.614   2.379   5.611
 6155TIP3    H218409   2.627   2.512   5.684
 6156TIP3   OH218410   7.726   4.114   5.471
 6156TIP3    H118411   7.818   4.088   5.477
 6156TIP3    H218412   7.718   4.156   5.386
 6157TIP3   OH218413   5.031   6.241   0.091
 6157TIP3    H118414   5.012   6.263   0.000
 6157TIP3    H218415   5.105   6.181   0.086
 6158TIP3   OH218416   3.191   0.481   3.820
 6158TIP3    H118417   3.156   0.503   3.906
 6158TIP3    H218418   3.286   0.492   3.829
 6159TIP3   OH218419   4.191   7.575   2.877
 6159TIP3    H118420   4.222   7.656   2.917
 6159TIP3    H218421   4.263   7.513   2.889
 6160TIP3   OH218422   8.285   0.870   4.632
 6160TIP3    H118423   8.280   0.827   4.547
 6160TIP3    H218424   8.264   0.802   4.695
 6161TIP3   OH218425   3.092   4.968   4.404
 6161TIP3    H118426   3.085   5.034   4.335
 6161TIP3    H218427   3.039   5.003   4.475
 6162TIP3   OH218428   6.884   7.659   4.398
 6162TIP3    H118429   6.932   7.604   4.459
 6162TIP3    H218430   6.806   7.688   4.446
 6163TIP3   OH218431   6.541   3.930   3.378
 6163TIP3    H118432   6.544   4.015   3.334
 6163TIP3    H218433   6.596   3.942   3.455
 6164TIP3   OH218434   0.364   1.522   2.688
 6164TIP3    H118435   0.356   1.579   2.764
 6164TIP3    H218436   0.454   1.491   2.690
 6165TIP3   OH218437   3.059   2.012   3.146
 6165TIP3    H118438   3.031   2.015   3.237
 6165TIP3    H218439   3.155   2.016   3.150
 6166TIP3   OH218440   8.125   0.043   1.057
 6166TIP3    H118441   8.145   0.109   0.992
 6166TIP3    H218442   8.029   0.047   1.067
 6167TIP3   OH218443   2.852   7.589   6.021
 6167TIP3    H118444   2.874   7.682   6.020
 6167TIP3    H218445   2.824   7.570   5.931
 6168TIP3   OH218446   2.543   6.866   0.571
 6168TIP3    H118447   2.464   6.845   0.521
 6168TIP3    H218448   2.536   6.960   0.589
 6169TIP3   OH218449   4.089   3.245   1.798
 6169TIP3    H118450   4.184   3.239   1.798
 6169TIP3    H218451   4.064   3.235   1.890
 6170TIP3   OH218452   1.333   0.857   3.234
 6170TIP3    H118453   1.345   0.947   3.264
 6170TIP3    H218454   1.258   0.861   3.175
 6171TIP3   OH218455   7.250   4.510   4.069
 6171TIP3    H118456   7.318   4.451   4.037
 6171TIP3    H218457   7.224   4.561   3.993
 6172TIP3   OH218458   4.080   2.027   1.671
 6172TIP3    H118459   4.140   2.101   1.680
 6172TIP3    H218460   4.025   2.030   1.748
 6173TIP3   OH218461   6.053   2.543   3.767
 6173TIP3    H118462   6.097   2.482   3.707
 6173TIP3    H218463   6.059   2.628   3.724
 6174TIP3   OH218464   0.271   5.588   5.247
 6174TIP3    H118465   0.249   5.627   5.331
 6174TIP3    H218466   0.226   5.644   5.183
 6175TIP3   OH218467   5.275   0.687   6.372
 6175TIP3    H118468   5.272   0.708   6.465
 6175TIP3    H218469   5.361   0.715   6.343
 6176TIP3   OH218470   3.567   3.869   3.588
 6176TIP3    H118471   3.621   3.796   3.619
 6176TIP3    H218472   3.607   3.895   3.505
 6177TIP3   OH218473   1.998   1.567   6.512
 6177TIP3    H118474   2.048   1.578   6.431
 6177TIP3    H218475   1.910   1.598   6.489
 6178TIP3   OH218476   1.196   2.294   4.521
 6178TIP3    H118477   1.122   2.237   4.539
 6178TIP3    H218478   1.178   2.374   4.570
 6179TIP3   OH218479   7.744   2.987  -0.036
 6179TIP3    H118480   7.826   2.944  -0.012
 6179TIP3    H218481   7.734   3.057   0.029
 6180TIP3   OH218482   5.036   1.955   0.256
 6180TIP3    H118483   5.060   1.900   0.331
 6180TIP3    H218484   5.115   2.006   0.237
 6181TIP3   OH218485   4.957   3.501   4.861
 6181TIP3    H118486   4.912   3.512   4.944
 6181TIP3    H218487   4.949   3.408   4.841
 6182TIP3   OH218488   6.852   2.499   4.448
 6182TIP3    H118489   6.843   2.408   4.474
 6182TIP3    H218490   6.883   2.496   4.357
 6183TIP3   OH218491   0.055   7.638   0.943
 6183TIP3    H118492   0.144   7.603   0.948
 6183TIP3    H218493   0.038   7.646   0.849
 6184TIP3   OH218494   2.870   1.059   1.895
 6184TIP3    H118495   2.926   1.110   1.954
 6184TIP3    H218496   2.911   0.973   1.892
 6185TIP3   OH218497   5.960   5.198   1.518
 6185TIP3    H118498   5.879   5.202   1.467
 6185TIP3    H218499   5.936   5.233   1.604
 6186TIP3   OH218500   2.571   5.944   2.543
 6186TIP3    H118501   2.660   5.966   2.516
 6186TIP3    H218502   2.550   6.007   2.611
 6187TIP3   OH218503   7.178   1.275   6.663
 6187TIP3    H118504   7.145   1.325   6.737
 6187TIP3    H218505   7.118   1.202   6.654
 6188TIP3   OH218506   4.121   6.323   0.688
 6188TIP3    H118507   4.071   6.351   0.765
 6188TIP3    H218508   4.087   6.236   0.668
 6189TIP3   OH218509   6.741   1.327   5.941
 6189TIP3    H118510   6.779   1.365   6.020
 6189TIP3    H218511   6.724   1.235   5.964
 6190TIP3   OH218512   8.249   2.428   4.937
 6190TIP3    H118513   8.182   2.469   4.883
 6190TIP3    H218514   8.236   2.466   5.024
 6191TIP3   OH218515   6.630   2.200   5.524
 6191TIP3    H118516   6.587   2.280   5.494
 6191TIP3    H218517   6.714   2.199   5.478
 6192TIP3   OH218518   2.810   4.115   2.978
 6192TIP3    H118519   2.721   4.144   2.958
 6192TIP3    H218520   2.860   4.139   2.901
 6193TIP3   OH218521   0.981   6.634   2.467
 6193TIP3    H118522   0.893   6.599   2.483
 6193TIP3    H218523   0.973   6.681   2.384
 6194TIP3   OH218524   8.001   6.493   2.558
 6194TIP3    H118525   8.008   6.455   2.645
 6194TIP3    H218526   7.909   6.518   2.550
 6195TIP3   OH218527   0.781   4.400   6.517
 6195TIP3    H118528   0.828   4.318   6.534
 6195TIP3    H218529   0.809   4.458   6.587
 6196TIP3   OH218530   4.401   7.413   4.881
 6196TIP3    H118531   4.422   7.334   4.831
 6196TIP3    H218532   4.485   7.455   4.896
 6197TIP3   OH218533   1.398   6.785   5.782
 6197TIP3    H118534   1.374   6.836   5.704
 6197TIP3    H218535   1.446   6.710   5.747
 6198TIP3   OH218536   5.760   2.746   1.901
 6198TIP3    H118537   5.837   2.742   1.958
 6198TIP3    H218538   5.774   2.823   1.847
 6199TIP3   OH218539   3.062   2.506   6.430
 6199TIP3    H118540   3.115   2.441   6.476
 6199TIP3    H218541   3.074   2.587   6.480
 6200TIP3   OH218542   2.502   5.343   1.293
 6200TIP3    H118543   2.596   5.328   1.300
 6200TIP3    H218544   2.489   5.366   1.201
 6201TIP3   OH218545   3.498   1.652   2.768
 6201TIP3    H118546   3.425   1.591   2.774
 6201TIP3    H218547   3.557   1.626   2.838
 6202TIP3   OH218548   0.870   5.877   0.659
 6202TIP3    H118549   0.837   5.788   0.647
 6202TIP3    H218550   0.834   5.926   0.585
 6203TIP3   OH218551   3.874   5.603   3.611
 6203TIP3    H118552   3.904   5.537   3.549
 6203TIP3    H218553   3.868   5.683   3.560
 6204TIP3   OH218554   2.115   0.060   4.920
 6204TIP3    H118555   2.208   0.056   4.942
 6204TIP3    H218556   2.077  -0.018   4.960
 6205TIP3   OH218557   7.849   1.789   5.327
 6205TIP3    H118558   7.873   1.778   5.419
 6205TIP3    H218559   7.775   1.731   5.314
 6206TIP3   OH218560   5.444   1.235   1.120
 6206TIP3    H118561   5.502   1.177   1.072
 6206TIP3    H218562   5.356   1.202   1.102
 6207TIP3   OH218563   1.370   0.570   3.226
 6207TIP3    H118564   1.314   0.494   3.243
 6207TIP3    H218565   1.312   0.645   3.240
 6208TIP3   OH218566   4.608   6.481   4.657
 6208TIP3    H118567   4.549   6.424   4.706
 6208TIP3    H218568   4.695   6.444   4.672
 6209TIP3   OH218569   5.901   5.271   5.697
 6209TIP3    H118570   5.836   5.341   5.690
 6209TIP3    H218571   5.967   5.305   5.756
 6210TIP3   OH218572   6.488   6.677   2.543
 6210TIP3    H118573   6.541   6.601   2.569
 6210TIP3    H218574   6.402   6.660   2.582
 6211TIP3   OH218575   6.208   7.449   5.384
 6211TIP3    H118576   6.215   7.394   5.462
 6211TIP3    H218577   6.294   7.491   5.376
 6212TIP3   OH218578   6.323   3.345   0.373
 6212TIP3    H118579   6.404   3.321   0.417
 6212TIP3    H218580   6.318   3.440   0.381
 6213TIP3   OH218581   2.207   7.787  -0.003
 6213TIP3    H118582   2.170   7.707   0.035
 6213TIP3    H218583   2.275   7.814   0.059
 6214TIP3   OH218584   6.854   0.995   3.653
 6214TIP3    H118585   6.862   0.947   3.736
 6214TIP3    H218586   6.940   0.985   3.611
 6215TIP3   OH218587   5.898   3.428   4.066
 6215TIP3    H118588   5.858   3.350   4.027
 6215TIP3    H218589   5.974   3.394   4.114
 6216TIP3   OH218590   6.687   1.272   3.998
 6216TIP3    H118591   6.706   1.202   4.060
 6216TIP3    H218592   6.605   1.245   3.956
 6217TIP3   OH218593   1.086   4.766   6.540
 6217TIP3    H118594   1.140   4.719   6.476
 6217TIP3    H218595   1.150   4.815   6.593
 6218TIP3   OH218596   4.594   6.521   1.703
 6218TIP3    H118597   4.651   6.598   1.705
 6218TIP3    H218598   4.634   6.460   1.765
 6219TIP3   OH218599   1.378   7.354   5.307
 6219TIP3    H118600   1.423   7.433   5.278
 6219TIP3    H218601   1.297   7.385   5.347
 6220TIP3   OH218602   5.548   3.332   0.078
 6220TIP3    H118603   5.572   3.424   0.091
 6220TIP3    H218604   5.521   3.327  -0.013
 6221TIP3   OH218605   7.261   5.092   2.777
 6221TIP3    H118606   7.265   5.179   2.738
 6221TIP3    H218607   7.250   5.033   2.703
 6222TIP3   OH218608   7.681   0.981   3.682
 6222TIP3    H118609   7.692   0.950   3.592
 6222TIP3    H218610   7.587   0.976   3.698
 6223TIP3   OH218611   3.365   7.793   2.388
 6223TIP3    H118612   3.435   7.766   2.447
 6223TIP3    H218613   3.305   7.718   2.387
 6224TIP3   OH218614   5.278   6.771   0.521
 6224TIP3    H118615   5.302   6.710   0.590
 6224TIP3    H218616   5.290   6.721   0.440
 6225TIP3   OH218617   1.327   5.949   5.047
 6225TIP3    H118618   1.279   5.885   4.994
 6225TIP3    H218619   1.323   5.915   5.136
 6226TIP3   OH218620   2.699   1.152   1.700
 6226TIP3    H118621   2.751   1.130   1.777
 6226TIP3    H218622   2.636   1.081   1.692
 6227TIP3   OH218623   7.181   1.410   2.445
 6227TIP3    H118624   7.140   1.486   2.487
 6227TIP3    H218625   7.108   1.354   2.420
 6228TIP3   OH218626   4.550   6.639   1.287
 6228TIP3    H118627   4.594   6.572   1.337
 6228TIP3    H218628   4.562   6.720   1.337
 6229TIP3   OH218629   5.017   5.260   2.795
 6229TIP3    H118630   5.036   5.353   2.805
 6229TIP3    H218631   5.102   5.218   2.785
 6230TIP3   OH218632   7.056   0.073   6.353
 6230TIP3    H118633   7.115  -0.003   6.355
 6230TIP3    H218634   7.056   0.106   6.443
 6231TIP3   OH218635   2.733   5.730   3.622
 6231TIP3    H118636   2.764   5.807   3.671
 6231TIP3    H218637   2.650   5.758   3.583
 6232TIP3   OH218638   0.745   5.648   0.357
 6232TIP3    H118639   0.731   5.742   0.371
 6232TIP3    H218640   0.679   5.606   0.413
 6233TIP3   OH218641   7.073   4.536   6.074
 6233TIP3    H118642   7.008   4.575   6.015
 6233TIP3    H218643   7.156   4.544   6.026
 6234TIP3   OH218644   4.656   7.156   4.604
 6234TIP3    H118645   4.684   7.100   4.676
 6234TIP3    H218646   4.737   7.186   4.564
 6235TIP3   OH218647   0.389   2.860   6.702
 6235TIP3    H118648   0.295   2.849   6.691
 6235TIP3    H218649   0.428   2.804   6.634
 6236TIP3   OH218650   8.186   1.111   2.263
 6236TIP3    H118651   8.152   1.195   2.292
 6236TIP3    H218652   8.269   1.132   2.219
 6237TIP3   OH218653   0.230   2.019   1.270
 6237TIP3    H118654   0.224   1.971   1.187
 6237TIP3    H218655   0.139   2.030   1.298
 6238TIP3   OH218656   7.494   4.967   0.065
 6238TIP3    H118657   7.497   5.054   0.028
 6238TIP3    H218658   7.462   4.980   0.155
 6239TIP3   OH218659   2.854   5.553   0.091
 6239TIP3    H118660   2.934   5.601   0.113
 6239TIP3    H218661   2.886   5.467   0.062
 6240TIP3   OH218662   3.570   6.378   6.453
 6240TIP3    H118663   3.608   6.424   6.378
 6240TIP3    H218664   3.480   6.359   6.426
 6241TIP3   OH218665   3.388   0.099   4.067
 6241TIP3    H118666   3.372   0.025   4.009
 6241TIP3    H218667   3.302   0.135   4.085
 6242TIP3   OH218668   7.919   5.675   4.583
 6242TIP3    H118669   7.960   5.648   4.501
 6242TIP3    H218670   7.833   5.632   4.583
 6243TIP3   OH218671   5.903   4.774   0.186
 6243TIP3    H118672   5.971   4.771   0.119
 6243TIP3    H218673   5.949   4.762   0.269
 6244TIP3   OH218674   5.546   4.056   5.895
 6244TIP3    H118675   5.508   4.141   5.918
 6244TIP3    H218676   5.522   4.043   5.803
 6245TIP3   OH218677   7.292   2.788   2.078
 6245TIP3    H118678   7.223   2.797   2.012
 6245TIP3    H218679   7.277   2.701   2.116
 6246TIP3   OH218680   0.608   1.040   4.473
 6246TIP3    H118681   0.580   1.020   4.563
 6246TIP3    H218682   0.540   1.099   4.440
 6247TIP3   OH218683   3.469   6.534   0.910
 6247TIP3    H118684   3.503   6.623   0.918
 6247TIP3    H218685   3.378   6.541   0.938
 6248TIP3   OH218686   0.982   0.246   0.434
 6248TIP3    H118687   0.926   0.184   0.480
 6248TIP3    H218688   1.030   0.291   0.503
 6249TIP3   OH218689   8.334   2.941   0.915
 6249TIP3    H118690   8.299   2.921   1.002
 6249TIP3    H218691   8.259   2.972   0.865
 6250TIP3   OH218692   4.976   6.953   0.428
 6250TIP3    H118693   4.917   6.936   0.501
 6250TIP3    H218694   4.919   6.977   0.355
 6251TIP3   OH218695   7.139   2.731   0.327
 6251TIP3    H118696   7.045   2.739   0.309
 6251TIP3    H218697   7.151   2.640   0.354
 6252TIP3   OH218698   5.286   4.487   2.738
 6252TIP3    H118699   5.242   4.420   2.790
 6252TIP3    H218700   5.219   4.518   2.677
 6253TIP3   OH218701   5.327   3.496   6.590
 6253TIP3    H118702   5.408   3.461   6.626
 6253TIP3    H218703   5.346   3.510   6.497
 6254TIP3   OH218704   8.317   3.529   2.547
 6254TIP3    H118705   8.223   3.516   2.536
 6254TIP3    H218706   8.347   3.447   2.587
 6255TIP3   OH218707   2.043   2.972   0.860
 6255TIP3    H118708   1.991   2.978   0.780
 6255TIP3    H218709   2.132   2.954   0.829
 6256TIP3   OH218710   6.925   0.217   1.326
 6256TIP3    H118711   6.908   0.289   1.265
 6256TIP3    H218712   6.845   0.166   1.325
 6257TIP3   OH218713   3.815   3.262   3.916
 6257TIP3    H118714   3.743   3.245   3.976
 6257TIP3    H218715   3.844   3.176   3.887
 6258TIP3   OH218716   1.022   4.512   3.101
 6258TIP3    H118717   1.053   4.442   3.158
 6258TIP3    H218718   1.100   4.546   3.059
 6259TIP3   OH218719   4.817   6.221   1.681
 6259TIP3    H118720   4.743   6.230   1.741
 6259TIP3    H218721   4.894   6.240   1.734
 6260TIP3   OH218722   5.263   1.445   5.852
 6260TIP3    H118723   5.295   1.535   5.863
 6260TIP3    H218724   5.319   1.408   5.783
 6261TIP3   OH218725   6.045   5.066   0.100
 6261TIP3    H118726   6.096   5.090   0.022
 6261TIP3    H218727   5.967   5.023   0.065
 6262TIP3   OH218728   5.547   7.782   5.306
 6262TIP3    H118729   5.640   7.795   5.286
 6262TIP3    H218730   5.519   7.864   5.346
 6263TIP3   OH218731   3.184   3.118   2.570
 6263TIP3    H118732   3.094   3.114   2.600
 6263TIP3    H218733   3.229   3.048   2.619
 6264TIP3   OH218734   2.557   6.064   1.959
 6264TIP3    H118735   2.473   6.071   2.004
 6264TIP3    H218736   2.535   6.066   1.866
 6265TIP3   OH218737   1.635   3.062   6.672
 6265TIP3    H118738   1.599   3.071   6.584
 6265TIP3    H218739   1.635   2.968   6.689
 6266TIP3   OH218740   3.409   3.302   3.748
 6266TIP3    H118741   3.448   3.222   3.712
 6266TIP3    H218742   3.402   3.286   3.842
 6267TIP3   OH218743   6.206   4.422   5.429
 6267TIP3    H118744   6.270   4.355   5.453
 6267TIP3    H218745   6.257   4.502   5.418
 6268TIP3   OH218746   5.625   5.919   4.370
 6268TIP3    H118747   5.620   5.825   4.390
 6268TIP3    H218748   5.587   5.962   4.446
 6269TIP3   OH218749   1.973   4.432   5.151
 6269TIP3    H118750   1.933   4.519   5.150
 6269TIP3    H218751   2.026   4.430   5.230
 6270TIP3   OH218752   1.492   4.603   6.745
 6270TIP3    H118753   1.587   4.600   6.762
 6270TIP3    H218754   1.486   4.615   6.650
 6271TIP3   OH218755   2.466   0.868   0.237
 6271TIP3    H118756   2.386   0.894   0.283
 6271TIP3    H218757   2.446   0.782   0.201
 6272TIP3   OH218758   6.575   0.210   5.222
 6272TIP3    H118759   6.513   0.249   5.161
 6272TIP3    H218760   6.609   0.133   5.176
 6273TIP3   OH218761   6.163   1.764   4.270
 6273TIP3    H118762   6.068   1.751   4.277
 6273TIP3    H218763   6.177   1.789   4.178
 6274TIP3   OH218764   5.765   1.673   3.121
 6274TIP3    H118765   5.783   1.592   3.169
 6274TIP3    H218766   5.708   1.645   3.049
 6275TIP3   OH218767   6.607   3.951   0.659
 6275TIP3    H118768   6.673   4.019   0.675
 6275TIP3    H218769   6.626   3.883   0.724
 6276TIP3   OH218770   8.003   4.887   5.675
 6276TIP3    H118771   8.002   4.834   5.754
 6276TIP3    H218772   8.095   4.889   5.648
 6277TIP3   OH218773   6.818   3.174   0.023
 6277TIP3    H118774   6.775   3.241   0.077
 6277TIP3    H218775   6.902   3.213  -0.001
 6278TIP3   OH218776   2.147   1.579   0.762
 6278TIP3    H118777   2.135   1.666   0.724
 6278TIP3    H218778   2.075   1.570   0.824
 6279TIP3   OH218779   4.415   4.930   3.821
 6279TIP3    H118780   4.449   5.015   3.796
 6279TIP3    H218781   4.387   4.941   3.912
 6280TIP3   OH218782   4.514   1.936   2.474
 6280TIP3    H118783   4.544   1.957   2.386
 6280TIP3    H218784   4.458   2.009   2.500
 6281TIP3   OH218785   1.447   4.112   5.918
 6281TIP3    H118786   1.367   4.094   5.869
 6281TIP3    H218787   1.449   4.045   5.987
 6282TIP3   OH218788   2.663   4.789   3.318
 6282TIP3    H118789   2.571   4.796   3.293
 6282TIP3    H218790   2.668   4.830   3.404
 6283TIP3   OH218791   7.893   0.390   0.792
 6283TIP3    H118792   7.817   0.389   0.850
 6283TIP3    H218793   7.966   0.366   0.849
 6284TIP3   OH218794   3.787   1.455   0.466
 6284TIP3    H118795   3.743   1.443   0.550
 6284TIP3    H218796   3.875   1.484   0.490
 6285TIP3   OH218797   6.184   3.043   0.233
 6285TIP3    H118798   6.159   3.061   0.143
 6285TIP3    H218799   6.268   3.089   0.244
 6286TIP3   OH218800   2.901   3.774   1.410
 6286TIP3    H118801   2.956   3.778   1.489
 6286TIP3    H218802   2.859   3.859   1.406
 6287TIP3   OH218803   5.324   7.413   2.934
 6287TIP3    H118804   5.387   7.460   2.880
 6287TIP3    H218805   5.371   7.336   2.966
 6288TIP3   OH218806  -0.001   5.641   0.086
 6288TIP3    H118807   0.032   5.731   0.078
 6288TIP3    H218808   0.067   5.587   0.047
 6289TIP3   OH218809   1.202   2.726   1.040
 6289TIP3    H118810   1.283   2.718   1.090
 6289TIP3    H218811   1.228   2.770   0.959
 6290TIP3   OH218812   2.217   2.837   5.444
 6290TIP3    H118813   2.127   2.806   5.435
 6290TIP3    H218814   2.232   2.890   5.366
 6291TIP3   OH218815   3.037   0.074   2.091
 6291TIP3    H118816   2.984   0.024   2.153
 6291TIP3    H218817   3.008   0.044   2.005
 6292TIP3   OH218818   3.908   1.314   0.746
 6292TIP3    H118819   3.972   1.348   0.808
 6292TIP3    H218820   3.830   1.368   0.758
 6293TIP3   OH218821   1.578   3.452   1.235
 6293TIP3    H118822   1.637   3.510   1.282
 6293TIP3    H218823   1.512   3.510   1.198
 6294TIP3   OH218824   4.068   2.410   6.316
 6294TIP3    H118825   4.095   2.501   6.328
 6294TIP3    H218826   4.096   2.389   6.227
 6295TIP3   OH218827   7.546   4.026   2.617
 6295TIP3    H118828   7.519   4.115   2.595
 6295TIP3    H218829   7.556   3.982   2.533
 6296TIP3   OH218830   5.311   7.488   3.206
 6296TIP3    H118831   5.394   7.484   3.253
 6296TIP3    H218832   5.335   7.476   3.114
 6297TIP3   OH218833   0.425   6.659   2.541
 6297TIP3    H118834   0.331   6.672   2.539
 6297TIP3    H218835   0.449   6.636   2.451
 6298TIP3   OH218836   1.690   0.227   2.967
 6298TIP3    H118837   1.682   0.135   2.941
 6298TIP3    H218838   1.690   0.275   2.884
 6299TIP3   OH218839   0.147   5.011   6.330
 6299TIP3    H118840   0.234   4.974   6.344
 6299TIP3    H218841   0.105   5.006   6.416
 6300TIP3   OH218842   2.061   6.929   0.836
 6300TIP3    H118843   2.030   6.894   0.920
 6300TIP3    H218844   2.018   6.875   0.770
 6301TIP3   OH218845   0.574   4.737   3.165
 6301TIP3    H118846   0.599   4.799   3.097
 6301TIP3    H218847   0.506   4.683   3.126
 6302TIP3   OH218848   3.968   4.016   1.663
 6302TIP3    H118849   3.977   4.111   1.654
 6302TIP3    H218850   3.981   4.001   1.757
 6303TIP3   OH218851   7.883   3.727   6.329
 6303TIP3    H118852   7.889   3.795   6.263
 6303TIP3    H218853   7.946   3.752   6.396
 6304TIP3   OH218854   3.999   3.923   6.380
 6304TIP3    H118855   3.966   3.998   6.430
 6304TIP3    H218856   4.091   3.915   6.407
 6305TIP3   OH218857   1.899   7.072   6.758
 6305TIP3    H118858   1.897   6.977   6.753
 6305TIP3    H218859   1.923   7.091   6.849
 6306TIP3   OH218860   6.353   6.920   4.734
 6306TIP3    H118861   6.425   6.955   4.786
 6306TIP3    H218862   6.384   6.834   4.704
 6307TIP3   OH218863   2.697   1.631   2.080
 6307TIP3    H118864   2.731   1.621   1.991
 6307TIP3    H218865   2.664   1.544   2.102
 6308TIP3   OH218866   0.874   5.149   4.201
 6308TIP3    H118867   0.844   5.107   4.121
 6308TIP3    H218868   0.905   5.077   4.256
 6309TIP3   OH218869   5.564   1.110   3.232
 6309TIP3    H118870   5.537   1.019   3.242
 6309TIP3    H218871   5.629   1.124   3.301
 6310TIP3   OH218872   6.354   6.789   5.040
 6310TIP3    H118873   6.297   6.865   5.024
 6310TIP3    H218874   6.331   6.727   4.971
 6311TIP3   OH218875   4.182   4.701   0.876
 6311TIP3    H118876   4.276   4.716   0.864
 6311TIP3    H218877   4.167   4.614   0.840
 6312TIP3   OH218878   4.468   1.005   2.366
 6312TIP3    H118879   4.523   1.015   2.289
 6312TIP3    H218880   4.490   0.919   2.401
 6313TIP3   OH218881   2.941   6.883   6.354
 6313TIP3    H118882   2.976   6.931   6.429
 6313TIP3    H218883   3.018   6.860   6.301
 6314TIP3   OH218884   5.948   1.183   0.808
 6314TIP3    H118885   5.929   1.272   0.777
 6314TIP3    H218886   5.964   1.193   0.902
 6315TIP3   OH218887   7.615   5.522   0.295
 6315TIP3    H118888   7.651   5.506   0.207
 6315TIP3    H218889   7.527   5.484   0.291
 6316TIP3   OH218890   1.460   2.119   0.373
 6316TIP3    H118891   1.463   2.025   0.359
 6316TIP3    H218892   1.387   2.150   0.319
 6317TIP3   OH218893   7.862   7.626   0.718
 6317TIP3    H118894   7.828   7.593   0.634
 6317TIP3    H218895   7.851   7.721   0.713
 6318TIP3   OH218896   4.309   4.703   3.121
 6318TIP3    H118897   4.404   4.689   3.114
 6318TIP3    H218898   4.287   4.760   3.047
 6319TIP3   OH218899   4.157   5.904   4.518
 6319TIP3    H118900   4.143   5.821   4.473
 6319TIP3    H218901   4.160   5.969   4.448
 6320TIP3   OH218902   5.638   6.552   5.030
 6320TIP3    H118903   5.734   6.552   5.033
 6320TIP3    H218904   5.617   6.564   4.938
 6321TIP3   OH218905   6.515   3.924   3.714
 6321TIP3    H118906   6.533   3.858   3.781
 6321TIP3    H218907   6.434   3.895   3.673
 6322TIP3   OH218908   4.710   2.503   3.680
 6322TIP3    H118909   4.643   2.565   3.710
 6322TIP3    H218910   4.687   2.421   3.722
 6323TIP3   OH218911   1.388   4.882   0.733
 6323TIP3    H118912   1.444   4.805   0.747
 6323TIP3    H218913   1.448   4.949   0.700
 6324TIP3   OH218914   0.856   5.056   3.880
 6324TIP3    H118915   0.881   4.969   3.913
 6324TIP3    H218916   0.923   5.077   3.815
 6325TIP3   OH218917   2.491   7.387   3.229
 6325TIP3    H118918   2.494   7.432   3.313
 6325TIP3    H218919   2.401   7.353   3.223
 6326TIP3   OH218920   8.184   7.448   5.156
 6326TIP3    H118921   8.231   7.531   5.166
 6326TIP3    H218922   8.244   7.392   5.108
 6327TIP3   OH218923   7.464   2.269   2.207
 6327TIP3    H118924   7.441   2.256   2.115
 6327TIP3    H218925   7.500   2.184   2.234
 6328TIP3   OH218926   2.436   6.921   2.620
 6328TIP3    H118927   2.409   7.012   2.606
 6328TIP3    H218928   2.510   6.927   2.680
 6329TIP3   OH218929   6.004   1.768   2.970
 6329TIP3    H118930   6.030   1.860   2.959
 6329TIP3    H218931   5.909   1.771   2.978
 6330TIP3   OH218932   1.763   1.710   5.981
 6330TIP3    H118933   1.802   1.623   5.982
 6330TIP3    H218934   1.837   1.770   5.987
 6331TIP3   OH218935   6.499   3.468   2.636
 6331TIP3    H118936   6.428   3.511   2.590
 6331TIP3    H218937   6.486   3.374   2.619
 6332TIP3   OH218938   2.293   1.552   1.097
 6332TIP3    H118939   2.334   1.498   1.030
 6332TIP3    H218940   2.204   1.566   1.066
 6333TIP3   OH218941   4.237   4.582   1.423
 6333TIP3    H118942   4.243   4.487   1.435
 6333TIP3    H218943   4.213   4.593   1.331
 6334TIP3   OH218944   1.823   2.476   0.686
 6334TIP3    H118945   1.766   2.399   0.688
 6334TIP3    H218946   1.912   2.440   0.684
 6335TIP3   OH218947   0.149   6.613   1.124
 6335TIP3    H118948   0.090   6.688   1.128
 6335TIP3    H218949   0.177   6.609   1.033
 6336TIP3   OH218950   2.703   4.271   3.377
 6336TIP3    H118951   2.702   4.318   3.293
 6336TIP3    H218952   2.694   4.340   3.443
 6337TIP3   OH218953   7.746   0.071   0.707
 6337TIP3    H118954   7.824   0.115   0.741
 6337TIP3    H218955   7.775   0.029   0.626
 6338TIP3   OH218956   8.339   0.081   2.912
 6338TIP3    H118957   8.374   0.070   2.824
 6338TIP3    H218958   8.253   0.039   2.909
 6339TIP3   OH218959   2.945   7.710   0.093
 6339TIP3    H118960   2.954   7.666   0.009
 6339TIP3    H218961   2.944   7.639   0.157
 6340TIP3   OH218962   7.546   1.420   5.931
 6340TIP3    H118963   7.591   1.339   5.953
 6340TIP3    H218964   7.453   1.400   5.942
 6341TIP3   OH218965   6.011   3.823   5.524
 6341TIP3    H118966   5.999   3.913   5.552
 6341TIP3    H218967   6.008   3.771   5.604
 6342TIP3   OH218968   5.083   4.167   0.905
 6342TIP3    H118969   5.023   4.119   0.963
 6342TIP3    H218970   5.161   4.112   0.900
 6343TIP3   OH218971   5.029   1.066   0.125
 6343TIP3    H118972   5.103   1.010   0.101
 6343TIP3    H218973   5.068   1.136   0.177
 6344TIP3   OH218974   3.060   6.032   4.468
 6344TIP3    H118975   3.018   5.971   4.529
 6344TIP3    H218976   3.153   6.024   4.485
 6345TIP3   OH218977   1.172   2.056   5.426
 6345TIP3    H118978   1.127   2.108   5.359
 6345TIP3    H218979   1.236   2.004   5.377
 6346TIP3   OH218980   0.942   0.721   2.099
 6346TIP3    H118981   0.901   0.683   2.022
 6346TIP3    H218982   0.942   0.651   2.164
 6347TIP3   OH218983   2.045   4.117   2.371
 6347TIP3    H118984   1.952   4.135   2.384
 6347TIP3    H218985   2.077   4.092   2.458
 6348TIP3   OH218986   2.956   5.311   1.330
 6348TIP3    H118987   2.908   5.257   1.268
 6348TIP3    H218988   3.018   5.360   1.276
 6349TIP3   OH218989   4.108   2.898   0.926
 6349TIP3    H118990   4.155   2.819   0.898
 6349TIP3    H218991   4.083   2.941   0.845
 6350TIP3   OH218992   5.433   5.592   4.883
 6350TIP3    H118993   5.425   5.643   4.964
 6350TIP3    H218994   5.519   5.549   4.890
 6351TIP3   OH218995   8.215   3.375   4.658
 6351TIP3    H118996   8.180   3.414   4.578
 6351TIP3    H218997   8.298   3.421   4.673
 6352TIP3   OH218998   7.861   1.949   5.088
 6352TIP3    H118999   7.852   2.042   5.109
 6352TIP3    H219000   7.875   1.906   5.172
 6353TIP3   OH219001   2.393   5.410   0.278
 6353TIP3    H119002   2.421   5.319   0.275
 6353TIP3    H219003   2.418   5.446   0.193
 6354TIP3   OH219004   6.374   1.276   6.231
 6354TIP3    H119005   6.450   1.328   6.256
 6354TIP3    H219006   6.400   1.185   6.249
 6355TIP3   OH219007   0.511   3.587   2.772
 6355TIP3    H119008   0.482   3.500   2.798
 6355TIP3    H219009   0.504   3.640   2.852
 6356TIP3   OH219010   2.710   7.263   1.842
 6356TIP3    H119011   2.623   7.257   1.882
 6356TIP3    H219012   2.732   7.173   1.819
 6357TIP3   OH219013   4.223   4.325   1.402
 6357TIP3    H119014   4.250   4.264   1.471
 6357TIP3    H219015   4.187   4.270   1.333
 6358TIP3   OH219016   4.621   6.540   0.741
 6358TIP3    H119017   4.565   6.479   0.693
 6358TIP3    H219018   4.679   6.484   0.792
 6359TIP3   OH219019   7.755   2.879   1.930
 6359TIP3    H119020   7.759   2.965   1.973
 6359TIP3    H219021   7.844   2.844   1.939
 6360TIP3   OH219022   0.708   2.311   2.270
 6360TIP3    H119023   0.705   2.398   2.311
 6360TIP3    H219024   0.669   2.324   2.183
 6361TIP3   OH219025   5.855   3.701   3.815
 6361TIP3    H119026   5.841   3.680   3.723
 6361TIP3    H219027   5.778   3.751   3.841
 6362TIP3   OH219028   2.003   3.417   3.310
 6362TIP3    H119029   1.985   3.325   3.329
 6362TIP3    H219030   2.074   3.414   3.245
 6363TIP3   OH219031   6.489   4.210   2.074
 6363TIP3    H119032   6.537   4.284   2.110
 6363TIP3    H219033   6.407   4.247   2.041
 6364TIP3   OH219034   6.303   3.575   4.021
 6364TIP3    H119035   6.208   3.588   4.018
 6364TIP3    H219036   6.317   3.494   3.973
 6365TIP3   OH219037   3.817   2.286   6.692
 6365TIP3    H119038   3.723   2.295   6.707
 6365TIP3    H219039   3.836   2.194   6.711
 6366TIP3   OH219040   1.454   0.074   2.541
 6366TIP3    H119041   1.514   0.149   2.539
 6366TIP3    H219042   1.380   0.101   2.486
 6367TIP3   OH219043   4.175   3.878   4.222
 6367TIP3    H119044   4.171   3.787   4.193
 6367TIP3    H219045   4.083   3.904   4.230
 6368TIP3   OH219046   0.062   6.369   1.204
 6368TIP3    H119047   0.146   6.325   1.220
 6368TIP3    H219048   0.086   6.456   1.172
 6369TIP3   OH219049   1.671  -0.052   0.399
 6369TIP3    H119050   1.718   0.027   0.425
 6369TIP3    H219051   1.587  -0.020   0.367
 6370TIP3   OH219052   3.115   0.414   6.782
 6370TIP3    H119053   3.139   0.465   6.704
 6370TIP3    H219054   3.027   0.445   6.805
 6371TIP3   OH219055   0.397   4.397   5.333
 6371TIP3    H119056   0.383   4.406   5.238
 6371TIP3    H219057   0.311   4.411   5.371
 6372TIP3   OH219058   0.808   1.567   4.097
 6372TIP3    H119059   0.847   1.628   4.034
 6372TIP3    H219060   0.882   1.515   4.128
 6373TIP3   OH219061   6.114   3.327   4.198
 6373TIP3    H119062   6.209   3.327   4.210
 6373TIP3    H219063   6.081   3.384   4.268
 6374TIP3   OH219064   8.200   4.110   6.767
 6374TIP3    H119065   8.230   4.025   6.734
 6374TIP3    H219066   8.116   4.124   6.724
 6375TIP3   OH219067   0.070   4.305   5.682
 6375TIP3    H119068   0.142   4.309   5.745
 6375TIP3    H219069  -0.005   4.342   5.730
 6376TIP3   OH219070   1.523   0.217   5.928
 6376TIP3    H119071   1.443   0.206   5.980
 6376TIP3    H219072   1.591   0.173   5.979
 6377TIP3   OH219073   5.072   7.372   5.505
 6377TIP3    H119074   5.157   7.406   5.533
 6377TIP3    H219075   5.027   7.351   5.587
 6378TIP3   OH219076   5.694   0.717   2.131
 6378TIP3    H119077   5.611   0.760   2.151
 6378TIP3    H219078   5.708   0.733   2.038
 6379TIP3   OH219079   7.442   0.867   0.539
 6379TIP3    H119080   7.432   0.962   0.532
 6379TIP3    H219081   7.441   0.837   0.448
 6380TIP3   OH219082   2.283   3.469   6.068
 6380TIP3    H119083   2.226   3.460   6.145
 6380TIP3    H219084   2.368   3.491   6.105
 6381TIP3   OH219085   6.526   3.480   5.656
 6381TIP3    H119086   6.437   3.515   5.656
 6381TIP3    H219087   6.529   3.425   5.735
 6382TIP3   OH219088   6.533   1.362   1.127
 6382TIP3    H119089   6.488   1.406   1.055
 6382TIP3    H219090   6.463   1.326   1.181
 6383TIP3   OH219091   4.785   5.196   2.953
 6383TIP3    H119092   4.763   5.103   2.957
 6383TIP3    H219093   4.861   5.201   2.895
 6384TIP3   OH219094   7.985   7.527   0.421
 6384TIP3    H119095   8.017   7.613   0.392
 6384TIP3    H219096   7.890   7.532   0.410
 6385TIP3   OH219097   1.683   4.711   3.326
 6385TIP3    H119098   1.670   4.804   3.304
 6385TIP3    H219099   1.595   4.673   3.319
 6386TIP3   OH219100   5.634   2.151   2.427
 6386TIP3    H119101   5.706   2.206   2.394
 6386TIP3    H219102   5.655   2.137   2.519
 6387TIP3   OH219103   0.860   2.590   1.401
 6387TIP3    H119104   0.891   2.514   1.353
 6387TIP3    H219105   0.830   2.651   1.333
 6388TIP3   OH219106   7.873   0.756   5.570
 6388TIP3    H119107   7.902   0.693   5.505
 6388TIP3    H219108   7.820   0.819   5.521
 6389TIP3   OH219109   0.092   4.300   6.354
 6389TIP3    H119110   0.161   4.365   6.339
 6389TIP3    H219111   0.042   4.335   6.428
 6390TIP3   OH219112   7.380   5.057   1.752
 6390TIP3    H119113   7.363   5.150   1.768
 6390TIP3    H219114   7.445   5.056   1.682
 6391TIP3   OH219115   0.618   0.273   0.819
 6391TIP3    H119116   0.630   0.278   0.913
 6391TIP3    H219117   0.671   0.344   0.783
 6392TIP3   OH219118   6.921   0.153   5.846
 6392TIP3    H119119   6.962   0.136   5.930
 6392TIP3    H219120   6.963   0.092   5.785
 6393TIP3   OH219121   0.901   3.094   6.415
 6393TIP3    H119122   0.820   3.112   6.368
 6393TIP3    H219123   0.964   3.071   6.346
 6394TIP3   OH219124   4.994   3.345   1.746
 6394TIP3    H119125   5.035   3.313   1.826
 6394TIP3    H219126   5.002   3.272   1.684
 6395TIP3   OH219127   4.010   6.441   0.934
 6395TIP3    H119128   3.955   6.404   1.002
 6395TIP3    H219129   4.073   6.497   0.980
 6396TIP3   OH219130   0.296   4.895   1.689
 6396TIP3    H119131   0.242   4.973   1.696
 6396TIP3    H219132   0.309   4.883   1.595
 6397TIP3   OH219133   1.650   1.591   0.741
 6397TIP3    H119134   1.671   1.684   0.754
 6397TIP3    H219135   1.625   1.585   0.649
 6398TIP3   OH219136   3.848   2.350   2.425
 6398TIP3    H119137   3.769   2.310   2.390
 6398TIP3    H219138   3.858   2.432   2.376
 6399TIP3   OH219139   4.515   7.673   2.652
 6399TIP3    H119140   4.557   7.587   2.658
 6399TIP3    H219141   4.588   7.734   2.640
 6400TIP3   OH219142   5.415   3.494   3.929
 6400TIP3    H119143   5.381   3.547   3.858
 6400TIP3    H219144   5.406   3.404   3.899
 6401TIP3   OH219145   4.429   0.482   0.513
 6401TIP3    H119146   4.396   0.398   0.481
 6401TIP3    H219147   4.421   0.476   0.608
 6402TIP3   OH219148   4.472   3.738   4.923
 6402TIP3    H119149   4.536   3.667   4.928
 6402TIP3    H219150   4.407   3.708   4.859
 6403TIP3   OH219151   1.290   4.570   2.685
 6403TIP3    H119152   1.374   4.533   2.658
 6403TIP3    H219153   1.245   4.499   2.730
 6404TIP3   OH219154   5.541   0.704   5.386
 6404TIP3    H119155   5.495   0.737   5.463
 6404TIP3    H219156   5.474   0.658   5.335
 6405TIP3   OH219157   2.697   4.207   4.114
 6405TIP3    H119158   2.642   4.282   4.093
 6405TIP3    H219159   2.787   4.240   4.106
 6406TIP3   OH219160   4.262   7.043   4.360
 6406TIP3    H119161   4.189   7.043   4.299
 6406TIP3    H219162   4.327   6.985   4.320
 6407TIP3   OH219163   7.389   0.213   1.993
 6407TIP3    H119164   7.326   0.173   2.052
 6407TIP3    H219165   7.474   0.180   2.023
 6408TIP3   OH219166   1.809   3.829   2.301
 6408TIP3    H119167   1.717   3.840   2.278
 6408TIP3    H219168   1.809   3.826   2.397
 6409TIP3   OH219169   4.289   6.521   3.884
 6409TIP3    H119170   4.206   6.564   3.865
 6409TIP3    H219171   4.323   6.568   3.960
 6410TIP3   OH219172   1.463   7.563   1.202
 6410TIP3    H119173   1.523   7.515   1.145
 6410TIP3    H219174   1.447   7.504   1.275
 6411TIP3   OH219175   2.864   7.795   1.972
 6411TIP3    H119176   2.872   7.736   2.047
 6411TIP3    H219177   2.909   7.875   2.000
 6412TIP3   OH219178   1.499   1.575   0.987
 6412TIP3    H119179   1.544   1.582   0.903
 6412TIP3    H219180   1.570   1.574   1.052
 6413TIP3   OH219181   5.950   4.242   6.174
 6413TIP3    H119182   5.887   4.258   6.104
 6413TIP3    H219183   6.005   4.320   6.176
 6414TIP3   OH219184   3.741   7.508   1.746
 6414TIP3    H119185   3.816   7.483   1.800
 6414TIP3    H219186   3.676   7.439   1.762
 6415TIP3   OH219187   6.270   3.750   3.143
 6415TIP3    H119188   6.319   3.823   3.105
 6415TIP3    H219189   6.331   3.710   3.206
 6416TIP3   OH219190   2.639   1.727   3.748
 6416TIP3    H119191   2.620   1.634   3.759
 6416TIP3    H219192   2.693   1.750   3.824
 6417TIP3   OH219193   0.776   0.229   4.748
 6417TIP3    H119194   0.840   0.194   4.687
 6417TIP3    H219195   0.804   0.198   4.834
 6418TIP3   OH219196   1.474   4.259   3.533
 6418TIP3    H119197   1.411   4.189   3.515
 6418TIP3    H219198   1.559   4.220   3.514
 6419TIP3   OH219199   3.957   1.488   2.766
 6419TIP3    H119200   3.878   1.433   2.771
 6419TIP3    H219201   4.030   1.427   2.774
 6420TIP3   OH219202   7.114   1.063   1.679
 6420TIP3    H119203   7.091   1.097   1.766
 6420TIP3    H219204   7.209   1.068   1.677
 6421TIP3   OH219205   6.743   1.574   0.246
 6421TIP3    H119206   6.694   1.654   0.229
 6421TIP3    H219207   6.778   1.548   0.161
 6422TIP3   OH219208   6.802   2.842   4.304
 6422TIP3    H119209   6.762   2.929   4.300
 6422TIP3    H219210   6.826   2.831   4.396
 6423TIP3   OH219211   8.213   0.881   2.912
 6423TIP3    H119212   8.287   0.876   2.851
 6423TIP3    H219213   8.251   0.862   2.998
 6424TIP3   OH219214   2.461   7.744   4.834
 6424TIP3    H119215   2.519   7.780   4.766
 6424TIP3    H219216   2.388   7.806   4.838
 6425TIP3   OH219217   1.450   5.281   2.266
 6425TIP3    H119218   1.443   5.281   2.170
 6425TIP3    H219219   1.366   5.314   2.296
 6426TIP3   OH219220   4.838   6.389   0.473
 6426TIP3    H119221   4.875   6.471   0.505
 6426TIP3    H219222   4.908   6.349   0.422
 6427TIP3   OH219223   4.129   2.194   3.118
 6427TIP3    H119224   4.071   2.222   3.047
 6427TIP3    H219225   4.091   2.234   3.196
 6428TIP3   OH219226   0.188   1.998   6.474
 6428TIP3    H119227   0.271   2.029   6.511
 6428TIP3    H219228   0.200   1.903   6.466
 6429TIP3   OH219229   5.746   7.338   5.578
 6429TIP3    H119230   5.786   7.348   5.664
 6429TIP3    H219231   5.766   7.420   5.533
 6430TIP3   OH219232   6.559   2.586   3.578
 6430TIP3    H119233   6.530   2.677   3.571
 6430TIP3    H219234   6.575   2.574   3.672
 6431TIP3   OH219235   2.955   0.635   2.001
 6431TIP3    H119236   2.989   0.722   1.980
 6431TIP3    H219237   2.995   0.614   2.085
 6432TIP3   OH219238   3.284   6.725   5.425
 6432TIP3    H119239   3.218   6.701   5.490
 6432TIP3    H219240   3.262   6.814   5.399
 6433TIP3   OH219241   5.353   5.490   3.975
 6433TIP3    H119242   5.299   5.533   4.041
 6433TIP3    H219243   5.438   5.481   4.016
 6434TIP3   OH219244   0.905   7.514   4.891
 6434TIP3    H119245   0.912   7.564   4.810
 6434TIP3    H219246   0.823   7.542   4.930
 6435TIP3   OH219247   2.789   0.897   4.614
 6435TIP3    H119248   2.797   0.874   4.707
 6435TIP3    H219249   2.847   0.973   4.603
 6436TIP3   OH219250   3.124   4.095   6.347
 6436TIP3    H119251   3.135   4.178   6.393
 6436TIP3    H219252   3.075   4.118   6.268
 6437TIP3   OH219253   7.380   5.977   2.049
 6437TIP3    H119254   7.326   6.033   1.993
 6437TIP3    H219255   7.377   5.891   2.007
 6438TIP3   OH219256   4.109   2.618   1.340
 6438TIP3    H119257   4.059   2.546   1.377
 6438TIP3    H219258   4.085   2.619   1.247
 6439TIP3   OH219259   5.385   7.402   1.824
 6439TIP3    H119260   5.372   7.319   1.870
 6439TIP3    H219261   5.306   7.453   1.844
 6440TIP3   OH219262   4.795   6.970   4.364
 6440TIP3    H119263   4.760   6.922   4.289
 6440TIP3    H219264   4.752   6.929   4.440
 6441TIP3   OH219265   6.710   7.151   0.415
 6441TIP3    H119266   6.790   7.111   0.448
 6441TIP3    H219267   6.713   7.241   0.446
 6442TIP3   OH219268   7.417   0.613   3.675
 6442TIP3    H119269   7.467   0.680   3.629
 6442TIP3    H219270   7.396   0.548   3.608
 6443TIP3   OH219271   6.531   6.845   1.458
 6443TIP3    H119272   6.520   6.793   1.537
 6443TIP3    H219273   6.622   6.831   1.432
 6444TIP3   OH219274   3.382   7.079   5.059
 6444TIP3    H119275   3.297   7.121   5.050
 6444TIP3    H219276   3.362   6.987   5.079
 6445TIP3   OH219277   1.823   0.423   6.057
 6445TIP3    H119278   1.901   0.391   6.101
 6445TIP3    H219279   1.790   0.348   6.008
 6446TIP3   OH219280   5.683   5.649   3.296
 6446TIP3    H119281   5.700   5.555   3.296
 6446TIP3    H219282   5.608   5.660   3.354
 6447TIP3   OH219283   6.792   1.390   3.249
 6447TIP3    H119284   6.851   1.356   3.317
 6447TIP3    H219285   6.707   1.397   3.292
 6448TIP3   OH219286   3.926   0.596   1.935
 6448TIP3    H119287   3.980   0.662   1.979
 6448TIP3    H219288   3.836   0.623   1.952
 6449TIP3   OH219289   1.123   6.141   6.547
 6449TIP3    H119290   1.116   6.072   6.481
 6449TIP3    H219291   1.209   6.180   6.532
 6450TIP3   OH219292   4.730  -0.033   6.123
 6450TIP3    H119293   4.738   0.062   6.129
 6450TIP3    H219294   4.658  -0.055   6.182
 6451TIP3   OH219295   6.553   4.923   5.344
 6451TIP3    H119296   6.575   5.013   5.319
 6451TIP3    H219297   6.558   4.922   5.439
 6452TIP3   OH219298   3.528   5.396   5.621
 6452TIP3    H119299   3.595   5.447   5.667
 6452TIP3    H219300   3.470   5.364   5.690
 6453TIP3   OH219301   1.925   1.880   3.526
 6453TIP3    H119302   1.920   1.937   3.603
 6453TIP3    H219303   1.847   1.825   3.532
 6454TIP3   OH219304   2.221   5.813   6.459
 6454TIP3    H119305   2.155   5.868   6.503
 6454TIP3    H219306   2.204   5.725   6.493
 6455TIP3   OH219307   4.913   1.808   3.675
 6455TIP3    H119308   4.931   1.745   3.606
 6455TIP3    H219309   4.910   1.755   3.755
 6456TIP3   OH219310   0.623   3.465   3.656
 6456TIP3    H119311   0.642   3.474   3.563
 6456TIP3    H219312   0.618   3.370   3.670
 6457TIP3   OH219313   7.718   1.569   1.737
 6457TIP3    H119314   7.808   1.562   1.707
 6457TIP3    H219315   7.723   1.566   1.832
 6458TIP3   OH219316   5.532   2.172   5.486
 6458TIP3    H119317   5.600   2.186   5.420
 6458TIP3    H219318   5.537   2.249   5.543
 6459TIP3   OH219319   6.484   0.765   6.400
 6459TIP3    H119320   6.484   0.705   6.325
 6459TIP3    H219321   6.575   0.793   6.407
 6460TIP3   OH219322   2.527   7.310   6.156
 6460TIP3    H119323   2.505   7.231   6.107
 6460TIP3    H219324   2.443   7.340   6.192
 6461TIP3   OH219325   5.563   4.744   1.163
 6461TIP3    H119326   5.505   4.727   1.088
 6461TIP3    H219327   5.639   4.688   1.148
 6462TIP3   OH219328   2.425   4.575   1.300
 6462TIP3    H119329   2.359   4.645   1.296
 6462TIP3    H219330   2.507   4.622   1.317
 6463TIP3   OH219331   4.605   2.866   0.075
 6463TIP3    H119332   4.651   2.870   0.159
 6463TIP3    H219333   4.533   2.929   0.084
 6464TIP3   OH219334   6.061   2.758   2.364
 6464TIP3    H119335   6.025   2.834   2.319
 6464TIP3    H219336   5.985   2.717   2.406
 6465TIP3   OH219337   2.470   5.828   3.836
 6465TIP3    H119338   2.415   5.907   3.827
 6465TIP3    H219339   2.559   5.862   3.845
 6466TIP3   OH219340   7.793   2.420   6.398
 6466TIP3    H119341   7.724   2.485   6.404
 6466TIP3    H219342   7.872   2.466   6.426
 6467TIP3   OH219343   0.958   0.491   2.710
 6467TIP3    H119344   1.010   0.550   2.657
 6467TIP3    H219345   0.867   0.514   2.690
 6468TIP3   OH219346   5.773   4.316   5.956
 6468TIP3    H119347   5.724   4.395   5.978
 6468TIP3    H219348   5.772   4.313   5.860
 6469TIP3   OH219349   2.947   6.758   1.409
 6469TIP3    H119350   2.920   6.849   1.401
 6469TIP3    H219351   2.973   6.732   1.320
 6470TIP3   OH219352   6.155   5.535   3.655
 6470TIP3    H119353   6.152   5.628   3.634
 6470TIP3    H219354   6.148   5.491   3.571
 6471TIP3   OH219355   7.663   3.556   2.223
 6471TIP3    H119356   7.682   3.617   2.153
 6471TIP3    H219357   7.637   3.611   2.297
 6472TIP3   OH219358   7.510   1.819   2.090
 6472TIP3    H119359   7.425   1.861   2.102
 6472TIP3    H219360   7.494   1.749   2.028
 6473TIP3   OH219361   3.037   0.523   4.063
 6473TIP3    H119362   2.978   0.513   3.988
 6473TIP3    H219363   2.979   0.537   4.138
 6474TIP3   OH219364   4.055   6.451   0.393
 6474TIP3    H119365   4.065   6.377   0.452
 6474TIP3    H219366   3.988   6.506   0.434
 6475TIP3   OH219367   2.969   3.081   1.398
 6475TIP3    H119368   2.891   3.116   1.441
 6475TIP3    H219369   3.031   3.068   1.470
 6476TIP3   OH219370   0.344   7.505   4.536
 6476TIP3    H119371   0.362   7.463   4.452
 6476TIP3    H219372   0.276   7.451   4.576
 6477TIP3   OH219373   1.725   5.730   0.139
 6477TIP3    H119374   1.781   5.673   0.087
 6477TIP3    H219375   1.757   5.721   0.229
 6478TIP3   OH219376   1.947   1.585   4.046
 6478TIP3    H119377   2.016   1.554   4.105
 6478TIP3    H219378   1.929   1.511   3.989
 6479TIP3   OH219379   6.404   6.919   6.647
 6479TIP3    H119380   6.407   6.857   6.575
 6479TIP3    H219381   6.385   7.004   6.606
 6480TIP3   OH219382   2.691   3.754   2.401
 6480TIP3    H119383   2.661   3.761   2.310
 6480TIP3    H219384   2.621   3.706   2.445
 6481TIP3   OH219385   1.550   1.058   5.467
 6481TIP3    H119386   1.616   1.120   5.435
 6481TIP3    H219387   1.596   0.975   5.475
 6482TIP3   OH219388   1.603   4.128   4.296
 6482TIP3    H119389   1.664   4.105   4.366
 6482TIP3    H219390   1.545   4.053   4.289
 6483TIP3   OH219391   1.684   4.100   6.307
 6483TIP3    H119392   1.739   4.158   6.360
 6483TIP3    H219393   1.681   4.018   6.357
 6484TIP3   OH219394   5.497   1.300   5.997
 6484TIP3    H119395   5.404   1.282   5.983
 6484TIP3    H219396   5.536   1.214   6.011
 6485TIP3   OH219397   5.134   0.633   4.850
 6485TIP3    H119398   5.138   0.633   4.946
 6485TIP3    H219399   5.221   0.604   4.822
 6486TIP3   OH219400   8.294   2.053   6.102
 6486TIP3    H119401   8.207   2.025   6.073
 6486TIP3    H219402   8.349   2.044   6.024
 6487TIP3   OH219403   0.085   6.005   0.479
 6487TIP3    H119404   0.154   5.979   0.540
 6487TIP3    H219405   0.106   5.961   0.397
 6488TIP3   OH219406   3.435   5.502   6.254
 6488TIP3    H119407   3.363   5.487   6.317
 6488TIP3    H219408   3.497   5.558   6.302
 6489TIP3   OH219409   0.634   4.250   0.861
 6489TIP3    H119410   0.604   4.302   0.935
 6489TIP3    H219411   0.612   4.303   0.784
 6490TIP3   OH219412   4.177   1.804   3.551
 6490TIP3    H119413   4.234   1.863   3.503
 6490TIP3    H219414   4.102   1.790   3.492
 6491TIP3   OH219415   3.194   5.322   0.556
 6491TIP3    H119416   3.144   5.404   0.547
 6491TIP3    H219417   3.209   5.294   0.466
 6492TIP3   OH219418   0.124   4.437   2.719
 6492TIP3    H119419   0.165   4.450   2.805
 6492TIP3    H219420   0.079   4.520   2.702
 6493TIP3   OH219421   8.185   0.190   4.643
 6493TIP3    H119422   8.245   0.266   4.647
 6493TIP3    H219423   8.188   0.163   4.552
 6494TIP3   OH219424   2.203   2.892   6.347
 6494TIP3    H119425   2.149   2.907   6.269
 6494TIP3    H219426   2.293   2.896   6.314
 6495TIP3   OH219427   1.236   5.018   2.962
 6495TIP3    H119428   1.201   5.105   2.943
 6495TIP3    H219429   1.164   4.959   2.937
 6496TIP3   OH219430   5.071   3.568   2.426
 6496TIP3    H119431   5.089   3.662   2.417
 6496TIP3    H219432   4.976   3.561   2.414
 6497TIP3   OH219433   0.447   0.938   5.443
 6497TIP3    H119434   0.357   0.907   5.457
 6497TIP3    H219435   0.492   0.864   5.401
 6498TIP3   OH219436   3.418   5.199   6.164
 6498TIP3    H119437   3.373   5.280   6.186
 6498TIP3    H219438   3.351   5.145   6.121
 6499TIP3   OH219439   7.072   1.274   0.384
 6499TIP3    H119440   7.028   1.350   0.421
 6499TIP3    H219441   7.165   1.299   0.381
 6500TIP3   OH219442   4.161   4.785   6.162
 6500TIP3    H119443   4.243   4.822   6.129
 6500TIP3    H219444   4.104   4.861   6.177
 6501TIP3   OH219445   1.022   5.896   3.469
 6501TIP3    H119446   0.987   5.825   3.415
 6501TIP3    H219447   1.036   5.968   3.407
 6502TIP3   OH219448   0.564   1.896   4.469
 6502TIP3    H119449   0.531   1.906   4.558
 6502TIP3    H219450   0.572   1.986   4.436
 6503TIP3   OH219451   7.999   3.217   3.200
 6503TIP3    H119452   7.957   3.248   3.120
 6503TIP3    H219453   8.072   3.164   3.170
 6504TIP3   OH219454   4.672   3.615   5.944
 6504TIP3    H119455   4.739   3.547   5.942
 6504TIP3    H219456   4.623   3.603   5.862
 6505TIP3   OH219457   5.921   3.622   2.898
 6505TIP3    H119458   5.836   3.602   2.859
 6505TIP3    H219459   5.900   3.662   2.983
 6506TIP3   OH219460   3.603   5.631   2.222
 6506TIP3    H119461   3.508   5.633   2.205
 6506TIP3    H219462   3.638   5.703   2.170
 6507TIP3   OH219463   1.094   2.150   1.071
 6507TIP3    H119464   1.115   2.094   1.145
 6507TIP3    H219465   0.999   2.143   1.062
 6508TIP3   OH219466   6.736   5.895   4.645
 6508TIP3    H119467   6.825   5.860   4.631
 6508TIP3    H219468   6.725   5.960   4.575
 6509TIP3   OH219469   5.785   0.514   0.205
 6509TIP3    H119470   5.723   0.494   0.135
 6509TIP3    H219471   5.871   0.495   0.168
 6510TIP3   OH219472   1.580   6.701   4.707
 6510TIP3    H119473   1.545   6.632   4.650
 6510TIP3    H219474   1.512   6.768   4.709
 6511TIP3   OH219475   0.792   7.519   5.521
 6511TIP3    H119476   0.736   7.470   5.460
 6511TIP3    H219477   0.807   7.459   5.594
 6512TIP3   OH219478   7.279   0.523   4.334
 6512TIP3    H119479   7.297   0.612   4.363
 6512TIP3    H219480   7.292   0.526   4.239
 6513TIP3   OH219481   5.481   6.670   2.899
 6513TIP3    H119482   5.538   6.646   2.826
 6513TIP3    H219483   5.404   6.614   2.889
 6514TIP3   OH219484   5.816   4.722   2.921
 6514TIP3    H119485   5.878   4.777   2.873
 6514TIP3    H219486   5.871   4.664   2.973
 6515TIP3   OH219487   2.208   7.320   2.479
 6515TIP3    H119488   2.161   7.358   2.404
 6515TIP3    H219489   2.138   7.285   2.535
 6516TIP3   OH219490   5.016   6.658   2.277
 6516TIP3    H119491   4.949   6.709   2.323
 6516TIP3    H219492   5.098   6.682   2.319
 6517TIP3   OH219493   3.625   2.697   0.435
 6517TIP3    H119494   3.664   2.648   0.362
 6517TIP3    H219495   3.549   2.741   0.397
 6518TIP3   OH219496   2.371   6.794   4.873
 6518TIP3    H119497   2.358   6.778   4.967
 6518TIP3    H219498   2.398   6.886   4.868
 6519TIP3   OH219499   5.995   6.708   4.015
 6519TIP3    H119500   6.065   6.686   4.076
 6519TIP3    H219501   5.944   6.775   4.060
 6520TIP3   OH219502   6.189   4.106   3.242
 6520TIP3    H119503   6.279   4.081   3.219
 6520TIP3    H219504   6.139   4.025   3.234
 6521TIP3   OH219505   1.627   6.258   4.209
 6521TIP3    H119506   1.630   6.340   4.258
 6521TIP3    H219507   1.534   6.238   4.202
 6522TIP3   OH219508   1.183   5.653   4.517
 6522TIP3    H119509   1.142   5.737   4.497
 6522TIP3    H219510   1.210   5.618   4.432
 6523TIP3   OH219511   2.851   4.944   4.200
 6523TIP3    H119512   2.909   5.004   4.246
 6523TIP3    H219513   2.840   4.984   4.113
 6524TIP3   OH219514   7.383   7.571   0.394
 6524TIP3    H119515   7.446   7.602   0.329
 6524TIP3    H219516   7.323   7.645   0.407
 6525TIP3   OH219517   7.869   4.658   4.015
 6525TIP3    H119518   7.916   4.581   4.046
 6525TIP3    H219519   7.777   4.636   4.026
 6526TIP3   OH219520   4.661   6.735   0.529
 6526TIP3    H119521   4.653   6.675   0.603
 6526TIP3    H219522   4.726   6.800   0.557
 6527TIP3   OH219523   1.626   1.702   5.461
 6527TIP3    H119524   1.639   1.699   5.556
 6527TIP3    H219525   1.715   1.708   5.425
 6528TIP3   OH219526   3.935   1.368   1.435
 6528TIP3    H119527   3.922   1.449   1.385
 6528TIP3    H219528   3.984   1.311   1.375
 6529TIP3   OH219529   6.692   4.307   2.968
 6529TIP3    H119530   6.620   4.259   2.926
 6529TIP3    H219531   6.769   4.254   2.949
 6530TIP3   OH219532   5.893   1.450   1.928
 6530TIP3    H119533   5.838   1.412   1.860
 6530TIP3    H219534   5.982   1.423   1.905
 6531TIP3   OH219535   0.671   0.526   2.176
 6531TIP3    H119536   0.580   0.556   2.172
 6531TIP3    H219537   0.720   0.602   2.207
 6532TIP3   OH219538   2.247   7.594   3.919
 6532TIP3    H119539   2.198   7.668   3.883
 6532TIP3    H219540   2.192   7.563   3.992
 6533TIP3   OH219541   2.028   2.110   2.059
 6533TIP3    H119542   2.084   2.045   2.103
 6533TIP3    H219543   2.088   2.179   2.031
 6534TIP3   OH219544   0.332   4.876   4.017
 6534TIP3    H119545   0.343   4.950   3.957
 6534TIP3    H219546   0.415   4.872   4.065
 6535TIP3   OH219547   2.256   3.326   1.336
 6535TIP3    H119548   2.169   3.365   1.325
 6535TIP3    H219549   2.259   3.300   1.428
 6536TIP3   OH219550   0.933   2.459   5.682
 6536TIP3    H119551   0.918   2.441   5.589
 6536TIP3    H219552   0.944   2.372   5.721
 6537TIP3   OH219553   2.214   0.496   5.292
 6537TIP3    H119554   2.294   0.444   5.297
 6537TIP3    H219555   2.245   0.587   5.286
 6538TIP3   OH219556   1.590   1.664   4.962
 6538TIP3    H119557   1.513   1.659   4.904
 6538TIP3    H219558   1.553   1.682   5.049
 6539TIP3   OH219559   1.466   7.391   5.745
 6539TIP3    H119560   1.519   7.370   5.822
 6539TIP3    H219561   1.486   7.321   5.683
 6540TIP3   OH219562   7.623   0.212   5.434
 6540TIP3    H119563   7.552   0.253   5.483
 6540TIP3    H219564   7.678   0.171   5.501
 6541TIP3   OH219565   6.449   4.560   0.476
 6541TIP3    H119566   6.444   4.568   0.572
 6541TIP3    H219567   6.455   4.650   0.445
 6542TIP3   OH219568   0.795   7.768   4.991
 6542TIP3    H119569   0.754   7.852   4.970
 6542TIP3    H219570   0.793   7.763   5.087
 6543TIP3   OH219571   6.443   4.797   3.182
 6543TIP3    H119572   6.368   4.856   3.173
 6543TIP3    H219573   6.423   4.723   3.126
 6544TIP3   OH219574   1.404   6.895   4.776
 6544TIP3    H119575   1.323   6.852   4.748
 6544TIP3    H219576   1.421   6.858   4.863
 6545TIP3   OH219577   1.102   4.802   2.314
 6545TIP3    H119578   1.157   4.734   2.274
 6545TIP3    H219579   1.032   4.816   2.250
 6546TIP3   OH219580   2.121   4.024   4.102
 6546TIP3    H119581   2.114   4.020   4.006
 6546TIP3    H219582   2.180   4.097   4.119
 6547TIP3   OH219583   1.277   3.055   2.181
 6547TIP3    H119584   1.246   2.975   2.223
 6547TIP3    H219585   1.301   3.028   2.092
 6548TIP3   OH219586   1.340   2.776   4.243
 6548TIP3    H119587   1.320   2.702   4.301
 6548TIP3    H219588   1.367   2.735   4.161
 6549TIP3   OH219589   7.388   7.744   5.633
 6549TIP3    H119590   7.430   7.830   5.642
 6549TIP3    H219591   7.333   7.753   5.555
 6550TIP3   OH219592   3.395   0.043   1.524
 6550TIP3    H119593   3.303   0.070   1.525
 6550TIP3    H219594   3.406  -0.001   1.439
 6551TIP3   OH219595   0.434   1.321   6.625
 6551TIP3    H119596   0.444   1.242   6.679
 6551TIP3    H219597   0.481   1.389   6.674
 6552TIP3   OH219598   8.177   5.751   5.641
 6552TIP3    H119599   8.124   5.678   5.609
 6552TIP3    H219600   8.117   5.802   5.696
 6553TIP3   OH219601   2.374   4.275   3.471
 6553TIP3    H119602   2.331   4.323   3.400
 6553TIP3    H219603   2.394   4.341   3.537
 6554TIP3   OH219604   1.781   0.779   6.203
 6554TIP3    H119605   1.866   0.735   6.198
 6554TIP3    H219606   1.793   0.861   6.155
 6555TIP3   OH219607   5.492   5.918   3.016
 6555TIP3    H119608   5.408   5.939   2.976
 6555TIP3    H219609   5.500   5.979   3.089
 6556TIP3   OH219610   3.869   5.683   5.099
 6556TIP3    H119611   3.913   5.749   5.046
 6556TIP3    H219612   3.779   5.682   5.066
 6557TIP3   OH219613   3.533   6.652   0.490
 6557TIP3    H119614   3.592   6.707   0.541
 6557TIP3    H219615   3.592   6.598   0.436
 6558TIP3   OH219616   0.393   3.560   3.306
 6558TIP3    H119617   0.458   3.615   3.350
 6558TIP3    H219618   0.427   3.550   3.217
 6559TIP3   OH219619   0.609   2.026   3.689
 6559TIP3    H119620   0.533   2.072   3.724
 6559TIP3    H219621   0.593   1.934   3.708
 6560TIP3   OH219622   1.686   2.613   4.615
 6560TIP3    H119623   1.668   2.678   4.547
 6560TIP3    H219624   1.773   2.634   4.646
 6561TIP3   OH219625   3.096   7.506   2.707
 6561TIP3    H119626   3.120   7.466   2.790
 6561TIP3    H219627   3.045   7.439   2.661
 6562TIP3   OH219628   1.208   6.355   2.326
 6562TIP3    H119629   1.293   6.381   2.363
 6562TIP3    H219630   1.208   6.393   2.238
 6563TIP3   OH219631   7.509   5.019   2.112
 6563TIP3    H119632   7.550   4.955   2.054
 6563TIP3    H219633   7.528   4.986   2.200
 6564TIP3   OH219634   0.898   4.568   6.699
 6564TIP3    H119635   0.941   4.636   6.649
 6564TIP3    H219636   0.846   4.615   6.765
 6565TIP3   OH219637   6.240   2.900   1.653
 6565TIP3    H119638   6.252   2.977   1.598
 6565TIP3    H219639   6.150   2.908   1.686
 6566TIP3   OH219640   1.399   4.495   0.476
 6566TIP3    H119641   1.380   4.573   0.424
 6566TIP3    H219642   1.366   4.422   0.423
 6567TIP3   OH219643   7.919   4.839   0.679
 6567TIP3    H119644   7.925   4.750   0.643
 6567TIP3    H219645   7.952   4.895   0.609
 6568TIP3   OH219646   7.789   6.874   3.842
 6568TIP3    H119647   7.857   6.942   3.840
 6568TIP3    H219648   7.830   6.798   3.802
 6569TIP3   OH219649   2.736   6.100   4.649
 6569TIP3    H119650   2.813   6.156   4.637
 6569TIP3    H219651   2.730   6.089   4.744
 6570TIP3   OH219652   8.256   7.600   5.911
 6570TIP3    H119653   8.305   7.601   5.829
 6570TIP3    H219654   8.232   7.691   5.926
 6571TIP3   OH219655   4.649   3.689   6.220
 6571TIP3    H119656   4.640   3.597   6.245
 6571TIP3    H219657   4.654   3.688   6.125
 6572TIP3   OH219658   7.040   1.599   2.859
 6572TIP3    H119659   7.069   1.593   2.950
 6572TIP3    H219660   6.972   1.666   2.859
 6573TIP3   OH219661   2.377   3.210   6.747
 6573TIP3    H119662   2.437   3.281   6.767
 6573TIP3    H219663   2.429   3.130   6.759
 6574TIP3   OH219664   7.038   0.345   2.245
 6574TIP3    H119665   7.070   0.296   2.169
 6574TIP3    H219666   7.117   0.373   2.291
 6575TIP3   OH219667   4.728   1.245   3.202
 6575TIP3    H119668   4.773   1.187   3.142
 6575TIP3    H219669   4.643   1.204   3.216
 6576TIP3   OH219670   6.132   6.420   1.291
 6576TIP3    H119671   6.178   6.405   1.209
 6576TIP3    H219672   6.041   6.397   1.272
 6577TIP3   OH219673   0.167   1.336   3.163
 6577TIP3    H119674   0.175   1.317   3.256
 6577TIP3    H219675   0.207   1.261   3.120
 6578TIP3   OH219676   2.395   7.711   3.050
 6578TIP3    H119677   2.456   7.688   2.980
 6578TIP3    H219678   2.421   7.655   3.123
 6579TIP3   OH219679   2.124   6.073   1.901
 6579TIP3    H119680   2.156   6.002   1.958
 6579TIP3    H219681   2.085   6.136   1.961
 6580TIP3   OH219682   7.846   3.018   0.339
 6580TIP3    H119683   7.763   2.997   0.380
 6580TIP3    H219684   7.826   3.089   0.277
 6581TIP3   OH219685   4.273   4.358   4.747
 6581TIP3    H119686   4.329   4.419   4.699
 6581TIP3    H219687   4.228   4.414   4.811
 6582TIP3   OH219688   8.076   4.575   1.530
 6582TIP3    H119689   8.107   4.504   1.475
 6582TIP3    H219690   8.056   4.646   1.468
 6583TIP3   OH219691   3.690   5.690   2.709
 6583TIP3    H119692   3.630   5.762   2.726
 6583TIP3    H219693   3.709   5.696   2.616
 6584TIP3   OH219694   7.308   2.758   6.397
 6584TIP3    H119695   7.223   2.718   6.378
 6584TIP3    H219696   7.288   2.835   6.450
 6585TIP3   OH219697   2.332   3.029   4.452
 6585TIP3    H119698   2.285   3.113   4.453
 6585TIP3    H219699   2.286   2.975   4.516
 6586TIP3   OH219700   7.911   6.892   1.598
 6586TIP3    H119701   7.879   6.981   1.585
 6586TIP3    H219702   7.991   6.888   1.546
 6587TIP3   OH219703   1.765   5.997   6.240
 6587TIP3    H119704   1.853   6.034   6.230
 6587TIP3    H219705   1.778   5.919   6.294
 6588TIP3   OH219706   6.049   7.182   5.437
 6588TIP3    H119707   6.120   7.183   5.372
 6588TIP3    H219708   5.969   7.173   5.385
 6589TIP3   OH219709   4.814   3.535   2.758
 6589TIP3    H119710   4.884   3.483   2.717
 6589TIP3    H219711   4.792   3.486   2.837
 6590TIP3   OH219712   8.304   7.381   0.440
 6590TIP3    H119713   8.293   7.295   0.481
 6590TIP3    H219714   8.219   7.423   0.448
 6591TIP3   OH219715   1.383   1.264   3.955
 6591TIP3    H119716   1.385   1.222   3.869
 6591TIP3    H219717   1.475   1.278   3.978
 6592TIP3   OH219718   1.599   4.229   5.720
 6592TIP3    H119719   1.689   4.201   5.704
 6592TIP3    H219720   1.568   4.171   5.790
 6593TIP3   OH219721   6.186   1.835   4.013
 6593TIP3    H119722   6.147   1.922   4.004
 6593TIP3    H219723   6.260   1.836   3.951
 6594TIP3   OH219724   3.541   7.668   4.683
 6594TIP3    H119725   3.560   7.586   4.728
 6594TIP3    H219726   3.612   7.727   4.710
 6595TIP3   OH219727   0.701   2.725   6.760
 6595TIP3    H119728   0.712   2.812   6.721
 6595TIP3    H219729   0.627   2.687   6.713
 6596TIP3   OH219730   2.426   2.537   0.533
 6596TIP3    H119731   2.460   2.500   0.614
 6596TIP3    H219732   2.419   2.462   0.474
 6597TIP3   OH219733   0.124   6.208   6.166
 6597TIP3    H119734   0.057   6.174   6.226
 6597TIP3    H219735   0.190   6.246   6.223
 6598TIP3   OH219736   0.658   6.905   2.571
 6598TIP3    H119737   0.586   6.903   2.635
 6598TIP3    H219738   0.722   6.843   2.605
 6599TIP3   OH219739   5.420   6.414   4.412
 6599TIP3    H119740   5.429   6.460   4.328
 6599TIP3    H219741   5.458   6.474   4.476
 6600TIP3   OH219742   2.222   1.897   3.596
 6600TIP3    H119743   2.282   1.879   3.669
 6600TIP3    H219744   2.176   1.976   3.622
 6601TIP3   OH219745   2.649   6.645   4.659
 6601TIP3    H119746   2.721   6.688   4.705
 6601TIP3    H219747   2.621   6.575   4.718
 6602TIP3   OH219748   4.081   0.776   0.934
 6602TIP3    H119749   4.048   0.767   1.024
 6602TIP3    H219750   4.164   0.728   0.934
 6603TIP3   OH219751   5.186   6.840   5.618
 6603TIP3    H119752   5.116   6.831   5.553
 6603TIP3    H219753   5.188   6.934   5.638
 6604TIP3   OH219754   1.611   6.484   5.434
 6604TIP3    H119755   1.528   6.500   5.478
 6604TIP3    H219756   1.672   6.463   5.504
 6605TIP3   OH219757   5.717   6.229   2.796
 6605TIP3    H119758   5.697   6.195   2.708
 6605TIP3    H219759   5.737   6.151   2.848
 6606TIP3   OH219760   6.142   1.153   5.027
 6606TIP3    H119761   6.093   1.225   5.067
 6606TIP3    H219762   6.230   1.188   5.013
 6607TIP3   OH219763   2.410   2.747   2.340
 6607TIP3    H119764   2.391   2.687   2.413
 6607TIP3    H219765   2.460   2.694   2.279
 6608TIP3   OH219766   2.177   1.178   0.843
 6608TIP3    H119767   2.198   1.180   0.936
 6608TIP3    H219768   2.214   1.096   0.811
 6609TIP3   OH219769   8.113   4.346   5.331
 6609TIP3    H119770   8.080   4.265   5.292
 6609TIP3    H219771   8.190   4.369   5.278
 6610TIP3   OH219772   2.782   0.894   2.778
 6610TIP3    H119773   2.730   0.946   2.839
 6610TIP3    H219774   2.762   0.803   2.802
 6611TIP3   OH219775   0.235   0.869   0.752
 6611TIP3    H119776   0.193   0.783   0.761
 6611TIP3    H219777   0.191   0.909   0.678
 6612TIP3   OH219778   1.519   6.000   0.678
 6612TIP3    H119779   1.527   6.095   0.668
 6612TIP3    H219780   1.541   5.985   0.770
 6613TIP3   OH219781   1.045   5.746   6.528
 6613TIP3    H119782   0.954   5.773   6.524
 6613TIP3    H219783   1.067   5.747   6.621
 6614TIP3   OH219784   5.358   5.632   3.152
 6614TIP3    H119785   5.302   5.710   3.155
 6614TIP3    H219786   5.442   5.663   3.120
 6615TIP3   OH219787   2.430   3.782   2.718
 6615TIP3    H119788   2.387   3.790   2.803
 6615TIP3    H219789   2.503   3.844   2.723
 6616TIP3   OH219790   6.148   1.690   4.708
 6616TIP3    H119791   6.076   1.691   4.645
 6616TIP3    H219792   6.118   1.631   4.778
 6617TIP3   OH219793   0.669   7.468   5.878
 6617TIP3    H119794   0.595   7.506   5.831
 6617TIP3    H219795   0.720   7.422   5.811
 6618TIP3   OH219796   3.877   0.255   6.048
 6618TIP3    H119797   3.782   0.242   6.044
 6618TIP3    H219798   3.911   0.204   5.974
 6619TIP3   OH219799   3.382   6.567   3.355
 6619TIP3    H119800   3.355   6.538   3.268
 6619TIP3    H219801   3.342   6.654   3.364
 6620TIP3   OH219802   6.450   4.986   6.708
 6620TIP3    H119803   6.417   4.936   6.634
 6620TIP3    H219804   6.476   4.920   6.772
 6621TIP3   OH219805   0.910   0.709   3.837
 6621TIP3    H119806   0.938   0.785   3.887
 6621TIP3    H219807   0.829   0.737   3.795
 6622TIP3   OH219808   3.227   3.757   2.103
 6622TIP3    H119809   3.251   3.679   2.052
 6622TIP3    H219810   3.309   3.786   2.142
 6623TIP3   OH219811   7.497   3.546   6.184
 6623TIP3    H119812   7.492   3.619   6.122
 6623TIP3    H219813   7.590   3.542   6.208
 6624TIP3   OH219814   5.536   7.095   4.177
 6624TIP3    H119815   5.498   7.010   4.201
 6624TIP3    H219816   5.527   7.149   4.255
 6625TIP3   OH219817   0.740   0.456   2.498
 6625TIP3    H119818   0.682   0.422   2.430
 6625TIP3    H219819   0.682   0.504   2.557
 6626TIP3   OH219820   7.582   5.374   5.944
 6626TIP3    H119821   7.549   5.420   6.021
 6626TIP3    H219822   7.554   5.284   5.956
 6627TIP3   OH219823   7.737   0.221   4.523
 6627TIP3    H119824   7.758   0.260   4.608
 6627TIP3    H219825   7.742   0.127   4.537
 6628TIP3   OH219826   6.473   1.970   3.397
 6628TIP3    H119827   6.532   1.919   3.342
 6628TIP3    H219828   6.420   2.020   3.336
 6629TIP3   OH219829   0.671   3.410   2.003
 6629TIP3    H119830   0.710   3.477   2.060
 6629TIP3    H219831   0.729   3.405   1.928
 6630TIP3   OH219832   4.967   1.373   1.947
 6630TIP3    H119833   5.002   1.289   1.978
 6630TIP3    H219834   4.879   1.377   1.984
 6631TIP3   OH219835   3.732   7.714   2.947
 6631TIP3    H119836   3.811   7.715   3.002
 6631TIP3    H219837   3.742   7.790   2.890
 6632TIP3   OH219838   7.654   5.495   2.095
 6632TIP3    H119839   7.734   5.531   2.057
 6632TIP3    H219840   7.656   5.402   2.073
 6633TIP3   OH219841   3.211   3.135   4.603
 6633TIP3    H119842   3.262   3.211   4.631
 6633TIP3    H219843   3.245   3.063   4.657
 6634TIP3   OH219844   2.806   0.362   5.797
 6634TIP3    H119845   2.730   0.419   5.809
 6634TIP3    H219846   2.805   0.339   5.704
 6635TIP3   OH219847   5.444   5.504   5.322
 6635TIP3    H119848   5.407   5.482   5.236
 6635TIP3    H219849   5.381   5.468   5.385
 6636TIP3   OH219850   2.011   5.891   3.240
 6636TIP3    H119851   1.955   5.906   3.316
 6636TIP3    H219852   2.056   5.809   3.259
 6637TIP3   OH219853   2.714   2.765   6.510
 6637TIP3    H119854   2.620   2.750   6.520
 6637TIP3    H219855   2.748   2.682   6.474
 6638TIP3   OH219856   2.610   7.836   2.197
 6638TIP3    H119857   2.651   7.752   2.216
 6638TIP3    H219858   2.566   7.823   2.113
 6639TIP3   OH219859   7.944   5.394   3.555
 6639TIP3    H119860   8.001   5.471   3.559
 6639TIP3    H219861   7.858   5.426   3.580
 6640TIP3   OH219862   2.763   0.769   1.632
 6640TIP3    H119863   2.758   0.702   1.700
 6640TIP3    H219864   2.690   0.827   1.650
 6641TIP3   OH219865   3.389   3.957   0.873
 6641TIP3    H119866   3.390   4.010   0.793
 6641TIP3    H219867   3.337   4.009   0.935
 6642TIP3   OH219868   7.896   5.318   2.994
 6642TIP3    H119869   7.814   5.340   3.038
 6642TIP3    H219870   7.903   5.223   3.004
 6643TIP3   OH219871   0.375   0.059   0.396
 6643TIP3    H119872   0.431   0.131   0.369
 6643TIP3    H219873   0.429  -0.019   0.382
 6644TIP3   OH219874   0.208   4.668   3.518
 6644TIP3    H119875   0.209   4.697   3.609
 6644TIP3    H219876   0.130   4.710   3.480
 6645TIP3   OH219877   2.621   0.449   1.534
 6645TIP3    H119878   2.526   0.434   1.534
 6645TIP3    H219879   2.653   0.401   1.458
 6646TIP3   OH219880   2.072   4.159   5.110
 6646TIP3    H119881   2.114   4.131   5.191
 6646TIP3    H219882   2.031   4.243   5.131
 6647TIP3   OH219883   4.730   1.600   6.112
 6647TIP3    H119884   4.740   1.695   6.120
 6647TIP3    H219885   4.752   1.566   6.199
 6648TIP3   OH219886   6.657   1.293   0.788
 6648TIP3    H119887   6.634   1.357   0.855
 6648TIP3    H219888   6.610   1.322   0.710
 6649TIP3   OH219889   3.147   6.773   1.135
 6649TIP3    H119890   3.071   6.825   1.108
 6649TIP3    H219891   3.218   6.838   1.144
 6650TIP3   OH219892   1.492   4.835   2.088
 6650TIP3    H119893   1.526   4.874   2.168
 6650TIP3    H219894   1.462   4.748   2.115
 6651TIP3   OH219895   6.498   2.960   3.011
 6651TIP3    H119896   6.424   2.911   2.976
 6651TIP3    H219897   6.498   3.042   2.963
 6652TIP3   OH219898   0.671   1.062   6.386
 6652TIP3    H119899   0.711   1.069   6.473
 6652TIP3    H219900   0.655   1.153   6.359
 6653TIP3   OH219901   5.838   0.956   6.661
 6653TIP3    H119902   5.841   1.018   6.734
 6653TIP3    H219903   5.811   0.873   6.701
 6654TIP3   OH219904   4.179   1.765   1.959
 6654TIP3    H119905   4.153   1.672   1.961
 6654TIP3    H219906   4.238   1.771   1.884
 6655TIP3   OH219907   5.102   5.521   2.846
 6655TIP3    H119908   5.128   5.607   2.880
 6655TIP3    H219909   5.082   5.536   2.754
 6656TIP3   OH219910   4.771   0.533   0.470
 6656TIP3    H119911   4.725   0.617   0.475
 6656TIP3    H219912   4.720   0.483   0.406
 6657TIP3   OH219913   6.506   5.163   5.217
 6657TIP3    H119914   6.410   5.172   5.219
 6657TIP3    H219915   6.528   5.168   5.124
 6658TIP3   OH219916   5.032   4.267   1.668
 6658TIP3    H119917   4.960   4.235   1.614
 6658TIP3    H219918   5.102   4.203   1.656
 6659TIP3   OH219919   2.913   7.670   4.948
 6659TIP3    H119920   2.952   7.587   4.976
 6659TIP3    H219921   2.838   7.681   5.006
 6660TIP3   OH219922   0.376   1.412   1.208
 6660TIP3    H119923   0.327   1.358   1.270
 6660TIP3    H219924   0.388   1.495   1.254
 6661TIP3   OH219925   2.261   7.621   3.464
 6661TIP3    H119926   2.192   7.629   3.398
 6661TIP3    H219927   2.224   7.564   3.531
 6662TIP3   OH219928   5.235   5.044   4.069
 6662TIP3    H119929   5.323   5.010   4.083
 6662TIP3    H219930   5.188   5.026   4.150
 6663TIP3   OH219931   5.646   6.945   5.404
 6663TIP3    H119932   5.663   6.881   5.335
 6663TIP3    H219933   5.564   6.987   5.377
 6664TIP3   OH219934   4.678   7.596   6.281
 6664TIP3    H119935   4.720   7.682   6.279
 6664TIP3    H219936   4.589   7.614   6.311
 6665TIP3   OH219937   2.845   0.801   0.548
 6665TIP3    H119938   2.821   0.851   0.470
 6665TIP3    H219939   2.827   0.861   0.621
 6666TIP3   OH219940   4.989   1.342   5.361
 6666TIP3    H119941   4.930   1.268   5.351
 6666TIP3    H219942   5.064   1.306   5.409
 6667TIP3   OH219943   3.423   1.747   6.173
 6667TIP3    H119944   3.454   1.686   6.106
 6667TIP3    H219945   3.366   1.808   6.126
 6668TIP3   OH219946   5.637   5.821   6.283
 6668TIP3    H119947   5.617   5.794   6.372
 6668TIP3    H219948   5.728   5.848   6.286
 6669TIP3   OH219949   4.440   0.647   3.085
 6669TIP3    H119950   4.353   0.683   3.105
 6669TIP3    H219951   4.453   0.667   2.992
 6670TIP3   OH219952   7.734   1.211   0.311
 6670TIP3    H119953   7.764   1.296   0.278
 6670TIP3    H219954   7.771   1.147   0.249
 6671TIP3   OH219955   8.276   4.267   5.994
 6671TIP3    H119956   8.369   4.271   5.971
 6671TIP3    H219957   8.256   4.355   6.026
 6672TIP3   OH219958   2.639   1.984   5.606
 6672TIP3    H119959   2.644   1.891   5.584
 6672TIP3    H219960   2.604   2.025   5.527
 6673TIP3   OH219961   5.037   4.734   4.832
 6673TIP3    H119962   4.970   4.798   4.855
 6673TIP3    H219963   5.053   4.686   4.914
 6674TIP3   OH219964   0.728   4.618   5.268
 6674TIP3    H119965   0.710   4.524   5.268
 6674TIP3    H219966   0.720   4.644   5.360
 6675TIP3   OH219967   8.119   5.778   5.371
 6675TIP3    H119968   8.103   5.873   5.367
 6675TIP3    H219969   8.125   5.759   5.465
 6676TIP3   OH219970   2.423   4.851   6.603
 6676TIP3    H119971   2.496   4.821   6.657
 6676TIP3    H219972   2.433   4.947   6.599
 6677TIP3   OH219973   6.344   6.128   5.082
 6677TIP3    H119974   6.424   6.179   5.067
 6677TIP3    H219975   6.318   6.097   4.995
 6678TIP3   OH219976   2.692   4.816   6.743
 6678TIP3    H119977   2.764   4.868   6.779
 6678TIP3    H219978   2.622   4.825   6.808
 6679TIP3   OH219979   3.410   6.939   4.594
 6679TIP3    H119980   3.445   6.855   4.564
 6679TIP3    H219981   3.316   6.934   4.575
 6680TIP3   OH219982   6.274   4.772   0.039
 6680TIP3    H119983   6.345   4.724  -0.005
 6680TIP3    H219984   6.212   4.793  -0.031
 6681TIP3   OH219985   2.389   4.852   1.137
 6681TIP3    H119986   2.441   4.877   1.213
 6681TIP3    H219987   2.393   4.928   1.079
 6682TIP3   OH219988   1.445   5.786   0.246
 6682TIP3    H119989   1.520   5.826   0.202
 6682TIP3    H219990   1.451   5.815   0.337
 6683TIP3   OH219991   8.196   4.783   3.062
 6683TIP3    H119992   8.116   4.747   3.024
 6683TIP3    H219993   8.175   4.874   3.083
 6684TIP3   OH219994   1.060   3.617   2.148
 6684TIP3    H119995   1.117   3.567   2.090
 6684TIP3    H219996   1.094   3.600   2.235
 6685TIP3   OH219997   1.341   4.723   0.282
 6685TIP3    H119998   1.265   4.782   0.288
 6685TIP3    H219999   1.417   4.780   0.290
 6686TIP3   OH220000   0.827   2.393   3.594
 6686TIP3    H120001   0.901   2.374   3.651
 6686TIP3    H220002   0.865   2.442   3.521
 6687TIP3   OH220003   8.137   7.794   2.970
 6687TIP3    H120004   8.214   7.737   2.964
 6687TIP3    H220005   8.098   7.774   3.054
 6688TIP3   OH220006   8.049   1.024   6.070
 6688TIP3    H120007   8.056   1.102   6.126
 6688TIP3    H220008   8.128   1.027   6.015
 6689TIP3   OH220009   7.152   2.656   0.970
 6689TIP3    H120010   7.225   2.665   1.030
 6689TIP3    H220011   7.110   2.573   0.996
 6690TIP3   OH220012   4.263   1.684   0.360
 6690TIP3    H120013   4.354   1.666   0.383
 6690TIP3    H220014   4.250   1.638   0.276
 6691TIP3   OH220015   4.871   4.658   5.410
 6691TIP3    H120016   4.927   4.735   5.418
 6691TIP3    H220017   4.922   4.595   5.360
 6692TIP3   OH220018   7.141   3.941   2.596
 6692TIP3    H120019   7.221   3.894   2.574
 6692TIP3    H220020   7.092   3.946   2.513
 6693TIP3   OH220021   0.152   5.321   4.619
 6693TIP3    H120022   0.177   5.229   4.606
 6693TIP3    H220023   0.166   5.336   4.713
 6694TIP3   OH220024   6.246   7.180   3.027
 6694TIP3    H120025   6.204   7.240   3.089
 6694TIP3    H220026   6.299   7.122   3.083
 6695TIP3   OH220027   3.044   0.371   0.076
 6695TIP3    H120028   2.991   0.340   0.003
 6695TIP3    H220029   3.060   0.463   0.057
 6696TIP3   OH220030   7.179   3.876   0.818
 6696TIP3    H120031   7.266   3.843   0.842
 6696TIP3    H220032   7.195   3.966   0.790
 6697TIP3   OH220033   3.136   1.469   5.011
 6697TIP3    H120034   3.060   1.450   4.955
 6697TIP3    H220035   3.111   1.548   5.059
 6698TIP3   OH220036   5.445   3.263   1.404
 6698TIP3    H120037   5.479   3.275   1.315
 6698TIP3    H220038   5.510   3.207   1.446
 6699TIP3   OH220039   8.079   6.428   4.319
 6699TIP3    H120040   7.996   6.390   4.291
 6699TIP3    H220041   8.054   6.502   4.375
 6700TIP3   OH220042   4.137   0.735   0.183
 6700TIP3    H120043   4.122   0.684   0.263
 6700TIP3    H220044   4.126   0.672   0.112
 6701TIP3   OH220045   7.064   2.895   0.593
 6701TIP3    H120046   7.010   2.965   0.631
 6701TIP3    H220047   7.013   2.865   0.518
 6702TIP3   OH220048   0.650   4.037   6.614
 6702TIP3    H120049   0.732   4.085   6.611
 6702TIP3    H220050   0.675   3.948   6.639
 6703TIP3   OH220051   2.490   4.467   4.147
 6703TIP3    H120052   2.480   4.413   4.226
 6703TIP3    H220053   2.459   4.554   4.173
 6704TIP3   OH220054   0.122   2.052   5.453
 6704TIP3    H120055   0.207   2.035   5.412
 6704TIP3    H220056   0.062   2.063   5.379
 6705TIP3   OH220057   4.696   7.474   2.611
 6705TIP3    H120058   4.702   7.465   2.516
 6705TIP3    H220059   4.717   7.387   2.645
 6706TIP3   OH220060   0.373   5.950   0.299
 6706TIP3    H120061   0.450   5.993   0.336
 6706TIP3    H220062   0.313   6.022   0.278
 6707TIP3   OH220063   6.688   3.237   0.924
 6707TIP3    H120064   6.727   3.325   0.921
 6707TIP3    H220065   6.742   3.189   0.987
 6708TIP3   OH220066   1.856   2.601   4.996
 6708TIP3    H120067   1.918   2.565   5.060
 6708TIP3    H220068   1.890   2.573   4.911
 6709TIP3   OH220069   1.768   0.550   1.014
 6709TIP3    H120070   1.708   0.623   0.995
 6709TIP3    H220071   1.737   0.478   0.959
 6710TIP3   OH220072   0.542   5.835   2.131
 6710TIP3    H120073   0.481   5.789   2.074
 6710TIP3    H220074   0.620   5.849   2.077
 6711TIP3   OH220075   4.322   1.505   3.936
 6711TIP3    H120076   4.374   1.436   3.894
 6711TIP3    H220077   4.272   1.544   3.865
 6712TIP3   OH220078   1.051   0.405   5.424
 6712TIP3    H120079   0.966   0.443   5.444
 6712TIP3    H220080   1.070   0.434   5.334
 6713TIP3   OH220081   1.454   5.307   0.053
 6713TIP3    H120082   1.468   5.395   0.087
 6713TIP3    H220083   1.418   5.258   0.127
 6714TIP3   OH220084   2.675   4.908   4.971
 6714TIP3    H120085   2.647   4.960   4.895
 6714TIP3    H220086   2.600   4.909   5.030
 6715TIP3   OH220087   6.859   3.875   4.104
 6715TIP3    H120088   6.941   3.828   4.088
 6715TIP3    H220089   6.865   3.953   4.048
 6716TIP3   OH220090   2.496   7.632   5.965
 6716TIP3    H120091   2.455   7.548   5.986
 6716TIP3    H220092   2.580   7.609   5.926
 6717TIP3   OH220093   3.491   1.202   3.447
 6717TIP3    H120094   3.465   1.287   3.483
 6717TIP3    H220095   3.513   1.149   3.524
 6718TIP3   OH220096   0.302   3.433   6.728
 6718TIP3    H120097   0.304   3.360   6.666
 6718TIP3    H220098   0.319   3.393   6.814
 6719TIP3   OH220099   7.805   7.150   1.868
 6719TIP3    H120100   7.749   7.096   1.923
 6719TIP3    H220101   7.748   7.181   1.797
 6720TIP3   OH220102   2.002   1.586   3.426
 6720TIP3    H120103   1.910   1.563   3.434
 6720TIP3    H220104   2.020   1.584   3.332
 6721TIP3   OH220105   0.170   7.004   4.893
 6721TIP3    H120106   0.209   7.077   4.941
 6721TIP3    H220107   0.209   7.008   4.806
 6722TIP3   OH220108   4.482   6.567   4.448
 6722TIP3    H120109   4.533   6.545   4.526
 6722TIP3    H220110   4.399   6.521   4.460
 6723TIP3   OH220111   4.086   1.544   1.622
 6723TIP3    H120112   4.052   1.468   1.574
 6723TIP3    H220113   4.007   1.593   1.647
 6724TIP3   OH220114   6.637   4.881   4.718
 6724TIP3    H120115   6.642   4.807   4.658
 6724TIP3    H220116   6.545   4.904   4.721
 6725TIP3   OH220117   4.117   6.987   5.403
 6725TIP3    H120118   4.124   7.054   5.334
 6725TIP3    H220119   4.198   6.937   5.396
 6726TIP3   OH220120   2.760   2.523   6.431
 6726TIP3    H120121   2.791   2.531   6.340
 6726TIP3    H220122   2.832   2.480   6.477
 6727TIP3   OH220123   2.257   6.717   0.719
 6727TIP3    H120124   2.172   6.760   0.716
 6727TIP3    H220125   2.289   6.721   0.629
 6728TIP3   OH220126   2.367   2.076   4.613
 6728TIP3    H120127   2.456   2.051   4.589
 6728TIP3    H220128   2.366   2.172   4.605
 6729TIP3   OH220129   0.677   2.261   5.466
 6729TIP3    H120130   0.696   2.196   5.398
 6729TIP3    H220131   0.757   2.314   5.471
 6730TIP3   OH220132   5.727   2.540   0.909
 6730TIP3    H120133   5.766   2.480   0.973
 6730TIP3    H220134   5.702   2.616   0.961
 6731TIP3   OH220135   4.908   2.580   2.532
 6731TIP3    H120136   4.837   2.564   2.594
 6731TIP3    H220137   4.924   2.674   2.538
 6732TIP3   OH220138   2.333   0.556   4.064
 6732TIP3    H120139   2.307   0.589   3.977
 6732TIP3    H220140   2.424   0.584   4.074
 6733TIP3   OH220141   0.934   6.766   0.612
 6733TIP3    H120142   0.849   6.808   0.598
 6733TIP3    H220143   0.920   6.675   0.587
 6734TIP3   OH220144   1.134   0.346   3.134
 6734TIP3    H120145   1.070   0.279   3.111
 6734TIP3    H220146   1.134   0.406   3.059
 6735TIP3   OH220147   3.123   7.316   6.277
 6735TIP3    H120148   3.154   7.289   6.363
 6735TIP3    H220149   3.032   7.344   6.292
 6736TIP3   OH220150   4.893   5.408   3.167
 6736TIP3    H120151   4.810   5.453   3.152
 6736TIP3    H220152   4.873   5.316   3.152
 6737TIP3   OH220153   4.686   1.131   1.872
 6737TIP3    H120154   4.729   1.152   1.789
 6737TIP3    H220155   4.594   1.119   1.848
 6738TIP3   OH220156   7.047   7.156   3.391
 6738TIP3    H120157   7.141   7.142   3.406
 6738TIP3    H220158   7.043   7.238   3.343
 6739TIP3   OH220159   2.560   6.479   1.866
 6739TIP3    H120160   2.624   6.408   1.866
 6739TIP3    H220161   2.500   6.457   1.794
 6740TIP3   OH220162   0.228   6.610   0.861
 6740TIP3    H120163   0.185   6.654   0.788
 6740TIP3    H220164   0.274   6.536   0.820
 6741TIP3   OH220165   6.398   3.356   4.301
 6741TIP3    H120166   6.489   3.350   4.273
 6741TIP3    H220167   6.387   3.282   4.361
 6742TIP3   OH220168   2.092   2.055   0.716
 6742TIP3    H120169   2.058   2.134   0.759
 6742TIP3    H220170   2.100   1.991   0.786
 6743TIP3   OH220171   1.835   5.783   4.881
 6743TIP3    H120172   1.789   5.859   4.846
 6743TIP3    H220173   1.891   5.819   4.950
 6744TIP3   OH220174   7.768   0.128   2.605
 6744TIP3    H120175   7.754   0.035   2.622
 6744TIP3    H220176   7.853   0.148   2.645
 6745TIP3   OH220177   3.148   5.355   4.671
 6745TIP3    H120178   3.072   5.395   4.713
 6745TIP3    H220179   3.211   5.343   4.741
 6746TIP3   OH220180   6.320   1.268   3.728
 6746TIP3    H120181   6.230   1.241   3.709
 6746TIP3    H220182   6.318   1.295   3.820
 6747TIP3   OH220183   5.787   3.075   2.680
 6747TIP3    H120184   5.708   3.126   2.666
 6747TIP3    H220185   5.757   2.997   2.726
 6748TIP3   OH220186   2.767   0.391   5.510
 6748TIP3    H120187   2.741   0.359   5.423
 6748TIP3    H220188   2.756   0.486   5.504
 6749TIP3   OH220189   6.739   1.194   1.983
 6749TIP3    H120190   6.667   1.208   2.044
 6749TIP3    H220191   6.818   1.199   2.037
 6750TIP3   OH220192   2.777   2.908   2.326
 6750TIP3    H120193   2.743   2.870   2.245
 6750TIP3    H220194   2.863   2.943   2.301
 6751TIP3   OH220195   1.063   1.540   6.110
 6751TIP3    H120196   1.053   1.471   6.044
 6751TIP3    H220197   1.120   1.501   6.176
 6752TIP3   OH220198   3.861   3.805   6.587
 6752TIP3    H120199   3.906   3.816   6.503
 6752TIP3    H220200   3.850   3.711   6.596
 6753TIP3   OH220201   4.379   1.634   2.761
 6753TIP3    H120202   4.384   1.727   2.737
 6753TIP3    H220203   4.435   1.627   2.839
 6754TIP3   OH220204   4.536   6.228   6.477
 6754TIP3    H120205   4.567   6.141   6.500
 6754TIP3    H220206   4.519   6.223   6.383
 6755TIP3   OH220207   6.234   6.013   1.115
 6755TIP3    H120208   6.323   5.979   1.109
 6755TIP3    H220209   6.183   5.958   1.055
 6756TIP3   OH220210   8.308   5.335   4.212
 6756TIP3    H120211   8.390   5.351   4.257
 6756TIP3    H220212   8.265   5.266   4.264
 6757TIP3   OH220213   5.505   1.527   5.159
 6757TIP3    H120214   5.439   1.595   5.176
 6757TIP3    H220215   5.527   1.494   5.246
 6758TIP3   OH220216   0.297   3.877   1.101
 6758TIP3    H120217   0.302   3.933   1.178
 6758TIP3    H220218   0.340   3.796   1.128
 6759TIP3   OH220219   3.363   5.751   4.205
 6759TIP3    H120220   3.379   5.742   4.299
 6759TIP3    H220221   3.408   5.677   4.165
 6760TIP3   OH220222   6.457   6.970   1.210
 6760TIP3    H120223   6.484   6.929   1.292
 6760TIP3    H220224   6.515   6.933   1.144
 6761TIP3   OH220225   1.559   5.256   2.710
 6761TIP3    H120226   1.534   5.171   2.674
 6761TIP3    H220227   1.654   5.251   2.720
 6762TIP3   OH220228   1.556   5.938   5.729
 6762TIP3    H120229   1.507   6.020   5.738
 6762TIP3    H220230   1.490   5.869   5.740
 6763TIP3   OH220231   3.436   4.357   4.759
 6763TIP3    H120232   3.482   4.439   4.778
 6763TIP3    H220233   3.404   4.368   4.669
 6764TIP3   OH220234   5.727   2.088   4.742
 6764TIP3    H120235   5.775   2.101   4.660
 6764TIP3    H220236   5.640   2.058   4.715
 6765TIP3   OH220237   7.487   5.710   2.075
 6765TIP3    H120238   7.400   5.714   2.034
 6765TIP3    H220239   7.515   5.619   2.063
 6766TIP3   OH220240   5.129   0.695   3.980
 6766TIP3    H120241   5.067   0.622   3.983
 6766TIP3    H220242   5.077   0.769   3.950
 6767TIP3   OH220243   7.052   7.285   6.719
 6767TIP3    H120244   7.010   7.324   6.796
 6767TIP3    H220245   7.116   7.350   6.692
 6768TIP3   OH220246   2.926   3.340   0.813
 6768TIP3    H120247   2.977   3.267   0.847
 6768TIP3    H220248   2.977   3.418   0.837
 6769TIP3   OH220249   2.561   1.760   5.916
 6769TIP3    H120250   2.611   1.823   5.865
 6769TIP3    H220251   2.579   1.675   5.876
 6770TIP3   OH220252   2.094   2.878   4.528
 6770TIP3    H120253   2.025   2.928   4.571
 6770TIP3    H220254   2.049   2.829   4.459
 6771TIP3   OH220255   4.353   5.432   1.424
 6771TIP3    H120256   4.310   5.509   1.389
 6771TIP3    H220257   4.295   5.403   1.495
 6772TIP3   OH220258   5.789   5.212   1.835
 6772TIP3    H120259   5.773   5.298   1.796
 6772TIP3    H220260   5.779   5.151   1.762
 6773TIP3   OH220261   6.166   3.793   2.755
 6773TIP3    H120262   6.195   3.757   2.671
 6773TIP3    H220263   6.071   3.780   2.756
 6774TIP3   OH220264   5.597   0.091   3.681
 6774TIP3    H120265   5.613   0.182   3.658
 6774TIP3    H220266   5.523   0.095   3.742
 6775TIP3   OH220267   1.853   6.565   5.931
 6775TIP3    H120268   1.891   6.580   5.844
 6775TIP3    H220269   1.927   6.569   5.991
 6776TIP3   OH220270   4.768   1.190   5.979
 6776TIP3    H120271   4.797   1.099   5.970
 6776TIP3    H220272   4.778   1.226   5.891
 6777TIP3   OH220273   0.453   5.879   4.639
 6777TIP3    H120274   0.458   5.787   4.666
 6777TIP3    H220275   0.460   5.877   4.544
 6778TIP3   OH220276   8.144   0.053   2.480
 6778TIP3    H120277   8.139   0.003   2.399
 6778TIP3    H220278   8.118   0.142   2.455
 6779TIP3   OH220279   4.921   7.277   4.549
 6779TIP3    H120280   4.993   7.277   4.612
 6779TIP3    H220281   4.963   7.262   4.464
 6780TIP3   OH220282   3.764   6.696   3.235
 6780TIP3    H120283   3.693   6.708   3.172
 6780TIP3    H220284   3.727   6.726   3.318
 6781TIP3   OH220285   6.865   6.927   2.802
 6781TIP3    H120286   6.960   6.932   2.808
 6781TIP3    H220287   6.842   6.985   2.729
 6782TIP3   OH220288   3.614   2.617   2.048
 6782TIP3    H120289   3.581   2.662   2.126
 6782TIP3    H220290   3.567   2.534   2.047
 6783TIP3   OH220291   5.726   1.009   2.495
 6783TIP3    H120292   5.640   1.046   2.478
 6783TIP3    H220293   5.766   1.000   2.408
 6784TIP3   OH220294   6.860   4.768   3.514
 6784TIP3    H120295   6.860   4.860   3.540
 6784TIP3    H220296   6.863   4.720   3.596
 6785TIP3   OH220297   2.199   2.342   4.966
 6785TIP3    H120298   2.175   2.254   4.937
 6785TIP3    H220299   2.116   2.383   4.992
 6786TIP3   OH220300   2.227   5.960   3.890
 6786TIP3    H120301   2.176   6.032   3.928
 6786TIP3    H220302   2.267   5.997   3.812
 6787TIP3   OH220303   0.101   1.759   5.200
 6787TIP3    H120304   0.081   1.735   5.109
 6787TIP3    H220305   0.029   1.720   5.250
 6788TIP3   OH220306   3.377   0.294   5.494
 6788TIP3    H120307   3.471   0.306   5.477
 6788TIP3    H220308   3.353   0.221   5.437
 6789TIP3   OH220309   2.741   4.552   5.254
 6789TIP3    H120310   2.674   4.600   5.301
 6789TIP3    H220311   2.756   4.602   5.174
 6790TIP3   OH220312   2.266   1.266   1.531
 6790TIP3    H120313   2.277   1.220   1.615
 6790TIP3    H220314   2.231   1.351   1.556
 6791TIP3   OH220315   7.831   2.486   1.921
 6791TIP3    H120316   7.782   2.526   1.993
 6791TIP3    H220317   7.767   2.478   1.850
 6792TIP3   OH220318   5.839   2.900   6.240
 6792TIP3    H120319   5.879   2.972   6.191
 6792TIP3    H220320   5.839   2.929   6.331
 6793TIP3   OH220321   5.957   3.872   0.662
 6793TIP3    H120322   6.005   3.833   0.589
 6793TIP3    H220323   6.025   3.907   0.719
 6794TIP3   OH220324   3.491   0.034   6.205
 6794TIP3    H120325   3.501   0.063   6.114
 6794TIP3    H220326   3.539  -0.048   6.210
 6795TIP3   OH220327   6.328   2.100   4.013
 6795TIP3    H120328   6.262   2.143   3.960
 6795TIP3    H220329   6.367   2.170   4.066
 6796TIP3   OH220330   0.995   5.355   2.029
 6796TIP3    H120331   1.027   5.437   1.991
 6796TIP3    H220332   1.058   5.289   1.999
 6797TIP3   OH220333   3.702   7.556   0.043
 6797TIP3    H120334   3.719   7.587   0.132
 6797TIP3    H220335   3.733   7.466   0.043
 6798TIP3   OH220336   8.292   6.204   3.347
 6798TIP3    H120337   8.200   6.227   3.362
 6798TIP3    H220338   8.301   6.200   3.252
 6799TIP3   OH220339   3.787   0.121   0.354
 6799TIP3    H120340   3.732   0.148   0.428
 6799TIP3    H220341   3.866   0.173   0.364
 6800TIP3   OH220342   2.329   0.297   3.167
 6800TIP3    H120343   2.368   0.265   3.086
 6800TIP3    H220344   2.394   0.356   3.204
 6801TIP3   OH220345   7.911   2.220   5.173
 6801TIP3    H120346   7.903   2.248   5.264
 6801TIP3    H220347   7.915   2.301   5.122
 6802TIP3   OH220348   1.876   3.798   0.567
 6802TIP3    H120349   1.797   3.820   0.616
 6802TIP3    H220350   1.947   3.840   0.614
 6803TIP3   OH220351   2.542   2.263   6.584
 6803TIP3    H120352   2.475   2.195   6.589
 6803TIP3    H220353   2.563   2.270   6.491
 6804TIP3   OH220354   0.563   4.923   1.810
 6804TIP3    H120355   0.588   4.843   1.764
 6804TIP3    H220356   0.483   4.951   1.765
 6805TIP3   OH220357   0.966   5.388   5.861
 6805TIP3    H120358   0.986   5.354   5.774
 6805TIP3    H220359   1.023   5.464   5.871
 6806TIP3   OH220360   3.809   7.517   2.572
 6806TIP3    H120361   3.875   7.447   2.580
 6806TIP3    H220362   3.859   7.598   2.582
 6807TIP3   OH220363  -0.007   3.907   6.575
 6807TIP3    H120364   0.029   3.825   6.540
 6807TIP3    H220365   0.023   3.974   6.514
 6808TIP3   OH220366   1.765   0.485   4.263
 6808TIP3    H120367   1.855   0.473   4.293
 6808TIP3    H220368   1.759   0.579   4.245
 6809TIP3   OH220369   6.663   0.786   5.236
 6809TIP3    H120370   6.644   0.879   5.234
 6809TIP3    H220371   6.622   0.754   5.316
 6810TIP3   OH220372   1.484   4.560   1.080
 6810TIP3    H120373   1.421   4.628   1.055
 6810TIP3    H220374   1.561   4.578   1.027
 6811TIP3   OH220375   0.251   2.723   5.078
 6811TIP3    H120376   0.317   2.791   5.093
 6811TIP3    H220377   0.237   2.684   5.164
 6812TIP3   OH220378   0.088   1.474   5.821
 6812TIP3    H120379   0.145   1.549   5.802
 6812TIP3    H220380   0.108   1.452   5.912
 6813TIP3   OH220381   4.111   3.165   2.358
 6813TIP3    H120382   4.190   3.193   2.312
 6813TIP3    H220383   4.046   3.231   2.336
 6814TIP3   OH220384   2.011   1.934   2.708
 6814TIP3    H120385   1.927   1.942   2.754
 6814TIP3    H220386   2.000   1.988   2.630
 6815TIP3   OH220387   2.520   7.683   0.971
 6815TIP3    H120388   2.530   7.672   0.876
 6815TIP3    H220389   2.606   7.713   1.000
 6816TIP3   OH220390   6.252   0.904   1.283
 6816TIP3    H120391   6.271   0.865   1.197
 6816TIP3    H220392   6.235   0.996   1.264
 6817TIP3   OH220393   6.473   7.592   0.557
 6817TIP3    H120394   6.530   7.668   0.573
 6817TIP3    H220395   6.485   7.537   0.634
 6818TIP3   OH220396   7.539   7.540   2.910
 6818TIP3    H120397   7.537   7.451   2.874
 6818TIP3    H220398   7.610   7.583   2.862
 6819TIP3   OH220399   5.976   4.836   4.955
 6819TIP3    H120400   5.986   4.833   4.860
 6819TIP3    H220401   5.961   4.745   4.981
 6820TIP3   OH220402   1.677   7.745   4.674
 6820TIP3    H120403   1.698   7.749   4.581
 6820TIP3    H220404   1.732   7.812   4.714
 6821TIP3   OH220405   5.339   5.198   4.736
 6821TIP3    H120406   5.342   5.188   4.831
 6821TIP3    H220407   5.323   5.110   4.702
 6822TIP3   OH220408   7.476   0.007   4.446
 6822TIP3    H120409   7.420   0.005   4.524
 6822TIP3    H220410   7.493   0.101   4.432
 6823TIP3   OH220411   0.832   7.057   2.427
 6823TIP3    H120412   0.816   7.113   2.351
 6823TIP3    H220413   0.754   7.001   2.432
 6824TIP3   OH220414   1.317   3.184   3.734
 6824TIP3    H120415   1.322   3.225   3.648
 6824TIP3    H220416   1.372   3.238   3.790
 6825TIP3   OH220417   5.992   2.885   0.832
 6825TIP3    H120418   5.962   2.871   0.743
 6825TIP3    H220419   5.962   2.973   0.854
 6826TIP3   OH220420   2.352   3.822   5.585
 6826TIP3    H120421   2.399   3.816   5.668
 6826TIP3    H220422   2.357   3.734   5.548
 6827TIP3   OH220423   6.874   5.805   1.687
 6827TIP3    H120424   6.839   5.732   1.738
 6827TIP3    H220425   6.805   5.872   1.690
 6828TIP3   OH220426   7.564   3.165   2.291
 6828TIP3    H120427   7.516   3.093   2.250
 6828TIP3    H220428   7.652   3.130   2.306
 6829TIP3   OH220429   3.426   0.882   1.365
 6829TIP3    H120430   3.510   0.838   1.379
 6829TIP3    H220431   3.425   0.904   1.272
 6830TIP3   OH220432   2.284   5.207   5.598
 6830TIP3    H120433   2.337   5.128   5.608
 6830TIP3    H220434   2.338   5.276   5.636
 6831TIP3   OH220435   0.428   4.465   3.744
 6831TIP3    H120436   0.373   4.439   3.670
 6831TIP3    H220437   0.424   4.560   3.745
 6832TIP3   OH220438   0.081   1.057   0.110
 6832TIP3    H120439   0.126   1.022   0.187
 6832TIP3    H220440   0.058   1.147   0.134
 6833TIP3   OH220441   3.357   4.630   4.716
 6833TIP3    H120442   3.388   4.714   4.753
 6833TIP3    H220443   3.310   4.589   4.788
 6834TIP3   OH220444   7.631   7.281   6.244
 6834TIP3    H120445   7.688   7.338   6.296
 6834TIP3    H220446   7.552   7.272   6.297
 6835TIP3   OH220447   7.462   5.920   2.311
 6835TIP3    H120448   7.424   5.995   2.357
 6835TIP3    H220449   7.449   5.940   2.218
 6836TIP3   OH220450   7.096   2.291   0.056
 6836TIP3    H120451   7.033   2.343   0.104
 6836TIP3    H220452   7.181   2.327   0.080
 6837TIP3   OH220453   7.817   3.201   1.226
 6837TIP3    H120454   7.887   3.153   1.270
 6837TIP3    H220455   7.745   3.138   1.220
 6838TIP3   OH220456   2.592   6.686   5.617
 6838TIP3    H120457   2.596   6.780   5.598
 6838TIP3    H220458   2.661   6.671   5.682
 6839TIP3   OH220459   0.062   2.009   3.306
 6839TIP3    H120460   0.048   2.081   3.367
 6839TIP3    H220461   0.154   2.016   3.280
 6840TIP3   OH220462   6.244   2.927   0.736
 6840TIP3    H120463   6.321   2.885   0.774
 6840TIP3    H220464   6.179   2.857   0.731
 6841TIP3   OH220465   0.490   2.373   0.721
 6841TIP3    H120466   0.568   2.418   0.752
 6841TIP3    H220467   0.519   2.284   0.702
 6842TIP3   OH220468   6.592   3.243   3.313
 6842TIP3    H120469   6.588   3.307   3.384
 6842TIP3    H220470   6.555   3.163   3.351
 6843TIP3   OH220471   4.234   5.020   1.210
 6843TIP3    H120472   4.208   5.112   1.202
 6843TIP3    H220473   4.291   5.018   1.287
 6844TIP3   OH220474   5.232   5.835   0.908
 6844TIP3    H120475   5.211   5.877   0.824
 6844TIP3    H220476   5.325   5.855   0.922
 6845TIP3   OH220477   5.810   2.136   0.679
 6845TIP3    H120478   5.734   2.120   0.736
 6845TIP3    H220479   5.813   2.232   0.670
 6846TIP3   OH220480   6.649   7.204   4.156
 6846TIP3    H120481   6.639   7.130   4.216
 6846TIP3    H220482   6.630   7.167   4.070
 6847TIP3   OH220483   6.731   3.147   4.955
 6847TIP3    H120484   6.788   3.115   5.025
 6847TIP3    H220485   6.777   3.124   4.874
 6848TIP3   OH220486   4.259   2.236   4.810
 6848TIP3    H120487   4.294   2.263   4.895
 6848TIP3    H220488   4.173   2.200   4.829
 6849TIP3   OH220489   5.816   5.657   6.045
 6849TIP3    H120490   5.880   5.611   6.099
 6849TIP3    H220491   5.860   5.667   5.960
 6850TIP3   OH220492   2.573   1.122   0.783
 6850TIP3    H120493   2.536   1.210   0.774
 6850TIP3    H220494   2.545   1.093   0.870
 6851TIP3   OH220495   6.667   5.654   6.389
 6851TIP3    H120496   6.663   5.694   6.476
 6851TIP3    H220497   6.618   5.573   6.398
 6852TIP3   OH220498   2.823   2.697   1.466
 6852TIP3    H120499   2.734   2.711   1.433
 6852TIP3    H220500   2.814   2.701   1.561
 6853TIP3   OH220501   3.347   2.822   4.052
 6853TIP3    H120502   3.308   2.754   4.106
 6853TIP3    H220503   3.326   2.904   4.098
 6854TIP3   OH220504   1.359   5.432   2.044
 6854TIP3    H120505   1.327   5.351   2.005
 6854TIP3    H220506   1.379   5.489   1.969
 6855TIP3   OH220507   2.900   2.087   1.371
 6855TIP3    H120508   2.851   2.100   1.290
 6855TIP3    H220509   2.954   2.010   1.355
 6856TIP3   OH220510   7.301   0.113   1.511
 6856TIP3    H120511   7.240   0.162   1.565
 6856TIP3    H220512   7.311   0.029   1.556
 6857TIP3   OH220513   7.843   4.895   1.141
 6857TIP3    H120514   7.828   4.836   1.067
 6857TIP3    H220515   7.840   4.983   1.103
 6858TIP3   OH220516   0.154   2.918   5.571
 6858TIP3    H120517   0.213   2.991   5.589
 6858TIP3    H220518   0.211   2.841   5.567
 6859TIP3   OH220519   7.984   6.665   4.172
 6859TIP3    H120520   7.925   6.665   4.248
 6859TIP3    H220521   7.928   6.642   4.098
 6860TIP3   OH220522   5.473   1.447   5.435
 6860TIP3    H120523   5.428   1.520   5.478
 6860TIP3    H220524   5.539   1.419   5.498
 6861TIP3   OH220525   1.202   0.401   4.311
 6861TIP3    H120526   1.186   0.330   4.249
 6861TIP3    H220527   1.294   0.392   4.335
 6862TIP3   OH220528   3.344   3.382   4.669
 6862TIP3    H120529   3.274   3.437   4.703
 6862TIP3    H220530   3.388   3.437   4.603
 6863TIP3   OH220531   2.887   4.874   2.997
 6863TIP3    H120532   2.976   4.907   2.987
 6863TIP3    H220533   2.851   4.874   2.908
 6864TIP3   OH220534   7.111   7.394   3.244
 6864TIP3    H120535   7.190   7.437   3.211
 6864TIP3    H220536   7.053   7.466   3.268
 6865TIP3   OH220537   5.499   7.530   5.755
 6865TIP3    H120538   5.512   7.440   5.784
 6865TIP3    H220539   5.419   7.558   5.800
 6866TIP3   OH220540   2.004   2.267   0.871
 6866TIP3    H120541   2.021   2.229   0.958
 6866TIP3    H220542   2.061   2.344   0.867
 6867TIP3   OH220543   4.643   5.576   3.113
 6867TIP3    H120544   4.616   5.646   3.173
 6867TIP3    H220545   4.593   5.500   3.142
 6868TIP3   OH220546   2.904   3.066   3.174
 6868TIP3    H120547   2.819   3.092   3.138
 6868TIP3    H220548   2.883   3.022   3.256
 6869TIP3   OH220549   4.005   3.351   6.228
 6869TIP3    H120550   3.936   3.291   6.256
 6869TIP3    H220551   4.086   3.303   6.243
 6870TIP3   OH220552   6.611   7.234   5.027
 6870TIP3    H120553   6.564   7.317   5.022
 6870TIP3    H220554   6.592   7.190   4.944
 6871TIP3   OH220555   5.033   2.555   0.990
 6871TIP3    H120556   4.941   2.562   0.964
 6871TIP3    H220557   5.041   2.467   1.026
 6872TIP3   OH220558   2.007   7.169   5.543
 6872TIP3    H120559   2.102   7.157   5.538
 6872TIP3    H220560   1.995   7.260   5.569
 6873TIP3   OH220561   2.202   1.949   2.209
 6873TIP3    H120562   2.147   1.957   2.287
 6873TIP3    H220563   2.235   1.859   2.212
 6874TIP3   OH220564   2.980   1.748   3.525
 6874TIP3    H120565   3.062   1.729   3.571
 6874TIP3    H220566   2.955   1.835   3.556
 6875TIP3   OH220567   4.108   7.187   1.114
 6875TIP3    H120568   4.155   7.159   1.035
 6875TIP3    H220569   4.149   7.271   1.137
 6876TIP3   OH220570   8.182   3.061   2.073
 6876TIP3    H120571   8.168   3.137   2.129
 6876TIP3    H220572   8.277   3.056   2.061
 6877TIP3   OH220573   2.097   3.972   6.385
 6877TIP3    H120574   2.168   3.925   6.341
 6877TIP3    H220575   2.028   3.907   6.396
 6878TIP3   OH220576   5.463   0.776   0.199
 6878TIP3    H120577   5.552   0.764   0.232
 6878TIP3    H220578   5.407   0.743   0.269
 6879TIP3   OH220579   5.229   3.233  -0.006
 6879TIP3    H120580   5.180   3.239   0.076
 6879TIP3    H220581   5.195   3.305  -0.059
 6880TIP3   OH220582   2.872   4.552   4.358
 6880TIP3    H120583   2.810   4.576   4.290
 6880TIP3    H220584   2.958   4.576   4.322
 6881TIP3   OH220585   4.986   0.512   3.225
 6881TIP3    H120586   4.906   0.482   3.181
 6881TIP3    H220587   5.049   0.441   3.211
 6882TIP3   OH220588   3.526   6.345   2.284
 6882TIP3    H120589   3.459   6.279   2.301
 6882TIP3    H220590   3.588   6.336   2.356
 6883TIP3   OH220591   4.472   4.742   4.641
 6883TIP3    H120592   4.441   4.681   4.574
 6883TIP3    H220593   4.560   4.766   4.612
 6884TIP3   OH220594   6.001   4.023   1.839
 6884TIP3    H120595   5.979   4.034   1.746
 6884TIP3    H220596   5.968   3.936   1.861
 6885TIP3   OH220597   7.785   6.314   4.603
 6885TIP3    H120598   7.711   6.262   4.571
 6885TIP3    H220599   7.817   6.266   4.679
 6886TIP3   OH220600   7.882   6.373   6.664
 6886TIP3    H120601   7.903   6.467   6.662
 6886TIP3    H220602   7.824   6.363   6.740
 6887TIP3   OH220603   8.204   5.621   2.769
 6887TIP3    H120604   8.155   5.571   2.704
 6887TIP3    H220605   8.294   5.623   2.736
 6888TIP3   OH220606   7.110   0.953   0.809
 6888TIP3    H120607   7.026   0.971   0.851
 6888TIP3    H220608   7.163   0.912   0.877
 6889TIP3   OH220609   6.859   4.150   6.279
 6889TIP3    H120610   6.922   4.092   6.236
 6889TIP3    H220611   6.906   4.233   6.286
 6890TIP3   OH220612   8.259   0.722   1.165
 6890TIP3    H120613   8.329   0.766   1.118
 6890TIP3    H220614   8.280   0.629   1.158
 6891TIP3   OH220615   1.018   1.389   1.096
 6891TIP3    H120616   1.104   1.374   1.134
 6891TIP3    H220617   1.034   1.400   1.002
 6892TIP3   OH220618   1.212   3.436   4.799
 6892TIP3    H120619   1.170   3.464   4.718
 6892TIP3    H220620   1.268   3.362   4.773
 6893TIP3   OH220621   1.758   6.589   3.707
 6893TIP3    H120622   1.814   6.572   3.632
 6893TIP3    H220623   1.694   6.652   3.676
 6894TIP3   OH220624   0.147   0.971   6.718
 6894TIP3    H120625   0.236   0.968   6.683
 6894TIP3    H220626   0.139   0.893   6.772
 6895TIP3   OH220627   2.462   7.456   5.335
 6895TIP3    H120628   2.424   7.532   5.379
 6895TIP3    H220629   2.556   7.465   5.349
 6896TIP3   OH220630   1.594   0.380   6.493
 6896TIP3    H120631   1.648   0.423   6.427
 6896TIP3    H220632   1.656   0.330   6.546
 6897TIP3   OH220633   5.552   5.248   5.119
 6897TIP3    H120634   5.492   5.187   5.161
 6897TIP3    H220635   5.639   5.216   5.142
 6898TIP3   OH220636   6.082   0.764   0.910
 6898TIP3    H120637   6.123   0.686   0.947
 6898TIP3    H220638   6.152   0.806   0.860
 6899TIP3   OH220639   0.026   4.473   2.217
 6899TIP3    H120640   0.044   4.454   2.309
 6899TIP3    H220641   0.005   4.388   2.179
 6900TIP3   OH220642   0.389   4.750   2.634
 6900TIP3    H120643   0.315   4.772   2.577
 6900TIP3    H220644   0.461   4.804   2.602
 6901TIP3   OH220645   5.220   0.487   2.585
 6901TIP3    H120646   5.136   0.459   2.622
 6901TIP3    H220647   5.285   0.458   2.648
 6902TIP3   OH220648   6.032   3.819   3.268
 6902TIP3    H120649   6.111   3.799   3.217
 6902TIP3    H220650   5.963   3.767   3.226
 6903TIP3   OH220651   3.832   3.152   0.031
 6903TIP3    H120652   3.747   3.175   0.067
 6903TIP3    H220653   3.825   3.171  -0.063
 6904TIP3   OH220654   7.180   6.374   4.586
 6904TIP3    H120655   7.248   6.311   4.560
 6904TIP3    H220656   7.211   6.408   4.670
 6905TIP3   OH220657   7.532   4.538   4.620
 6905TIP3    H120658   7.509   4.607   4.682
 6905TIP3    H220659   7.480   4.462   4.648
 6906TIP3   OH220660   1.154   4.323   1.370
 6906TIP3    H120661   1.203   4.377   1.308
 6906TIP3    H220662   1.071   4.305   1.326
 6907TIP3   OH220663   4.636   5.385   2.478
 6907TIP3    H120664   4.561   5.436   2.448
 6907TIP3    H220665   4.598   5.312   2.527
 6908TIP3   OH220666   4.763   2.026   0.177
 6908TIP3    H120667   4.730   2.063   0.258
 6908TIP3    H220668   4.777   1.934   0.196
 6909TIP3   OH220669   7.003   0.126   1.860
 6909TIP3    H120670   6.938   0.068   1.821
 6909TIP3    H220671   6.997   0.110   1.955
 6910TIP3   OH220672   7.537   4.668   3.801
 6910TIP3    H120673   7.482   4.622   3.864
 6910TIP3    H220674   7.588   4.599   3.759
 6911TIP3   OH220675   4.401   6.289   5.411
 6911TIP3    H120676   4.469   6.239   5.456
 6911TIP3    H220677   4.338   6.223   5.382
 6912TIP3   OH220678   6.741   6.009   3.618
 6912TIP3    H120679   6.726   6.075   3.686
 6912TIP3    H220680   6.656   5.968   3.606
 6913TIP3   OH220681   2.581   5.462   1.588
 6913TIP3    H120682   2.628   5.525   1.533
 6913TIP3    H220683   2.532   5.408   1.527
 6914TIP3   OH220684   6.288   0.030   2.698
 6914TIP3    H120685   6.351   0.075   2.642
 6914TIP3    H220686   6.288   0.080   2.780
 6915TIP3   OH220687   7.656   4.909   4.974
 6915TIP3    H120688   7.740   4.880   5.011
 6915TIP3    H220689   7.598   4.833   4.985
 6916TIP3   OH220690   7.171   5.632   3.203
 6916TIP3    H120691   7.238   5.696   3.182
 6916TIP3    H220692   7.219   5.552   3.223
 6917TIP3   OH220693   7.130   0.297   2.960
 6917TIP3    H120694   7.149   0.308   3.053
 6917TIP3    H220695   7.057   0.355   2.943
 6918TIP3   OH220696   7.376   7.339   2.790
 6918TIP3    H120697   7.331   7.366   2.710
 6918TIP3    H220698   7.308   7.342   2.857
 6919TIP3   OH220699   0.613   6.855   4.643
 6919TIP3    H120700   0.533   6.823   4.685
 6919TIP3    H220701   0.662   6.897   4.714
 6920TIP3   OH220702   6.505   5.976   1.327
 6920TIP3    H120703   6.556   6.041   1.281
 6920TIP3    H220704   6.544   5.892   1.301
 6921TIP3   OH220705   7.254   6.738   0.431
 6921TIP3    H120706   7.227   6.830   0.421
 6921TIP3    H220707   7.185   6.699   0.484
 6922TIP3   OH220708   4.938   2.986   6.198
 6922TIP3    H120709   4.941   2.893   6.175
 6922TIP3    H220710   4.854   3.016   6.162
 6923TIP3   OH220711   1.111   7.180   3.957
 6923TIP3    H120712   1.184   7.181   4.019
 6923TIP3    H220713   1.124   7.258   3.904
 6924TIP3   OH220714   7.149   5.634   0.374
 6924TIP3    H120715   7.075   5.628   0.435
 6924TIP3    H220716   7.110   5.670   0.294
 6925TIP3   OH220717   7.174   6.118   5.793
 6925TIP3    H120718   7.114   6.064   5.843
 6925TIP3    H220719   7.132   6.128   5.707
 6926TIP3   OH220720   7.377   0.701   4.870
 6926TIP3    H120721   7.297   0.724   4.917
 6926TIP3    H220722   7.413   0.784   4.840
 6927TIP3   OH220723   6.116   7.448   4.779
 6927TIP3    H120724   6.049   7.516   4.776
 6927TIP3    H220725   6.193   7.489   4.740
 6928TIP3   OH220726   0.086   5.683   0.375
 6928TIP3    H120727   0.176   5.657   0.356
 6928TIP3    H220728   0.047   5.700   0.289
 6929TIP3   OH220729   6.758   0.569   3.698
 6929TIP3    H120730   6.716   0.503   3.642
 6929TIP3    H220731   6.813   0.518   3.758
 6930TIP3   OH220732   0.279   2.458   1.328
 6930TIP3    H120733   0.291   2.540   1.281
 6930TIP3    H220734   0.209   2.413   1.281
 6931TIP3   OH220735   0.122   5.055   0.516
 6931TIP3    H120736   0.063   5.013   0.578
 6931TIP3    H220737   0.167   4.983   0.472
 6932TIP3   OH220738   3.405   1.833   5.644
 6932TIP3    H120739   3.321   1.788   5.642
 6932TIP3    H220740   3.443   1.809   5.729
 6933TIP3   OH220741   0.290   2.177   0.554
 6933TIP3    H120742   0.274   2.105   0.493
 6933TIP3    H220743   0.223   2.167   0.621
 6934TIP3   OH220744   6.488   4.714   2.583
 6934TIP3    H120745   6.489   4.701   2.678
 6934TIP3    H220746   6.479   4.626   2.547
 6935TIP3   OH220747   2.492   0.517   4.992
 6935TIP3    H120748   2.488   0.602   4.949
 6935TIP3    H220749   2.409   0.475   4.971
 6936TIP3   OH220750   5.202   2.363   3.652
 6936TIP3    H120751   5.173   2.280   3.689
 6936TIP3    H220752   5.157   2.429   3.704
 6937TIP3   OH220753   0.137   2.949   2.618
 6937TIP3    H120754   0.197   2.941   2.544
 6937TIP3    H220755   0.056   2.983   2.579
 6938TIP3   OH220756   1.402   5.249   4.108
 6938TIP3    H120757   1.425   5.157   4.116
 6938TIP3    H220758   1.310   5.249   4.080
 6939TIP3   OH220759   1.983   1.098   5.510
 6939TIP3    H120760   1.909   1.110   5.450
 6939TIP3    H220761   1.947   1.044   5.581
 6940TIP3   OH220762   5.982   7.382   4.404
 6940TIP3    H120763   6.077   7.379   4.411
 6940TIP3    H220764   5.956   7.292   4.386
 6941TIP3   OH220765  -0.025   4.898   5.648
 6941TIP3    H120766   0.037   4.969   5.632
 6941TIP3    H220767   0.019   4.820   5.615
 6942TIP3   OH220768   6.859   5.592   1.865
 6942TIP3    H120769   6.831   5.503   1.846
 6942TIP3    H220770   6.803   5.621   1.937
 6943TIP3   OH220771   2.187   5.549   6.519
 6943TIP3    H120772   2.104   5.531   6.475
 6943TIP3    H220773   2.180   5.501   6.602
 6944TIP3   OH220774   7.953   6.988   0.673
 6944TIP3    H120775   7.883   6.945   0.623
 6944TIP3    H220776   7.907   7.034   0.743
 6945TIP3   OH220777   4.090   6.116   4.679
 6945TIP3    H120778   4.056   6.082   4.761
 6945TIP3    H220779   4.103   6.039   4.624
 6946TIP3   OH220780   3.777   2.978   4.703
 6946TIP3    H120781   3.715   2.940   4.765
 6946TIP3    H220782   3.780   2.915   4.630
 6947TIP3   OH220783   8.205   6.072   2.208
 6947TIP3    H120784   8.223   6.123   2.287
 6947TIP3    H220785   8.144   6.004   2.237
 6948TIP3   OH220786   0.070   1.705   2.481
 6948TIP3    H120787   0.047   1.794   2.455
 6948TIP3    H220788  -0.015   1.662   2.495
 6949TIP3   OH220789   8.126   4.007   1.003
 6949TIP3    H120790   8.087   4.001   0.916
 6949TIP3    H220791   8.216   3.978   0.991
 6950TIP3   OH220792   4.665   0.621   3.284
 6950TIP3    H120793   4.665   0.705   3.237
 6950TIP3    H220794   4.583   0.580   3.258
 6951TIP3   OH220795   7.046   1.792   1.280
 6951TIP3    H120796   6.979   1.789   1.348
 6951TIP3    H220797   7.126   1.764   1.325
 6952TIP3   OH220798   6.194   6.587   6.580
 6952TIP3    H120799   6.282   6.553   6.562
 6952TIP3    H220800   6.188   6.668   6.529
 6953TIP3   OH220801   3.689   3.368   6.442
 6953TIP3    H120802   3.646   3.394   6.360
 6953TIP3    H220803   3.653   3.281   6.461
 6954TIP3   OH220804   5.045   2.527   3.833
 6954TIP3    H120805   5.049   2.540   3.927
 6954TIP3    H220806   5.010   2.438   3.822
 6955TIP3   OH220807   5.511   7.793   4.025
 6955TIP3    H120808   5.561   7.711   4.025
 6955TIP3    H220809   5.572   7.858   4.060
 6956TIP3   OH220810   0.612   6.215   4.105
 6956TIP3    H120811   0.612   6.122   4.082
 6956TIP3    H220812   0.702   6.244   4.090
 6957TIP3   OH220813   7.130   0.909   3.604
 6957TIP3    H120814   7.111   0.918   3.510
 6957TIP3    H220815   7.102   0.820   3.625
 6958TIP3   OH220816   4.910   3.954   3.570
 6958TIP3    H120817   4.895   3.928   3.479
 6958TIP3    H220818   4.836   4.012   3.590
 6959TIP3   OH220819   3.780   1.356   3.208
 6959TIP3    H120820   3.771   1.321   3.297
 6959TIP3    H220821   3.714   1.424   3.202
 6960TIP3   OH220822   5.853   1.209   2.077
 6960TIP3    H120823   5.839   1.294   2.119
 6960TIP3    H220824   5.933   1.220   2.026
 6961TIP3   OH220825   6.018   5.093   0.874
 6961TIP3    H120826   6.006   5.091   0.779
 6961TIP3    H220827   5.961   5.022   0.906
 6962TIP3   OH220828   6.341   1.141   2.871
 6962TIP3    H120829   6.306   1.224   2.839
 6962TIP3    H220830   6.413   1.166   2.929
 6963TIP3   OH220831   6.906   7.739   4.784
 6963TIP3    H120832   6.854   7.662   4.760
 6963TIP3    H220833   6.923   7.729   4.877
 6964TIP3   OH220834   2.173   3.493   3.864
 6964TIP3    H120835   2.184   3.443   3.945
 6964TIP3    H220836   2.209   3.436   3.796
 6965TIP3   OH220837   5.009   0.484   6.551
 6965TIP3    H120838   5.072   0.497   6.481
 6965TIP3    H220839   5.050   0.420   6.609
 6966TIP3   OH220840   3.276   0.263   0.636
 6966TIP3    H120841   3.195   0.292   0.679
 6966TIP3    H220842   3.319   0.208   0.702
 6967TIP3   OH220843   6.946   2.480   0.516
 6967TIP3    H120844   7.011   2.476   0.447
 6967TIP3    H220845   6.988   2.531   0.585
 6968TIP3   OH220846   4.639   6.845   6.414
 6968TIP3    H120847   4.687   6.763   6.406
 6968TIP3    H220848   4.634   6.879   6.325
 6969TIP3   OH220849   2.289   2.055   1.327
 6969TIP3    H120850   2.288   1.969   1.369
 6969TIP3    H220851   2.219   2.103   1.371
 6970TIP3   OH220852   2.839   0.017   1.546
 6970TIP3    H120853   2.913  -0.024   1.500
 6970TIP3    H220854   2.878   0.052   1.626
 6971TIP3   OH220855   4.551   2.696   3.822
 6971TIP3    H120856   4.538   2.787   3.794
 6971TIP3    H220857   4.558   2.701   3.917
 6972TIP3   OH220858   3.032   1.002   6.292
 6972TIP3    H120859   3.012   1.090   6.325
 6972TIP3    H220860   2.946   0.960   6.283
 6973TIP3   OH220861   7.319   5.845   3.187
 6973TIP3    H120862   7.292   5.937   3.189
 6973TIP3    H220863   7.317   5.817   3.278
 6974TIP3   OH220864   0.930   5.570   4.415
 6974TIP3    H120865   1.019   5.573   4.451
 6974TIP3    H220866   0.907   5.477   4.416
 6975TIP3   OH220867   0.531   7.809   3.221
 6975TIP3    H120868   0.510   7.763   3.302
 6975TIP3    H220869   0.609   7.765   3.187
 6976TIP3   OH220870   1.469   7.319   4.374
 6976TIP3    H120871   1.477   7.398   4.321
 6976TIP3    H220872   1.558   7.303   4.407
 6977TIP3   OH220873   5.899   7.179   3.628
 6977TIP3    H120874   5.932   7.243   3.691
 6977TIP3    H220875   5.886   7.099   3.680
 6978TIP3   OH220876   2.664   2.240   3.334
 6978TIP3    H120877   2.681   2.313   3.394
 6978TIP3    H220878   2.727   2.173   3.359
 6979TIP3   OH220879   6.347  -0.026   1.112
 6979TIP3    H120880   6.352  -0.007   1.206
 6979TIP3    H220881   6.394   0.047   1.070
 6980TIP3   OH220882   3.797   7.503   5.237
 6980TIP3    H120883   3.732   7.513   5.306
 6980TIP3    H220884   3.835   7.416   5.252
 6981TIP3   OH220885   3.475   1.089   1.781
 6981TIP3    H120886   3.497   1.114   1.691
 6981TIP3    H220887   3.536   1.139   1.835
 6982TIP3   OH220888   4.586   5.666   5.565
 6982TIP3    H120889   4.634   5.740   5.603
 6982TIP3    H220890   4.544   5.703   5.487
 6983TIP3   OH220891   5.451   6.006   6.131
 6983TIP3    H120892   5.475   6.004   6.039
 6983TIP3    H220893   5.513   5.946   6.173
 6984TIP3   OH220894   5.859   6.227   2.313
 6984TIP3    H120895   5.928   6.162   2.328
 6984TIP3    H220896   5.905   6.303   2.278
 6985TIP3   OH220897   1.075   4.671   0.085
 6985TIP3    H120898   1.154   4.704   0.042
 6985TIP3    H220899   1.015   4.653   0.012
 6986TIP3   OH220900   8.311   1.031   2.576
 6986TIP3    H120901   8.323   1.125   2.588
 6986TIP3    H220902   8.232   1.025   2.522
 6987TIP3   OH220903   4.807   6.937   1.771
 6987TIP3    H120904   4.749   7.007   1.739
 6987TIP3    H220905   4.895   6.967   1.748
 6988TIP3   OH220906   4.847   2.612   4.485
 6988TIP3    H120907   4.857   2.521   4.512
 6988TIP3    H220908   4.754   2.621   4.465
 6989TIP3   OH220909   1.843   0.771   4.588
 6989TIP3    H120910   1.870   0.756   4.679
 6989TIP3    H220911   1.917   0.739   4.536
 6990TIP3   OH220912   0.520   1.944   5.037
 6990TIP3    H120913   0.534   1.872   5.099
 6990TIP3    H220914   0.426   1.961   5.040
 6991TIP3   OH220915   7.023   3.404   3.936
 6991TIP3    H120916   6.997   3.325   3.983
 6991TIP3    H220917   7.100   3.377   3.885
 6992TIP3   OH220918   4.981   7.652   5.633
 6992TIP3    H120919   5.035   7.639   5.711
 6992TIP3    H220920   4.910   7.588   5.641
 6993TIP3   OH220921   6.886   1.318   2.722
 6993TIP3    H120922   6.832   1.382   2.676
 6993TIP3    H220923   6.866   1.333   2.815
 6994TIP3   OH220924   4.103   1.149   4.475
 6994TIP3    H120925   4.023   1.102   4.452
 6994TIP3    H220926   4.093   1.169   4.568
 6995TIP3   OH220927   6.197   1.334   2.241
 6995TIP3    H120928   6.177   1.287   2.160
 6995TIP3    H220929   6.112   1.365   2.272
 6996TIP3   OH220930   0.094   6.414   3.032
 6996TIP3    H120931   0.110   6.500   3.071
 6996TIP3    H220932   0.152   6.355   3.080
 6997TIP3   OH220933   1.811   5.691   6.118
 6997TIP3    H120934   1.743   5.633   6.083
 6997TIP3    H220935   1.824   5.756   6.049
 6998TIP3   OH220936   4.720   0.984   4.068
 6998TIP3    H120937   4.641   0.965   4.120
 6998TIP3    H220938   4.790   0.937   4.113
 6999TIP3   OH220939   5.885   3.443   2.323
 6999TIP3    H120940   5.809   3.405   2.278
 6999TIP3    H220941   5.951   3.375   2.320
 7000TIP3   OH220942   1.269   3.496   4.422
 7000TIP3    H120943   1.292   3.403   4.421
 7000TIP3    H220944   1.174   3.498   4.413
 7001TIP3   OH220945   5.502   0.851   6.329
 7001TIP3    H120946   5.574   0.856   6.266
 7001TIP3    H220947   5.530   0.903   6.404
 7002TIP3   OH220948   7.345   6.556   2.635
 7002TIP3    H120949   7.320   6.481   2.688
 7002TIP3    H220950   7.384   6.517   2.556
 7003TIP3   OH220951   3.350   1.320   2.820
 7003TIP3    H120952   3.338   1.415   2.816
 7003TIP3    H220953   3.385   1.304   2.908
 7004TIP3   OH220954   2.100   5.128   1.797
 7004TIP3    H120955   2.014   5.087   1.790
 7004TIP3    H220956   2.144   5.078   1.866
 7005TIP3   OH220957   1.734   4.206   3.764
 7005TIP3    H120958   1.754   4.112   3.768
 7005TIP3    H220959   1.815   4.248   3.793
 7006TIP3   OH220960   1.702   4.988   5.574
 7006TIP3    H120961   1.639   4.916   5.586
 7006TIP3    H220962   1.779   4.961   5.624
 7007TIP3   OH220963   7.289   7.510   6.365
 7007TIP3    H120964   7.262   7.423   6.336
 7007TIP3    H220965   7.281   7.508   6.460
 7008TIP3   OH220966   6.624   3.924   6.314
 7008TIP3    H120967   6.640   3.986   6.385
 7008TIP3    H220968   6.712   3.897   6.286
 7009TIP3   OH220969   4.403   2.346   5.018
 7009TIP3    H120970   4.463   2.273   5.032
 7009TIP3    H220971   4.460   2.419   4.995
 7010TIP3   OH220972   3.670   1.148   4.501
 7010TIP3    H120973   3.746   1.091   4.508
 7010TIP3    H220974   3.647   1.170   4.591
 7011TIP3   OH220975   4.632   2.890   2.375
 7011TIP3    H120976   4.728   2.888   2.375
 7011TIP3    H220977   4.606   2.798   2.370
 7012TIP3   OH220978   7.997   5.900   5.799
 7012TIP3    H120979   7.906   5.886   5.774
 7012TIP3    H220980   8.005   5.857   5.884
 7013TIP3   OH220981   4.975   3.926   2.018
 7013TIP3    H120982   5.007   3.921   2.109
 7013TIP3    H220983   4.886   3.891   2.022
 7014TIP3   OH220984   7.215   5.376   2.309
 7014TIP3    H120985   7.192   5.468   2.293
 7014TIP3    H220986   7.235   5.341   2.222
 7015TIP3   OH220987   5.323   4.188   6.565
 7015TIP3    H120988   5.337   4.188   6.471
 7015TIP3    H220989   5.342   4.098   6.592
 7016TIP3   OH220990   4.362   0.826   1.718
 7016TIP3    H120991   4.276   0.786   1.727
 7016TIP3    H220992   4.424   0.759   1.748
 7017TIP3   OH220993   7.978   6.925   2.416
 7017TIP3    H120994   8.014   6.909   2.503
 7017TIP3    H220995   7.967   6.837   2.379
 7018TIP3   OH220996   8.316   5.015   6.561
 7018TIP3    H120997   8.293   4.922   6.564
 7018TIP3    H220998   8.243   5.056   6.516
 7019TIP3   OH220999   2.018   7.066   0.234
 7019TIP3    H121000   2.092   7.076   0.174
 7019TIP3    H221001   2.058   7.058   0.321
 7020TIP3   OH221002   7.446   6.942   5.665
 7020TIP3    H121003   7.420   6.851   5.681
 7020TIP3    H221004   7.535   6.936   5.632
 7021TIP3   OH221005   7.860   4.783   1.870
 7021TIP3    H121006   7.918   4.707   1.860
 7021TIP3    H221007   7.880   4.817   1.957
 7022TIP3   OH221008   0.900   0.678   6.070
 7022TIP3    H121009   0.990   0.680   6.035
 7022TIP3    H221010   0.884   0.768   6.097
 7023TIP3   OH221011   4.125   5.174   6.105
 7023TIP3    H121012   4.143   5.264   6.134
 7023TIP3    H221013   4.067   5.185   6.029
 7024TIP3   OH221014   7.290   1.809   0.781
 7024TIP3    H121015   7.228   1.793   0.853
 7024TIP3    H221016   7.263   1.748   0.713
 7025TIP3   OH221017   7.028   3.593   6.477
 7025TIP3    H121018   7.110   3.594   6.525
 7025TIP3    H221019   7.047   3.641   6.396
 7026TIP3   OH221020   6.698   1.449   2.574
 7026TIP3    H121021   6.653   1.533   2.586
 7026TIP3    H221022   6.649   1.404   2.505
 7027TIP3   OH221023   3.532   5.854   6.741
 7027TIP3    H121024   3.514   5.852   6.835
 7027TIP3    H221025   3.538   5.761   6.717
 7028TIP3   OH221026   5.443   4.377   5.303
 7028TIP3    H121027   5.348   4.380   5.316
 7028TIP3    H221028   5.461   4.453   5.247
 7029TIP3   OH221029   5.721   1.320   4.072
 7029TIP3    H121030   5.660   1.295   4.141
 7029TIP3    H221031   5.733   1.415   4.083
 7030TIP3   OH221032   1.681   3.174   2.289
 7030TIP3    H121033   1.756   3.212   2.242
 7030TIP3    H221034   1.710   3.085   2.312
 7031TIP3   OH221035   3.180   1.531   6.715
 7031TIP3    H121036   3.219   1.588   6.649
 7031TIP3    H221037   3.107   1.582   6.751
 7032TIP3   OH221038   4.464   7.684   1.935
 7032TIP3    H121039   4.552   7.715   1.954
 7032TIP3    H221040   4.437   7.733   1.858
 7033TIP3   OH221041   4.910   3.667   3.690
 7033TIP3    H121042   4.867   3.719   3.758
 7033TIP3    H221043   4.924   3.729   3.618
 7034TIP3   OH221044   0.107   7.154   5.815
 7034TIP3    H121045   0.107   7.085   5.881
 7034TIP3    H221046   0.144   7.112   5.737
 7035TIP3   OH221047   1.769   5.011   0.851
 7035TIP3    H121048   1.698   5.023   0.789
 7035TIP3    H221049   1.751   4.927   0.893
 7036TIP3   OH221050   5.836   5.738   1.052
 7036TIP3    H121051   5.920   5.696   1.036
 7036TIP3    H221052   5.781   5.713   0.978
 7037TIP3   OH221053   7.572   3.282   2.564
 7037TIP3    H121054   7.665   3.303   2.568
 7037TIP3    H221055   7.560   3.244   2.477
 7038TIP3   OH221056   3.951   1.685   0.205
 7038TIP3    H121057   3.967   1.591   0.199
 7038TIP3    H221058   3.940   1.702   0.298
 7039TIP3   OH221059   3.770   7.101   1.744
 7039TIP3    H121060   3.808   7.090   1.831
 7039TIP3    H221061   3.845   7.103   1.685
 7040TIP3   OH221062   7.956   6.418   5.838
 7040TIP3    H121063   7.991   6.473   5.767
 7040TIP3    H221064   7.976   6.329   5.811
 7041TIP3   OH221065   3.053   6.244   1.093
 7041TIP3    H121066   3.124   6.264   1.155
 7041TIP3    H221067   3.024   6.329   1.062
 7042TIP3   OH221068   5.380   3.983   0.584
 7042TIP3    H121069   5.367   4.046   0.513
 7042TIP3    H221070   5.408   4.035   0.659
 7043TIP3   OH221071   3.350   5.954   0.234
 7043TIP3    H121072   3.395   5.945   0.318
 7043TIP3    H221073   3.358   5.868   0.193
 7044TIP3   OH221074   0.528   6.179   5.353
 7044TIP3    H121075   0.493   6.096   5.386
 7044TIP3    H221076   0.589   6.154   5.283
 7045TIP3   OH221077   8.118   4.466   5.758
 7045TIP3    H121078   8.105   4.523   5.682
 7045TIP3    H221079   8.185   4.511   5.810
 7046TIP3   OH221080   1.259   2.026   4.637
 7046TIP3    H121081   1.236   1.984   4.555
 7046TIP3    H221082   1.184   2.083   4.657
 7047TIP3   OH221083   6.023   3.364   0.329
 7047TIP3    H121084   6.013   3.367   0.234
 7047TIP3    H221085   6.115   3.344   0.343
 7048TIP3   OH221086   1.248   7.141   5.959
 7048TIP3    H121087   1.169   7.129   6.012
 7048TIP3    H221088   1.220   7.124   5.869
 7049TIP3   OH221089   4.441   6.892   2.756
 7049TIP3    H121090   4.400   6.978   2.769
 7049TIP3    H221091   4.369   6.835   2.731
 7050TIP3   OH221092   8.104   2.977   6.707
 7050TIP3    H121093   8.159   2.985   6.785
 7050TIP3    H221094   8.045   2.905   6.727
 7051TIP3   OH221095   0.364   7.279   3.617
 7051TIP3    H121096   0.422   7.315   3.684
 7051TIP3    H221097   0.369   7.341   3.544
 7052TIP3   OH221098   0.519   0.775   2.386
 7052TIP3    H121099   0.470   0.709   2.336
 7052TIP3    H221100   0.455   0.845   2.401
 7053TIP3   OH221101   0.951   4.917   1.278
 7053TIP3    H121102   0.927   4.991   1.223
 7053TIP3    H221103   0.977   4.848   1.216
 7054TIP3   OH221104   2.659   0.899   2.169
 7054TIP3    H121105   2.751   0.924   2.159
 7054TIP3    H221106   2.649   0.880   2.262
 7055TIP3   OH221107   6.021   5.373   1.980
 7055TIP3    H121108   6.111   5.356   2.010
 7055TIP3    H221109   6.029   5.382   1.885
 7056TIP3   OH221110   7.407   1.958   0.566
 7056TIP3    H121111   7.373   1.921   0.648
 7056TIP3    H221112   7.411   1.884   0.506
 7057TIP3   OH221113   1.281   5.494   4.735
 7057TIP3    H121114   1.243   5.543   4.662
 7057TIP3    H221115   1.334   5.426   4.693
 7058TIP3   OH221116   7.612   4.573   4.089
 7058TIP3    H121117   7.590   4.574   4.182
 7058TIP3    H221118   7.561   4.501   4.052
 7059TIP3   OH221119   0.873   6.820   4.334
 7059TIP3    H121120   0.832   6.903   4.358
 7059TIP3    H221121   0.960   6.845   4.301
 7060TIP3   OH221122   2.456   2.364   5.916
 7060TIP3    H121123   2.408   2.432   5.963
 7060TIP3    H221124   2.544   2.366   5.954
 7061TIP3   OH221125   6.155   2.634   0.184
 7061TIP3    H121126   6.115   2.574   0.121
 7061TIP3    H221127   6.195   2.702   0.129
 7062TIP3   OH221128   2.992   3.858   3.170
 7062TIP3    H121129   3.064   3.808   3.210
 7062TIP3    H221130   2.986   3.938   3.222
 7063TIP3   OH221131   6.023   0.357   5.591
 7063TIP3    H121132   5.998   0.387   5.679
 7063TIP3    H221133   6.001   0.430   5.534
 7064TIP3   OH221134   0.289   1.661   2.906
 7064TIP3    H121135   0.227   1.710   2.961
 7064TIP3    H221136   0.345   1.614   2.968
 7065TIP3   OH221137   3.622   2.458   3.572
 7065TIP3    H121138   3.573   2.437   3.651
 7065TIP3    H221139   3.605   2.552   3.558
 7066TIP3   OH221140   0.749   4.142   5.861
 7066TIP3    H121141   0.794   4.059   5.844
 7066TIP3    H221142   0.712   4.133   5.948
 7067TIP3   OH221143   0.751   5.975   4.370
 7067TIP3    H121144   0.767   5.971   4.276
 7067TIP3    H221145   0.659   5.950   4.380
 7068TIP3   OH221146   3.895   4.532   6.326
 7068TIP3    H121147   3.879   4.520   6.233
 7068TIP3    H221148   3.960   4.602   6.331
 7069TIP3   OH221149   6.671   7.146   6.353
 7069TIP3    H121150   6.765   7.147   6.333
 7069TIP3    H221151   6.659   7.214   6.419
 7070TIP3   OH221152   1.616   5.232   1.485
 7070TIP3    H121153   1.650   5.316   1.452
 7070TIP3    H221154   1.650   5.226   1.574
 7071TIP3   OH221155   0.059   4.225   0.863
 7071TIP3    H121156  -0.026   4.208   0.821
 7071TIP3    H221157   0.089   4.138   0.891
 7072TIP3   OH221158   5.079   4.983   5.628
 7072TIP3    H121159   5.136   4.921   5.583
 7072TIP3    H221160   5.139   5.038   5.679
 7073TIP3   OH221161   3.319   6.994   0.560
 7073TIP3    H121162   3.301   7.088   0.564
 7073TIP3    H221163   3.254   6.955   0.618
 7074TIP3   OH221164   6.470   7.703   4.719
 7074TIP3    H121165   6.529   7.775   4.743
 7074TIP3    H221166   6.486   7.636   4.786
 7075TIP3   OH221167   4.327   6.329   5.022
 7075TIP3    H121168   4.345   6.273   5.098
 7075TIP3    H221169   4.394   6.306   4.958
 7076TIP3   OH221170   4.666   3.425   2.976
 7076TIP3    H121171   4.648   3.446   3.068
 7076TIP3    H221172   4.599   3.472   2.927
 7077TIP3   OH221173   1.843   4.371   1.241
 7077TIP3    H121174   1.758   4.377   1.283
 7077TIP3    H221175   1.899   4.430   1.292
 7078TIP3   OH221176   7.411   3.755   4.096
 7078TIP3    H121177   7.352   3.713   4.159
 7078TIP3    H221178   7.366   3.747   4.012
 7079TIP3   OH221179   1.458   0.129   4.299
 7079TIP3    H121180   1.413   0.072   4.237
 7079TIP3    H221181   1.471   0.075   4.377
 7080TIP3   OH221182   3.935   2.737   3.894
 7080TIP3    H121183   3.960   2.742   3.986
 7080TIP3    H221184   3.903   2.647   3.883
 7081TIP3   OH221185   3.873   1.895   2.778
 7081TIP3    H121186   3.941   1.829   2.788
 7081TIP3    H221187   3.917   1.969   2.737
 7082TIP3   OH221188   1.820   4.460   6.427
 7082TIP3    H121189   1.870   4.381   6.408
 7082TIP3    H221190   1.866   4.500   6.500
 7083TIP3   OH221191   1.925   2.690   4.431
 7083TIP3    H121192   1.914   2.631   4.357
 7083TIP3    H221193   1.942   2.633   4.505
 7084TIP3   OH221194   3.145   2.592   1.178
 7084TIP3    H121195   3.200   2.613   1.254
 7084TIP3    H221196   3.064   2.558   1.216
 7085TIP3   OH221197   8.024   4.755   4.249
 7085TIP3    H121198   7.956   4.776   4.184
 7085TIP3    H221199   8.024   4.660   4.255
 7086TIP3   OH221200   6.133   7.234   3.261
 7086TIP3    H121201   6.170   7.322   3.266
 7086TIP3    H221202   6.045   7.242   3.296
 7087TIP3   OH221203   8.252   4.007   3.674
 7087TIP3    H121204   8.334   3.964   3.647
 7087TIP3    H221205   8.192   3.992   3.601
 7088TIP3   OH221206   0.576   7.492   0.120
 7088TIP3    H121207   0.652   7.548   0.137
 7088TIP3    H221208   0.510   7.553   0.086
 7089TIP3   OH221209   7.811   7.489   4.933
 7089TIP3    H121210   7.731   7.538   4.952
 7089TIP3    H221211   7.844   7.527   4.852
 7090TIP3   OH221212   2.700   3.213   6.656
 7090TIP3    H121213   2.697   3.119   6.675
 7090TIP3    H221214   2.728   3.218   6.565
 7091TIP3   OH221215   2.313   2.330   2.262
 7091TIP3    H121216   2.307   2.374   2.178
 7091TIP3    H221217   2.223   2.304   2.282
 7092TIP3   OH221218   0.062   2.871   2.916
 7092TIP3    H121219   0.150   2.868   2.954
 7092TIP3    H221220   0.078   2.878   2.822
 7093TIP3   OH221221   1.870   7.576   3.869
 7093TIP3    H121222   1.897   7.609   3.955
 7093TIP3    H221223   1.794   7.521   3.887
 7094TIP3   OH221224   7.963   5.837   6.274
 7094TIP3    H121225   7.975   5.818   6.181
 7094TIP3    H221226   7.900   5.909   6.277
 7095TIP3   OH221227   4.752   7.178   0.448
 7095TIP3    H121228   4.695   7.202   0.521
 7095TIP3    H221229   4.834   7.224   0.466
 7096TIP3   OH221230   0.936   0.946   2.831
 7096TIP3    H121231   0.940   0.927   2.738
 7096TIP3    H221232   0.893   1.031   2.836
 7097TIP3   OH221233   4.988   1.451   0.702
 7097TIP3    H121234   4.909   1.483   0.657
 7097TIP3    H221235   4.966   1.363   0.730
 7098TIP3   OH221236   5.390   0.161   5.191
 7098TIP3    H121237   5.387   0.241   5.139
 7098TIP3    H221238   5.336   0.098   5.143
 7099TIP3   OH221239   4.602   0.684   6.253
 7099TIP3    H121240   4.608   0.774   6.221
 7099TIP3    H221241   4.693   0.660   6.273
 7100TIP3   OH221242   5.914   7.667   0.847
 7100TIP3    H121243   5.958   7.734   0.795
 7100TIP3    H221244   5.825   7.700   0.858
 7101TIP3   OH221245   0.748   3.774   6.657
 7101TIP3    H121246   0.671   3.719   6.655
 7101TIP3    H221247   0.802   3.739   6.729
 7102TIP3   OH221248   0.421   2.575   1.810
 7102TIP3    H121249   0.455   2.488   1.788
 7102TIP3    H221250   0.498   2.632   1.810
 7103TIP3   OH221251   1.794   4.660   4.842
 7103TIP3    H121252   1.855   4.734   4.833
 7103TIP3    H221253   1.708   4.698   4.824
 7104TIP3   OH221254   8.142   3.806   0.155
 7104TIP3    H121255   8.092   3.835   0.231
 7104TIP3    H221256   8.229   3.845   0.166
 7105TIP3   OH221257   7.745   3.155   1.826
 7105TIP3    H121258   7.700   3.207   1.759
 7105TIP3    H221259   7.674   3.116   1.877
 7106TIP3   OH221260   6.422   1.654   5.170
 7106TIP3    H121261   6.421   1.655   5.075
 7106TIP3    H221262   6.333   1.680   5.195
 7107TIP3   OH221263   4.398   5.297   4.867
 7107TIP3    H121264   4.458   5.236   4.911
 7107TIP3    H221265   4.412   5.380   4.911
 7108TIP3   OH221266   7.714   4.565   2.200
 7108TIP3    H121267   7.777   4.592   2.134
 7108TIP3    H221268   7.754   4.591   2.283
 7109TIP3   OH221269   2.698   1.573   5.464
 7109TIP3    H121270   2.754   1.650   5.456
 7109TIP3    H221271   2.701   1.531   5.378
 7110TIP3   OH221272   1.873   5.155   6.309
 7110TIP3    H121273   1.903   5.196   6.228
 7110TIP3    H221274   1.863   5.063   6.286
 7111TIP3   OH221275   6.636   3.155   6.524
 7111TIP3    H121276   6.617   3.165   6.431
 7111TIP3    H221277   6.567   3.096   6.556
 7112TIP3   OH221278   3.529   1.974   4.524
 7112TIP3    H121279   3.603   2.017   4.567
 7112TIP3    H221280   3.458   2.037   4.529
 7113TIP3   OH221281   4.466   4.386   0.669
 7113TIP3    H121282   4.407   4.445   0.623
 7113TIP3    H221283   4.500   4.329   0.600
 7114TIP3   OH221284   1.046   7.480   1.259
 7114TIP3    H121285   1.120   7.518   1.306
 7114TIP3    H221286   1.086   7.417   1.198
 7115TIP3   OH221287   5.961   2.544   1.215
 7115TIP3    H121288   5.886   2.582   1.170
 7115TIP3    H221289   6.034   2.555   1.154
 7116TIP3   OH221290   1.353   6.190   6.095
 7116TIP3    H121291   1.441   6.188   6.132
 7116TIP3    H221292   1.366   6.172   6.002
 7117TIP3   OH221293   3.977   2.913   2.323
 7117TIP3    H121294   4.032   2.984   2.356
 7117TIP3    H221295   3.913   2.957   2.267
 7118TIP3   OH221296   7.045   1.371   4.202
 7118TIP3    H121297   6.967   1.417   4.172
 7118TIP3    H221298   7.040   1.285   4.161
 7119TIP3   OH221299   2.819   5.457   0.962
 7119TIP3    H121300   2.883   5.517   0.926
 7119TIP3    H221301   2.871   5.391   1.007
 7120TIP3   OH221302   1.817   4.854   4.355
 7120TIP3    H121303   1.908   4.835   4.332
 7120TIP3    H221304   1.822   4.932   4.411
 7121TIP3   OH221305   4.254   4.200   1.812
 7121TIP3    H121306   4.179   4.162   1.857
 7121TIP3    H221307   4.262   4.149   1.732
 7122TIP3   OH221308   1.289   7.464   0.813
 7122TIP3    H121309   1.286   7.530   0.745
 7122TIP3    H221310   1.375   7.475   0.854
 7123TIP3   OH221311   5.638   4.109   2.324
 7123TIP3    H121312   5.705   4.167   2.288
 7123TIP3    H221313   5.560   4.127   2.270
 7124TIP3   OH221314   6.433   1.971   1.815
 7124TIP3    H121315   6.386   1.907   1.761
 7124TIP3    H221316   6.391   2.055   1.795
 7125TIP3   OH221317   4.323   4.510   5.374
 7125TIP3    H121318   4.414   4.480   5.381
 7125TIP3    H221319   4.304   4.547   5.460
 7126TIP3   OH221320   1.321   7.294   4.685
 7126TIP3    H121321   1.235   7.253   4.690
 7126TIP3    H221322   1.308   7.373   4.632
 7127TIP3   OH221323   3.796   4.806   3.030
 7127TIP3    H121324   3.751   4.793   2.947
 7127TIP3    H221325   3.750   4.748   3.091
 7128TIP3   OH221326   4.652   5.830   6.139
 7128TIP3    H121327   4.578   5.783   6.100
 7128TIP3    H221328   4.629   5.923   6.128
 7129TIP3   OH221329   5.558   0.274   3.989
 7129TIP3    H121330   5.489   0.272   3.922
 7129TIP3    H221331   5.634   0.310   3.943
 7130TIP3   OH221332   7.044   4.455   1.688
 7130TIP3    H121333   7.059   4.535   1.637
 7130TIP3    H221334   7.026   4.485   1.777
 7131TIP3   OH221335   2.853   4.858   2.489
 7131TIP3    H121336   2.893   4.885   2.572
 7131TIP3    H221337   2.924   4.816   2.441
 7132TIP3   OH221338   4.032   4.083   0.848
 7132TIP3    H121339   4.019   4.027   0.924
 7132TIP3    H221340   3.953   4.137   0.844
 7133TIP3   OH221341   7.255   2.833   2.999
 7133TIP3    H121342   7.200   2.783   2.939
 7133TIP3    H221343   7.195   2.864   3.066
 7134TIP3   OH221344   6.650   1.136   2.668
 7134TIP3    H121345   6.634   1.215   2.719
 7134TIP3    H221346   6.727   1.097   2.709
 7135TIP3   OH221347   3.256   1.020   1.946
 7135TIP3    H121348   3.313   0.964   1.999
 7135TIP3    H221349   3.307   1.039   1.867
 7136TIP3   OH221350   0.237   3.540   4.259
 7136TIP3    H121351   0.309   3.500   4.309
 7136TIP3    H221352   0.251   3.511   4.169
 7137TIP3   OH221353   7.258   3.898   4.448
 7137TIP3    H121354   7.232   3.868   4.361
 7137TIP3    H221355   7.330   3.958   4.433
 7138TIP3   OH221356   7.305   4.477   5.956
 7138TIP3    H121357   7.392   4.516   5.964
 7138TIP3    H221358   7.299   4.452   5.863
 7139TIP3   OH221359   8.172   4.613   3.589
 7139TIP3    H121360   8.202   4.697   3.554
 7139TIP3    H221361   8.102   4.635   3.650
 7140TIP3   OH221362   4.619   4.416   3.312
 7140TIP3    H121363   4.640   4.509   3.299
 7140TIP3    H221364   4.526   4.410   3.294
 7141TIP3   OH221365   6.871   4.642   5.904
 7141TIP3    H121366   6.903   4.730   5.887
 7141TIP3    H221367   6.809   4.652   5.976
 7142TIP3   OH221368   4.154   3.270   1.137
 7142TIP3    H121369   4.176   3.181   1.163
 7142TIP3    H221370   4.100   3.260   1.059
 7143TIP3   OH221371   1.809   1.132   5.271
 7143TIP3    H121372   1.894   1.134   5.227
 7143TIP3    H221373   1.747   1.109   5.202
 7144TIP3   OH221374   2.002   5.839   4.581
 7144TIP3    H121375   2.043   5.909   4.632
 7144TIP3    H221376   1.936   5.884   4.529
 7145TIP3   OH221377   5.437   5.364   2.538
 7145TIP3    H121378   5.409   5.424   2.607
 7145TIP3    H221379   5.503   5.413   2.489
 7146TIP3   OH221380   1.856   5.711   1.194
 7146TIP3    H121381   1.774   5.664   1.184
 7146TIP3    H221382   1.924   5.644   1.182
 7147TIP3   OH221383   2.468   4.092   4.212
 7147TIP3    H121384   2.399   4.147   4.175
 7147TIP3    H221385   2.547   4.121   4.166
 7148TIP3   OH221386   1.746   0.354   2.238
 7148TIP3    H121387   1.745   0.443   2.273
 7148TIP3    H221388   1.804   0.359   2.162
 7149TIP3   OH221389   6.224   2.513   2.155
 7149TIP3    H121390   6.300   2.518   2.097
 7149TIP3    H221391   6.149   2.517   2.096
 7150TIP3   OH221392   2.742   1.453   5.225
 7150TIP3    H121393   2.803   1.460   5.152
 7150TIP3    H221394   2.703   1.366   5.215
 7151TIP3   OH221395   1.270   2.193   6.735
 7151TIP3    H121396   1.346   2.165   6.787
 7151TIP3    H221397   1.224   2.111   6.716
 7152TIP3   OH221398   4.692   6.778   2.844
 7152TIP3    H121399   4.781   6.788   2.810
 7152TIP3    H221400   4.635   6.796   2.770
 7153TIP3   OH221401   6.660   6.401   4.090
 7153TIP3    H121402   6.644   6.322   4.038
 7153TIP3    H221403   6.747   6.430   4.062
 7154TIP3   OH221404   8.202   5.340   3.923
 7154TIP3    H121405   8.258   5.328   4.000
 7154TIP3    H221406   8.260   5.328   3.848
 7155TIP3   OH221407   4.173   7.494   3.572
 7155TIP3    H121408   4.123   7.413   3.577
 7155TIP3    H221409   4.237   7.479   3.502
 7156TIP3   OH221410   3.364   0.340   3.090
 7156TIP3    H121411   3.424   0.403   3.051
 7156TIP3    H221412   3.407   0.256   3.080
 7157TIP3   OH221413   1.938   5.532   1.599
 7157TIP3    H121414   1.924   5.454   1.546
 7157TIP3    H221415   1.984   5.502   1.677
 7158TIP3   OH221416   4.440   1.864   4.956
 7158TIP3    H121417   4.346   1.872   4.970
 7158TIP3    H221418   4.462   1.776   4.988
 7159TIP3   OH221419   6.029   5.555   0.958
 7159TIP3    H121420   6.094   5.591   0.898
 7159TIP3    H221421   5.980   5.492   0.905
 7160TIP3   OH221422   1.733   2.883   5.864
 7160TIP3    H121423   1.790   2.960   5.866
 7160TIP3    H221424   1.772   2.822   5.926
 7161TIP3   OH221425   6.462   2.695   5.211
 7161TIP3    H121426   6.370   2.693   5.185
 7161TIP3    H221427   6.463   2.657   5.299
 7162TIP3   OH221428   2.353   1.594   5.694
 7162TIP3    H121429   2.285   1.622   5.755
 7162TIP3    H221430   2.435   1.604   5.743
 7163TIP3   OH221431   2.993   0.040   1.153
 7163TIP3    H121432   3.037   0.043   1.069
 7163TIP3    H221433   2.900   0.032   1.132
 7164TIP3   OH221434   5.460   2.515   2.686
 7164TIP3    H121435   5.384   2.539   2.739
 7164TIP3    H221436   5.474   2.423   2.705
 7165TIP3   OH221437   0.520   2.862   2.650
 7165TIP3    H121438   0.567   2.928   2.701
 7165TIP3    H221439   0.559   2.868   2.562
 7166TIP3   OH221440   7.183   4.165   6.702
 7166TIP3    H121441   7.222   4.149   6.787
 7166TIP3    H221442   7.171   4.078   6.664
 7167TIP3   OH221443   6.522   5.548   3.724
 7167TIP3    H121444   6.486   5.486   3.661
 7167TIP3    H221445   6.455   5.615   3.734
 7168TIP3   OH221446   2.876   5.547   1.469
 7168TIP3    H121447   2.903   5.465   1.428
 7168TIP3    H221448   2.821   5.590   1.404
 7169TIP3   OH221449   1.837   2.067   0.003
 7169TIP3    H121450   1.807   2.155   0.026
 7169TIP3    H221451   1.861   2.027   0.086
 7170TIP3   OH221452   1.681   5.620   5.798
 7170TIP3    H121453   1.645   5.572   5.873
 7170TIP3    H221454   1.776   5.606   5.804
 7171TIP3   OH221455   3.129   3.857   2.443
 7171TIP3    H121456   3.132   3.848   2.348
 7171TIP3    H221457   3.057   3.800   2.471
 7172TIP3   OH221458   4.624   7.587   4.040
 7172TIP3    H121459   4.629   7.658   4.105
 7172TIP3    H221460   4.559   7.618   3.977
 7173TIP3   OH221461   3.242   4.251   0.689
 7173TIP3    H121462   3.235   4.290   0.602
 7173TIP3    H221463   3.290   4.170   0.675
 7174TIP3   OH221464   3.585   1.744   1.629
 7174TIP3    H121465   3.591   1.836   1.657
 7174TIP3    H221466   3.521   1.705   1.689
 7175TIP3   OH221467   5.178   0.968   1.139
 7175TIP3    H121468   5.249   0.932   1.085
 7175TIP3    H221469   5.103   0.910   1.122
 7176TIP3   OH221470   1.910   3.102   1.317
 7176TIP3    H121471   1.845   3.032   1.327
 7176TIP3    H221472   1.890   3.164   1.387
 7177TIP3   OH221473   7.447   3.821   5.643
 7177TIP3    H121474   7.535   3.857   5.656
 7177TIP3    H221475   7.399   3.889   5.595
 7178TIP3   OH221476   7.032   3.101   5.931
 7178TIP3    H121477   7.048   3.018   5.976
 7178TIP3    H221478   7.039   3.081   5.838
 7179TIP3   OH221479   4.402   3.411   1.260
 7179TIP3    H121480   4.450   3.477   1.211
 7179TIP3    H221481   4.315   3.409   1.220
 7180TIP3   OH221482   7.028   3.052   4.775
 7180TIP3    H121483   7.003   2.995   4.702
 7180TIP3    H221484   7.014   3.140   4.742
 7181TIP3   OH221485   6.812   7.712   5.922
 7181TIP3    H121486   6.835   7.637   5.866
 7181TIP3    H221487   6.766   7.772   5.863
 7182TIP3   OH221488   1.511   2.624   0.274
 7182TIP3    H121489   1.506   2.661   0.186
 7182TIP3    H221490   1.430   2.574   0.283
 7183TIP3   OH221491   7.521   0.294   3.042
 7183TIP3    H121492   7.588   0.356   3.016
 7183TIP3    H221493   7.456   0.297   2.972
 7184TIP3   OH221494   0.976   7.308   6.715
 7184TIP3    H121495   0.953   7.315   6.623
 7184TIP3    H221496   0.995   7.215   6.729
 7185TIP3   OH221497   1.801   2.536   3.413
 7185TIP3    H121498   1.869   2.597   3.439
 7185TIP3    H221499   1.741   2.534   3.488
 7186TIP3   OH221500   6.978   1.695   5.027
 7186TIP3    H121501   6.941   1.743   4.952
 7186TIP3    H221502   7.068   1.728   5.034
 7187TIP3   OH221503   0.910   5.593   5.576
 7187TIP3    H121504   0.865   5.530   5.520
 7187TIP3    H221505   0.856   5.598   5.655
 7188TIP3   OH221506   4.236   2.811   3.334
 7188TIP3    H121507   4.278   2.845   3.255
 7188TIP3    H221508   4.155   2.861   3.342
 7189TIP3   OH221509   6.070   4.485   6.155
 7189TIP3    H121510   6.010   4.525   6.218
 7189TIP3    H221511   6.060   4.538   6.076
 7190TIP3   OH221512   5.044   0.873   4.708
 7190TIP3    H121513   4.994   0.938   4.756
 7190TIP3    H221514   5.054   0.800   4.769
 7191TIP3   OH221515   1.336   1.402   6.721
 7191TIP3    H121516   1.306   1.332   6.779
 7191TIP3    H221517   1.389   1.458   6.778
 7192TIP3   OH221518   1.328   1.234   5.547
 7192TIP3    H121519   1.350   1.275   5.630
 7192TIP3    H221520   1.386   1.158   5.542
 7193TIP3   OH221521   4.331   2.778   3.581
 7193TIP3    H121522   4.409   2.741   3.539
 7193TIP3    H221523   4.272   2.797   3.508
 7194TIP3   OH221524   2.625   4.431   6.637
 7194TIP3    H121525   2.587   4.498   6.694
 7194TIP3    H221526   2.650   4.479   6.558
 7195TIP3   OH221527   3.690   3.197   0.691
 7195TIP3    H121528   3.719   3.171   0.778
 7195TIP3    H221529   3.763   3.175   0.633
 7196TIP3   OH221530   5.549   6.552   0.256
 7196TIP3    H121531   5.533   6.628   0.312
 7196TIP3    H221532   5.531   6.584   0.168
 7197TIP3   OH221533   2.408   7.050   6.368
 7197TIP3    H121534   2.361   7.062   6.451
 7197TIP3    H221535   2.463   7.128   6.361
 7198TIP3   OH221536   1.742   0.098   3.589
 7198TIP3    H121537   1.713   0.115   3.500
 7198TIP3    H221538   1.706   0.171   3.640
 7199TIP3   OH221539   5.419   5.673   1.804
 7199TIP3    H121540   5.461   5.759   1.810
 7199TIP3    H221541   5.459   5.622   1.874
 7200TIP3   OH221542   6.189   6.012   1.898
 7200TIP3    H121543   6.283   6.028   1.887
 7200TIP3    H221544   6.184   5.927   1.941
 7201TIP3   OH221545   2.285   7.409   2.064
 7201TIP3    H121546   2.216   7.351   2.098
 7201TIP3    H221547   2.349   7.416   2.136
 7202TIP3   OH221548   0.472   0.592   1.087
 7202TIP3    H121549   0.558   0.550   1.089
 7202TIP3    H221550   0.436   0.569   1.001
 7203TIP3   OH221551   4.028   2.312   4.093
 7203TIP3    H121552   3.951   2.294   4.148
 7203TIP3    H221553   4.015   2.257   4.016
 7204TIP3   OH221554   1.922   5.803   1.937
 7204TIP3    H121555   1.934   5.840   1.850
 7204TIP3    H221556   2.004   5.822   1.983
 7205TIP3   OH221557   0.913   5.419   1.383
 7205TIP3    H121558   0.951   5.453   1.464
 7205TIP3    H221559   0.824   5.456   1.381
 7206TIP3   OH221560   1.760   4.694   2.703
 7206TIP3    H121561   1.737   4.725   2.791
 7206TIP3    H221562   1.793   4.605   2.717
 7207TIP3   OH221563   2.141   0.258   2.253
 7207TIP3    H121564   2.167   0.171   2.222
 7207TIP3    H221565   2.210   0.316   2.221
 7208TIP3   OH221566   7.985   5.229   3.766
 7208TIP3    H121567   7.987   5.279   3.685
 7208TIP3    H221568   8.056   5.266   3.819
 7209TIP3   OH221569   3.371   4.745   6.319
 7209TIP3    H121570   3.333   4.715   6.237
 7209TIP3    H221571   3.400   4.834   6.301
 7210TIP3   OH221572   3.173   7.382   2.942
 7210TIP3    H121573   3.248   7.442   2.947
 7210TIP3    H221574   3.194   7.314   3.006
 7211TIP3   OH221575   3.592   0.273   3.995
 7211TIP3    H121576   3.671   0.241   4.040
 7211TIP3    H221577   3.524   0.211   4.019
 7212TIP3   OH221578   4.845   7.188   1.291
 7212TIP3    H121579   4.910   7.151   1.352
 7212TIP3    H221580   4.788   7.240   1.347
 7213TIP3   OH221581   1.249   2.514   6.436
 7213TIP3    H121582   1.315   2.530   6.504
 7213TIP3    H221583   1.217   2.426   6.454
 7214TIP3   OH221584   7.657   1.772   6.598
 7214TIP3    H121585   7.716   1.704   6.632
 7214TIP3    H221586   7.653   1.837   6.669
 7215TIP3   OH221587   1.055   4.190   2.713
 7215TIP3    H121588   1.009   4.191   2.629
 7215TIP3    H221589   1.100   4.275   2.716
 7216TIP3   OH221590   4.677   0.860   3.136
 7216TIP3    H121591   4.753   0.893   3.088
 7216TIP3    H221592   4.605   0.917   3.110
 7217TIP3   OH221593   2.674   2.318   0.168
 7217TIP3    H121594   2.752   2.280   0.209
 7217TIP3    H221595   2.670   2.276   0.082
 7218TIP3   OH221596   0.168   6.636   1.660
 7218TIP3    H121597   0.186   6.685   1.740
 7218TIP3    H221598   0.243   6.653   1.604
 7219TIP3   OH221599   4.832   7.681   5.044
 7219TIP3    H121600   4.894   7.719   5.106
 7219TIP3    H221601   4.755   7.737   5.049
 7220TIP3   OH221602   1.948   4.693   5.861
 7220TIP3    H121603   1.947   4.604   5.825
 7220TIP3    H221604   2.033   4.702   5.902
 7221TIP3   OH221605   4.959   5.935   1.396
 7221TIP3    H121606   4.886   5.917   1.337
 7221TIP3    H221607   4.926   5.913   1.483
 7222TIP3   OH221608   1.101   3.265   5.032
 7222TIP3    H121609   1.135   3.177   5.016
 7222TIP3    H221610   1.141   3.319   4.963
 7223TIP3   OH221611   5.310   7.789   2.218
 7223TIP3    H121612   5.306   7.700   2.183
 7223TIP3    H221613   5.339   7.842   2.143
 7224TIP3   OH221614   3.076   0.017   4.341
 7224TIP3    H121615   3.149  -0.039   4.315
 7224TIP3    H221616   3.116   0.100   4.365
 7225TIP3   OH221617   3.015   1.750   0.000
 7225TIP3    H121618   2.970   1.667  -0.013
 7225TIP3    H221619   2.986   1.779   0.086
 7226TIP3   OH221620   1.870   6.906   3.523
 7226TIP3    H121621   1.833   6.989   3.554
 7226TIP3    H221622   1.927   6.931   3.449
 7227TIP3   OH221623   0.201   5.458   5.618
 7227TIP3    H121624   0.283   5.435   5.573
 7227TIP3    H221625   0.143   5.487   5.548
 7228TIP3   OH221626   4.172   6.480   6.117
 7228TIP3    H121627   4.078   6.498   6.109
 7228TIP3    H221628   4.187   6.406   6.058
 7229TIP3   OH221629   4.734   7.427   6.057
 7229TIP3    H121630   4.660   7.381   6.096
 7229TIP3    H221631   4.761   7.490   6.124
 7230TIP3   OH221632   2.139   4.204   4.547
 7230TIP3    H121633   2.225   4.163   4.546
 7230TIP3    H221634   2.087   4.154   4.484
 7231TIP3   OH221635   6.368   1.630   4.881
 7231TIP3    H121636   6.321   1.669   4.808
 7231TIP3    H221637   6.459   1.625   4.850
 7232TIP3   OH221638   5.617   5.608   2.884
 7232TIP3    H121639   5.603   5.695   2.846
 7232TIP3    H221640   5.691   5.619   2.944
 7233TIP3   OH221641   8.213   5.014   2.452
 7233TIP3    H121642   8.191   4.995   2.361
 7233TIP3    H221643   8.245   5.104   2.451
 7234TIP3   OH221644   4.588   0.257   1.175
 7234TIP3    H121645   4.614   0.245   1.083
 7234TIP3    H221646   4.527   0.185   1.192
 7235TIP3   OH221647   7.510   3.034   4.859
 7235TIP3    H121648   7.466   3.054   4.776
 7235TIP3    H221649   7.439   3.030   4.924
 7236TIP3   OH221650   5.454   6.904   4.588
 7236TIP3    H121651   5.463   6.992   4.625
 7236TIP3    H221652   5.524   6.853   4.628
 7237TIP3   OH221653   6.117   6.560   3.500
 7237TIP3    H121654   6.123   6.605   3.584
 7237TIP3    H221655   6.025   6.566   3.476
 7238TIP3   OH221656   0.774   6.595   0.369
 7238TIP3    H121657   0.868   6.598   0.349
 7238TIP3    H221658   0.751   6.686   0.387
 7239TIP3   OH221659   0.630   2.387   1.282
 7239TIP3    H121660   0.570   2.351   1.216
 7239TIP3    H221661   0.591   2.470   1.307
 7240TIP3   OH221662   6.813   3.421   4.551
 7240TIP3    H121663   6.859   3.501   4.526
 7240TIP3    H221664   6.883   3.361   4.579
 7241TIP3   OH221665   0.255   0.213   0.650
 7241TIP3    H121666   0.326   0.150   0.663
 7241TIP3    H221667   0.186   0.163   0.607
 7242TIP3   OH221668   6.364   5.563   0.326
 7242TIP3    H121669   6.327   5.475   0.327
 7242TIP3    H221670   6.345   5.599   0.412
 7243TIP3   OH221671   0.460   0.623   5.588
 7243TIP3    H121672   0.486   0.634   5.497
 7243TIP3    H221673   0.444   0.713   5.619
 7244TIP3   OH221674   0.776   7.649   3.561
 7244TIP3    H121675   0.721   7.629   3.637
 7244TIP3    H221676   0.767   7.744   3.550
 7245TIP3   OH221677   4.684   5.452   4.587
 7245TIP3    H121678   4.750   5.489   4.528
 7245TIP3    H221679   4.696   5.499   4.669
 7246TIP3   OH221680   6.702   6.869   6.143
 7246TIP3    H121681   6.606   6.869   6.141
 7246TIP3    H221682   6.727   6.789   6.099
 7247TIP3   OH221683   1.464   5.342   5.677
 7247TIP3    H121684   1.518   5.314   5.603
 7247TIP3    H221685   1.375   5.339   5.643
 7248TIP3   OH221686   1.443   5.814   4.068
 7248TIP3    H121687   1.519   5.794   4.122
 7248TIP3    H221688   1.423   5.906   4.087
 7249TIP3   OH221689   3.715   3.629   3.620
 7249TIP3    H121690   3.628   3.590   3.616
 7249TIP3    H221691   3.772   3.558   3.648
 7250TIP3   OH221692   5.379   4.959   1.131
 7250TIP3    H121693   5.448   4.896   1.154
 7250TIP3    H221694   5.327   4.914   1.065
 7251TIP3   OH221695   1.750   6.144   3.228
 7251TIP3    H121696   1.719   6.204   3.296
 7251TIP3    H221697   1.677   6.084   3.215
 7252TIP3   OH221698   1.047   6.628   5.325
 7252TIP3    H121699   1.080   6.655   5.411
 7252TIP3    H221700   1.101   6.553   5.301
 7253TIP3   OH221701   0.523   7.750   2.166
 7253TIP3    H121702   0.445   7.798   2.138
 7253TIP3    H221703   0.532   7.680   2.101
 7254TIP3   OH221704   0.280   2.583   4.477
 7254TIP3    H121705   0.197   2.578   4.524
 7254TIP3    H221706   0.256   2.599   4.386
 7255TIP3   OH221707   2.755   1.666   4.973
 7255TIP3    H121708   2.794   1.635   4.892
 7255TIP3    H221709   2.823   1.652   5.039
 7256TIP3   OH221710   4.797   3.960   2.465
 7256TIP3    H121711   4.833   4.017   2.397
 7256TIP3    H221712   4.741   3.899   2.418
 7257TIP3   OH221713   3.747   3.857   0.908
 7257TIP3    H121714   3.719   3.932   0.959
 7257TIP3    H221715   3.666   3.821   0.873
 7258TIP3   OH221716   6.203   5.817   4.313
 7258TIP3    H121717   6.210   5.865   4.396
 7258TIP3    H221718   6.109   5.811   4.297
 7259TIP3   OH221719   5.559   1.188   3.571
 7259TIP3    H121720   5.623   1.230   3.514
 7259TIP3    H221721   5.588   1.097   3.577
 7260TIP3   OH221722   3.618   7.398   4.124
 7260TIP3    H121723   3.652   7.348   4.198
 7260TIP3    H221724   3.523   7.391   4.131
 7261TIP3   OH221725   5.641   3.596   4.110
 7261TIP3    H121726   5.597   3.529   4.058
 7261TIP3    H221727   5.734   3.577   4.099
 7262TIP3   OH221728   3.841   4.451   4.074
 7262TIP3    H121729   3.915   4.393   4.091
 7262TIP3    H221730   3.764   4.399   4.098
 7263TIP3   OH221731   5.520   5.188   3.564
 7263TIP3    H121732   5.482   5.204   3.651
 7263TIP3    H221733   5.447   5.195   3.504
 7264TIP3   OH221734   5.001   3.975   3.089
 7264TIP3    H121735   4.916   3.952   3.053
 7264TIP3    H221736   5.052   4.006   3.014
 7265TIP3   OH221737   0.937   4.886   4.102
 7265TIP3    H121738   1.025   4.848   4.094
 7265TIP3    H221739   0.888   4.822   4.154
 7266TIP3   OH221740   1.000   1.906   5.628
 7266TIP3    H121741   1.066   1.944   5.570
 7266TIP3    H221742   1.042   1.903   5.714
 7267TIP3   OH221743   6.331   3.382   1.629
 7267TIP3    H121744   6.360   3.440   1.559
 7267TIP3    H221745   6.303   3.442   1.699
 7268TIP3   OH221746   3.739   5.321   2.617
 7268TIP3    H121747   3.671   5.333   2.682
 7268TIP3    H221748   3.820   5.314   2.668
 7269TIP3   OH221749   5.582   7.514   4.402
 7269TIP3    H121750   5.514   7.523   4.335
 7269TIP3    H221751   5.586   7.600   4.444
 7270TIP3   OH221752   0.837   1.514   4.854
 7270TIP3    H121753   0.833   1.588   4.794
 7270TIP3    H221754   0.931   1.501   4.869
 7271TIP3   OH221755   2.474   0.366   1.938
 7271TIP3    H121756   2.435   0.279   1.947
 7271TIP3    H221757   2.403   0.422   1.906
 7272TIP3   OH221758   5.270   5.355   0.365
 7272TIP3    H121759   5.349   5.309   0.336
 7272TIP3    H221760   5.222   5.373   0.284
 7273TIP3   OH221761   3.868   3.140   6.654
 7273TIP3    H121762   3.775   3.139   6.677
 7273TIP3    H221763   3.893   3.232   6.660
 7274TIP3   OH221764   3.268   3.118   6.488
 7274TIP3    H121765   3.361   3.122   6.467
 7274TIP3    H221766   3.232   3.198   6.450
 7275TIP3   OH221767   1.664   7.560   2.633
 7275TIP3    H121768   1.575   7.593   2.619
 7275TIP3    H221769   1.709   7.576   2.550
 7276TIP3   OH221770   3.548   3.539   4.199
 7276TIP3    H121771   3.603   3.461   4.201
 7276TIP3    H221772   3.593   3.600   4.141
 7277TIP3   OH221773   1.308   4.817   6.658
 7277TIP3    H121774   1.363   4.746   6.690
 7277TIP3    H221775   1.366   4.894   6.660
 7278TIP3   OH221776   1.881   2.437   2.629
 7278TIP3    H121777   1.886   2.513   2.571
 7278TIP3    H221778   1.881   2.474   2.717
 7279TIP3   OH221779   6.296   4.119   6.654
 7279TIP3    H121780   6.323   4.065   6.728
 7279TIP3    H221781   6.294   4.058   6.580
 7280TIP3   OH221782   6.327   1.816   6.689
 7280TIP3    H121783   6.350   1.898   6.646
 7280TIP3    H221784   6.405   1.792   6.739
 7281TIP3   OH221785   7.986   2.658   0.204
 7281TIP3    H121786   8.069   2.616   0.180
 7281TIP3    H221787   8.001   2.691   0.292
 7282TIP3   OH221788   0.550   3.656   4.439
 7282TIP3    H121789   0.636   3.660   4.398
 7282TIP3    H221790   0.528   3.563   4.442
 7283TIP3   OH221791   0.512   3.189   2.066
 7283TIP3    H121792   0.570   3.171   2.140
 7283TIP3    H221793   0.553   3.263   2.020
 7284TIP3   OH221794   2.820   4.860   5.984
 7284TIP3    H121795   2.864   4.913   5.918
 7284TIP3    H221796   2.786   4.784   5.935
 7285TIP3   OH221797   5.243   4.849   2.281
 7285TIP3    H121798   5.201   4.764   2.290
 7285TIP3    H221799   5.191   4.895   2.215
 7286TIP3   OH221800   6.102   2.229   4.747
 7286TIP3    H121801   6.022   2.266   4.709
 7286TIP3    H221802   6.173   2.275   4.702
 7287TIP3   OH221803   4.487   6.516   6.321
 7287TIP3    H121804   4.449   6.539   6.406
 7287TIP3    H221805   4.578   6.544   6.327
 7288TIP3   OH221806   0.087   0.243   2.400
 7288TIP3    H121807   0.015   0.218   2.458
 7288TIP3    H221808   0.044   0.289   2.328
 7289TIP3   OH221809   6.318   4.923   2.619
 7289TIP3    H121810   6.336   4.832   2.595
 7289TIP3    H221811   6.351   4.974   2.545
 7290TIP3   OH221812   0.541   5.030   0.128
 7290TIP3    H121813   0.572   5.119   0.111
 7290TIP3    H221814   0.508   5.034   0.218
 7291TIP3   OH221815   7.476   6.267   4.028
 7291TIP3    H121816   7.448   6.341   3.974
 7291TIP3    H221817   7.457   6.295   4.118
 7292TIP3   OH221818   7.677   5.116   3.058
 7292TIP3    H121819   7.714   5.074   2.981
 7292TIP3    H221820   7.693   5.054   3.130
 7293TIP3   OH221821   4.658   3.510   4.907
 7293TIP3    H121822   4.702   3.474   4.984
 7293TIP3    H221823   4.703   3.469   4.833
 7294TIP3   OH221824   4.052   4.462   0.782
 7294TIP3    H121825   3.986   4.402   0.817
 7294TIP3    H221826   4.080   4.421   0.700
 7295TIP3   OH221827   5.986   0.326   6.755
 7295TIP3    H121828   5.965   0.249   6.702
 7295TIP3    H221829   6.078   0.345   6.735
 7296TIP3   OH221830   6.860   2.629   5.139
 7296TIP3    H121831   6.843   2.634   5.234
 7296TIP3    H221832   6.810   2.701   5.102
 7297TIP3   OH221833   5.753   5.514   5.707
 7297TIP3    H121834   5.825   5.576   5.719
 7297TIP3    H221835   5.707   5.546   5.628
 7298TIP3   OH221836   6.149   6.719   2.939
 7298TIP3    H121837   6.235   6.676   2.931
 7298TIP3    H221838   6.144   6.776   2.862
 7299TIP3   OH221839   0.607   3.340   2.557
 7299TIP3    H121840   0.607   3.308   2.467
 7299TIP3    H221841   0.606   3.436   2.549
 7300TIP3   OH221842   4.496   3.746   5.482
 7300TIP3    H121843   4.408   3.710   5.466
 7300TIP3    H221844   4.482   3.840   5.492
 7301TIP3   OH221845   1.212   2.678   4.509
 7301TIP3    H121846   1.195   2.746   4.573
 7301TIP3    H221847   1.269   2.616   4.555
 7302TIP3   OH221848   1.770   4.903   1.515
 7302TIP3    H121849   1.736   4.939   1.433
 7302TIP3    H221850   1.693   4.866   1.558
 7303TIP3   OH221851   6.478   5.355   4.550
 7303TIP3    H121852   6.571   5.336   4.561
 7303TIP3    H221853   6.473   5.450   4.545
 7304TIP3   OH221854   0.236   4.409   3.564
 7304TIP3    H121855   0.237   4.500   3.533
 7304TIP3    H221856   0.171   4.366   3.508
 7305TIP3   OH221857   1.819   2.705   6.339
 7305TIP3    H121858   1.837   2.798   6.321
 7305TIP3    H221859   1.780   2.705   6.427
 7306TIP3   OH221860   5.850   3.044   5.138
 7306TIP3    H121861   5.929   3.079   5.099
 7306TIP3    H221862   5.781   3.063   5.075
 7307TIP3   OH221863   6.461   6.421   2.337
 7307TIP3    H121864   6.395   6.380   2.393
 7307TIP3    H221865   6.483   6.503   2.382
 7308TIP3   OH221866   0.020   3.003   1.735
 7308TIP3    H121867   0.112   3.026   1.748
 7308TIP3    H221868   0.010   2.921   1.783
 7309TIP3   OH221869   4.362   4.393   5.081
 7309TIP3    H121870   4.368   4.475   5.131
 7309TIP3    H221871   4.352   4.325   5.148
 7310TIP3   OH221872   3.234   3.833   6.345
 7310TIP3    H121873   3.306   3.840   6.408
 7310TIP3    H221874   3.191   3.919   6.348
 7311TIP3   OH221875   4.801   4.327   0.530
 7311TIP3    H121876   4.849   4.332   0.447
 7311TIP3    H221877   4.719   4.283   0.507
 7312TIP3   OH221878   4.196   0.073   5.186
 7312TIP3    H121879   4.171   0.090   5.095
 7312TIP3    H221880   4.290   0.061   5.183
 7313TIP3   OH221881   0.596   2.140   2.466
 7313TIP3    H121882   0.628   2.189   2.390
 7313TIP3    H221883   0.633   2.053   2.455
 7314TIP3   OH221884   5.940   3.041   2.256
 7314TIP3    H121885   6.025   3.076   2.283
 7314TIP3    H221886   5.927   3.074   2.167
 7315TIP3   OH221887   7.412   5.567   3.882
 7315TIP3    H121888   7.484   5.583   3.942
 7315TIP3    H221889   7.383   5.653   3.854
 7316TIP3   OH221890  -0.004   2.673   1.243
 7316TIP3    H121891  -0.043   2.756   1.215
 7316TIP3    H221892   0.075   2.665   1.190
 7317TIP3   OH221893   1.516   7.002   3.432
 7317TIP3    H121894   1.460   7.074   3.403
 7317TIP3    H221895   1.603   7.041   3.439
 7318TIP3   OH221896   2.300   1.685   2.198
 7318TIP3    H121897   2.353   1.699   2.276
 7318TIP3    H221898   2.328   1.599   2.165
 7319TIP3   OH221899   2.769   7.040   4.924
 7319TIP3    H121900   2.844   7.028   4.983
 7319TIP3    H221901   2.773   7.132   4.898
 7320TIP3   OH221902   0.528   3.140   4.640
 7320TIP3    H121903   0.593   3.195   4.685
 7320TIP3    H221904   0.479   3.200   4.585
 7321TIP3   OH221905   7.580   6.009   3.433
 7321TIP3    H121906   7.649   5.966   3.484
 7321TIP3    H221907   7.502   5.956   3.448
 7322TIP3   OH221908   6.570   4.699   4.918
 7322TIP3    H121909   6.590   4.759   4.846
 7322TIP3    H221910   6.609   4.741   4.995
 7323TIP3   OH221911   7.092   2.492   3.180
 7323TIP3    H121912   7.178   2.524   3.208
 7323TIP3    H221913   7.030   2.548   3.226
 7324TIP3   OH221914   0.073   4.711   2.473
 7324TIP3    H121915   0.040   4.785   2.422
 7324TIP3    H221916   0.018   4.710   2.552
 7325TIP3   OH221917   7.732   5.439   5.677
 7325TIP3    H121918   7.759   5.451   5.586
 7325TIP3    H221919   7.655   5.383   5.672
 7326TIP3   OH221920   6.527   0.110   6.066
 7326TIP3    H121921   6.617   0.138   6.078
 7326TIP3    H221922   6.520   0.091   5.973
 7327TIP3   OH221923   7.780   5.490   5.423
 7327TIP3    H121924   7.746   5.419   5.368
 7327TIP3    H221925   7.739   5.569   5.389
 7328TIP3   OH221926   3.025   7.301   5.712
 7328TIP3    H121927   3.044   7.358   5.786
 7328TIP3    H221928   3.105   7.250   5.699
 7329TIP3   OH221929   5.426   0.789   5.635
 7329TIP3    H121930   5.485   0.864   5.634
 7329TIP3    H221931   5.364   0.809   5.706
 7330TIP3   OH221932   0.756  -0.014   6.379
 7330TIP3    H121933   0.823  -0.023   6.312
 7330TIP3    H221934   0.789   0.056   6.436
 7331TIP3   OH221935   3.147   6.734   6.208
 7331TIP3    H121936   3.208   6.776   6.148
 7331TIP3    H221937   3.160   6.640   6.195
 7332TIP3   OH221938   2.322   5.285   3.894
 7332TIP3    H121939   2.280   5.345   3.956
 7332TIP3    H221940   2.409   5.322   3.879
 7333TIP3   OH221941   5.752   4.550   1.114
 7333TIP3    H121942   5.823   4.501   1.075
 7333TIP3    H221943   5.675   4.494   1.104
 7334TIP3   OH221944   5.037   6.557   4.085
 7334TIP3    H121945   5.047   6.540   4.179
 7334TIP3    H221946   5.046   6.652   4.077
 7335TIP3   OH221947   1.819   4.147   5.973
 7335TIP3    H121948   1.753   4.078   5.979
 7335TIP3    H221949   1.888   4.119   6.033
 7336TIP3   OH221950   1.366   2.804   6.273
 7336TIP3    H121951   1.347   2.758   6.191
 7336TIP3    H221952   1.352   2.738   6.341
 7337TIP3   OH221953   0.205   3.484   2.935
 7337TIP3    H121954   0.187   3.475   2.841
 7337TIP3    H221955   0.214   3.394   2.966
 7338TIP3   OH221956   3.221   3.034   4.228
 7338TIP3    H121957   3.132   3.008   4.253
 7338TIP3    H221958   3.257   3.074   4.307
 7339TIP3   OH221959   2.367   1.437   2.133
 7339TIP3    H121960   2.454   1.416   2.169
 7339TIP3    H221961   2.368   1.400   2.045
 7340TIP3   OH221962   5.872   0.837   1.534
 7340TIP3    H121963   5.908   0.770   1.475
 7340TIP3    H221964   5.805   0.791   1.585
 7341TIP3   OH221965   4.476   3.965   0.860
 7341TIP3    H121966   4.491   4.059   0.871
 7341TIP3    H221967   4.460   3.933   0.949
 7342TIP3   OH221968   2.005   2.543   1.986
 7342TIP3    H121969   1.958   2.466   2.019
 7342TIP3    H221970   1.948   2.578   1.918
 7343TIP3   OH221971   2.156   5.388   4.753
 7343TIP3    H121972   2.091   5.420   4.816
 7343TIP3    H221973   2.171   5.462   4.695
 7344TIP3   OH221974   1.498   7.456   0.546
 7344TIP3    H121975   1.543   7.373   0.563
 7344TIP3    H221976   1.418   7.430   0.499
 7345TIP3   OH221977   5.490   4.517   0.789
 7345TIP3    H121978   5.530   4.450   0.734
 7345TIP3    H221979   5.410   4.476   0.822
 7346TIP3   OH221980   3.202   7.832   4.746
 7346TIP3    H121981   3.187   7.750   4.699
 7346TIP3    H221982   3.191   7.900   4.680
 7347TIP3   OH221983   0.485   7.204   6.057
 7347TIP3    H121984   0.521   7.167   5.977
 7347TIP3    H221985   0.483   7.131   6.119
 7348TIP3   OH221986   0.569   2.704   2.401
 7348TIP3    H121987   0.547   2.780   2.346
 7348TIP3    H221988   0.530   2.630   2.356
 7349TIP3   OH221989   2.741   6.690   6.340
 7349TIP3    H121990   2.675   6.709   6.406
 7349TIP3    H221991   2.802   6.763   6.344
 7350TIP3   OH221992   7.573   2.046   5.342
 7350TIP3    H121993   7.499   2.081   5.293
 7350TIP3    H221994   7.613   1.983   5.282
 7351TIP3   OH221995   5.369   4.302   2.547
 7351TIP3    H121996   5.415   4.365   2.491
 7351TIP3    H221997   5.379   4.336   2.635
 7352TIP3   OH221998   2.720   5.088   0.960
 7352TIP3    H121999   2.768   5.014   0.998
 7352TIP3    H222000   2.778   5.122   0.891
 7353TIP3   OH222001   2.020   5.670   0.590
 7353TIP3    H122002   2.102   5.656   0.543
 7353TIP3    H222003   1.978   5.584   0.593
 7354TIP3   OH222004   7.302   0.987   5.393
 7354TIP3    H122005   7.322   1.024   5.308
 7354TIP3    H222006   7.382   0.942   5.420
 7355TIP3   OH222007   3.860   1.964   4.665
 7355TIP3    H122008   3.792   1.911   4.707
 7355TIP3    H222009   3.899   1.906   4.600
 7356TIP3   OH222010   4.860   1.649   5.877
 7356TIP3    H122011   4.816   1.613   5.954
 7356TIP3    H222012   4.844   1.743   5.881
 7357TIP3   OH222013   7.719   6.591   2.479
 7357TIP3    H122014   7.689   6.676   2.448
 7357TIP3    H222015   7.740   6.604   2.571
 7358TIP3   OH222016   5.566   7.337   2.351
 7358TIP3    H122017   5.658   7.324   2.375
 7358TIP3    H222018   5.517   7.277   2.407
 7359TIP3   OH222019   3.493   7.678   3.204
 7359TIP3    H122020   3.578   7.720   3.201
 7359TIP3    H222021   3.505   7.595   3.157
 7360TIP3   OH222022   5.466   3.151   5.226
 7360TIP3    H122023   5.413   3.071   5.217
 7360TIP3    H222024   5.402   3.221   5.236
 7361TIP3   OH222025   4.564   4.215   0.460
 7361TIP3    H122026   4.559   4.203   0.365
 7361TIP3    H222027   4.537   4.130   0.496
 7362TIP3   OH222028   7.637   7.471   4.513
 7362TIP3    H122029   7.615   7.432   4.428
 7362TIP3    H222030   7.560   7.456   4.567
 7363TIP3   OH222031   0.488   7.320   3.876
 7363TIP3    H122032   0.420   7.261   3.908
 7363TIP3    H222033   0.549   7.329   3.950
 7364TIP3   OH222034   1.697   1.924   1.188
 7364TIP3    H122035   1.621   1.944   1.134
 7364TIP3    H222036   1.665   1.936   1.278
 7365TIP3   OH222037   4.309   1.228   2.979
 7365TIP3    H122038   4.333   1.313   3.016
 7365TIP3    H222039   4.215   1.235   2.963
 7366TIP3   OH222040   7.015   4.733   0.306
 7366TIP3    H122041   7.076   4.664   0.279
 7366TIP3    H222042   7.004   4.719   0.400
 7367TIP3   OH222043   0.870   7.038   1.392
 7367TIP3    H122044   0.875   7.133   1.397
 7367TIP3    H222045   0.864   7.019   1.298
 7368TIP3   OH222046   6.081   6.966   1.922
 7368TIP3    H122047   6.138   6.948   1.997
 7368TIP3    H222048   6.142   6.989   1.852
 7369TIP3   OH222049   3.728   7.280   0.044
 7369TIP3    H122050   3.655   7.218   0.043
 7369TIP3    H222051   3.779   7.257  -0.034
 7370TIP3   OH222052   6.628   2.972   1.175
 7370TIP3    H122053   6.697   2.911   1.149
 7370TIP3    H222054   6.588   2.999   1.092
 7371TIP3   OH222055   5.365   5.684   3.777
 7371TIP3    H122056   5.362   5.591   3.799
 7371TIP3    H222057   5.358   5.729   3.861
 7372TIP3   OH222058   2.681   2.287   2.311
 7372TIP3    H122059   2.759   2.320   2.267
 7372TIP3    H222060   2.664   2.202   2.270
 7373TIP3   OH222061   4.244   5.817   3.514
 7373TIP3    H122062   4.253   5.910   3.535
 7373TIP3    H222063   4.150   5.804   3.505
 7374TIP3   OH222064   2.388   2.412   1.335
 7374TIP3    H122065   2.458   2.468   1.302
 7374TIP3    H222066   2.433   2.336   1.373
 7375TIP3   OH222067   7.392   1.728   6.498
 7375TIP3    H122068   7.384   1.725   6.403
 7375TIP3    H222069   7.447   1.805   6.516
 7376TIP3   OH222070   7.035   7.288   2.803
 7376TIP3    H122071   7.080   7.204   2.792
 7376TIP3    H222072   7.032   7.325   2.714
 7377TIP3   OH222073   5.931   2.527   6.292
 7377TIP3    H122074   6.019   2.492   6.275
 7377TIP3    H222075   5.889   2.526   6.206
 7378TIP3   OH222076   1.399   3.960   3.319
 7378TIP3    H122077   1.493   3.974   3.314
 7378TIP3    H222078   1.384   3.877   3.274
 7379TIP3   OH222079   1.216   2.526   2.898
 7379TIP3    H122080   1.240   2.507   2.807
 7379TIP3    H222081   1.298   2.547   2.941
 7380TIP3   OH222082   3.556   1.031   3.240
 7380TIP3    H122083   3.630   1.092   3.233
 7380TIP3    H222084   3.513   1.055   3.322
 7381TIP3   OH222085   8.068   2.417   5.584
 7381TIP3    H122086   8.067   2.322   5.595
 7381TIP3    H222087   8.050   2.451   5.672
 7382TIP3   OH222088   1.762   4.068   1.685
 7382TIP3    H122089   1.849   4.081   1.724
 7382TIP3    H222090   1.769   4.107   1.598
 7383TIP3   OH222091   5.117   3.673   4.385
 7383TIP3    H122092   5.148   3.667   4.475
 7383TIP3    H222093   5.030   3.633   4.386
 7384TIP3   OH222094   1.162   6.411   3.646
 7384TIP3    H122095   1.207   6.327   3.649
 7384TIP3    H222096   1.150   6.429   3.552
 7385TIP3   OH222097   5.486   2.966   1.539
 7385TIP3    H122098   5.575   2.970   1.505
 7385TIP3    H222099   5.431   2.988   1.464
 7386TIP3   OH222100   1.901   4.433   5.990
 7386TIP3    H122101   1.867   4.343   5.988
 7386TIP3    H222102   1.828   4.485   6.024
 7387TIP3   OH222103   3.275   5.084   0.693
 7387TIP3    H122104   3.217   5.155   0.668
 7387TIP3    H222105   3.233   5.044   0.770
 7388TIP3   OH222106   6.680   4.892   2.662
 7388TIP3    H122107   6.750   4.832   2.636
 7388TIP3    H222108   6.600   4.842   2.647
 7389TIP3   OH222109   0.151   3.638   6.619
 7389TIP3    H122110   0.065   3.595   6.619
 7389TIP3    H222111   0.208   3.576   6.665
 7390TIP3   OH222112   8.268   4.808   3.416
 7390TIP3    H122113   8.271   4.785   3.323
 7390TIP3    H222114   8.261   4.903   3.418
 7391TIP3   OH222115   5.237   3.355   4.405
 7391TIP3    H122116   5.238   3.428   4.344
 7391TIP3    H222117   5.162   3.373   4.463
 7392TIP3   OH222118   2.702   7.407   1.047
 7392TIP3    H122119   2.749   7.329   1.076
 7392TIP3    H222120   2.708   7.468   1.120
 7393TIP3   OH222121   3.533   1.984   0.271
 7393TIP3    H122122   3.529   2.047   0.342
 7393TIP3    H222123   3.454   1.931   0.281
 7394TIP3   OH222124   6.855   4.004   0.873
 7394TIP3    H122125   6.848   3.924   0.925
 7394TIP3    H222126   6.902   4.066   0.929
 7395TIP3   OH222127   6.435   2.445   3.891
 7395TIP3    H122128   6.503   2.512   3.879
 7395TIP3    H222129   6.437   2.395   3.810
 7396TIP3   OH222130   0.059   0.145   5.677
 7396TIP3    H122131   0.098   0.059   5.660
 7396TIP3    H222132   0.124   0.191   5.729
 7397TIP3   OH222133   4.293   3.035   0.553
 7397TIP3    H122134   4.267   3.123   0.526
 7397TIP3    H222135   4.386   3.043   0.575
 7398TIP3   OH222136   6.022   1.153   2.776
 7398TIP3    H122137   6.070   1.230   2.805
 7398TIP3    H222138   5.946   1.148   2.833
 7399TIP3   OH222139   1.504   1.811   0.516
 7399TIP3    H122140   1.555   1.731   0.502
 7399TIP3    H222141   1.439   1.810   0.445
 7400TIP3   OH222142   2.179   7.566   0.502
 7400TIP3    H122143   2.105   7.616   0.536
 7400TIP3    H222144   2.254   7.597   0.553
 7401TIP3   OH222145   4.351   2.026   1.350
 7401TIP3    H122146   4.322   2.115   1.372
 7401TIP3    H222147   4.400   2.037   1.269
 7402TIP3   OH222148   3.276   5.692   4.769
 7402TIP3    H122149   3.317   5.652   4.846
 7402TIP3    H222150   3.186   5.660   4.770
 7403TIP3   OH222151   4.030   1.775   4.577
 7403TIP3    H122152   4.096   1.769   4.508
 7403TIP3    H222153   4.068   1.833   4.643
 7404TIP3   OH222154   1.461   1.828   1.386
 7404TIP3    H122155   1.462   1.777   1.467
 7404TIP3    H222156   1.397   1.782   1.331
 7405TIP3   OH222157   1.771   6.179   5.676
 7405TIP3    H122158   1.750   6.175   5.769
 7405TIP3    H222159   1.687   6.168   5.632
 7406TIP3   OH222160   5.724   1.938   3.171
 7406TIP3    H122161   5.780   1.969   3.242
 7406TIP3    H222162   5.739   1.843   3.167
 7407TIP3   OH222163   4.405   7.329   6.800
 7407TIP3    H122164   4.334   7.268   6.781
 7407TIP3    H222165   4.480   7.274   6.821
 7408TIP3   OH222166   8.276   7.874   1.071
 7408TIP3    H122167   8.290   7.802   1.010
 7408TIP3    H222168   8.203   7.845   1.126
 7409TIP3   OH222169   3.456   1.222   0.038
 7409TIP3    H122170   3.523   1.167  -0.002
 7409TIP3    H222171   3.444   1.185   0.126
 7410TIP3   OH222172   6.091   6.958   5.585
 7410TIP3    H122173   6.041   7.030   5.547
 7410TIP3    H222174   6.181   6.974   5.557
 7411TIP3   OH222175   7.191   4.649   5.059
 7411TIP3    H122176   7.151   4.595   5.128
 7411TIP3    H222177   7.284   4.626   5.061
 7412TIP3   OH222178   3.229   6.701   4.138
 7412TIP3    H122179   3.219   6.707   4.043
 7412TIP3    H222180   3.152   6.653   4.168
 7413TIP3   OH222181   4.253   3.601   4.202
 7413TIP3    H122182   4.313   3.574   4.271
 7413TIP3    H222183   4.249   3.525   4.143
 7414TIP3   OH222184   0.907   1.014   0.484
 7414TIP3    H122185   0.965   1.034   0.411
 7414TIP3    H222186   0.829   0.978   0.443
 7415TIP3   OH222187   5.603   1.106   1.983
 7415TIP3    H122188   5.689   1.131   2.017
 7415TIP3    H222189   5.593   1.157   1.903
 7416TIP3   OH222190   3.437   3.947   0.270
 7416TIP3    H122191   3.483   3.919   0.349
 7416TIP3    H222192   3.488   3.909   0.198
 7417TIP3   OH222193   6.724   3.463   3.154
 7417TIP3    H122194   6.675   3.460   3.072
 7417TIP3    H222195   6.691   3.389   3.204
 7418TIP3   OH222196   5.967   5.273   5.012
 7418TIP3    H122197   5.973   5.365   4.989
 7418TIP3    H222198   5.946   5.228   4.931
 7419TIP3   OH222199   2.299   4.714   3.509
 7419TIP3    H122200   2.298   4.806   3.535
 7419TIP3    H222201   2.328   4.716   3.417
 7420TIP3   OH222202   2.275   5.694   2.041
 7420TIP3    H122203   2.232   5.612   2.067
 7420TIP3    H222204   2.256   5.702   1.948
 7421TIP3   OH222205   3.721   3.924   4.403
 7421TIP3    H122206   3.626   3.919   4.395
 7421TIP3    H222207   3.745   3.848   4.456
 7422TIP3   OH222208   4.795   5.793   5.202
 7422TIP3    H122209   4.814   5.713   5.153
 7422TIP3    H222210   4.873   5.848   5.188
 7423TIP3   OH222211   4.348   1.993   6.680
 7423TIP3    H122212   4.253   1.991   6.685
 7423TIP3    H222213   4.374   1.901   6.678
 7424TIP3   OH222214   7.409   7.033   4.425
 7424TIP3    H122215   7.317   7.007   4.415
 7424TIP3    H222216   7.459   6.963   4.384
 7425TIP3   OH222217   7.877   6.832   0.359
 7425TIP3    H122218   7.960   6.821   0.313
 7425TIP3    H222219   7.862   6.927   0.359
 7426TIP3   OH222220   7.843   1.937   4.632
 7426TIP3    H122221   7.935   1.941   4.658
 7426TIP3    H222222   7.843   1.962   4.540
 7427TIP3   OH222223   1.214   7.523   5.725
 7427TIP3    H122224   1.288   7.462   5.726
 7427TIP3    H222225   1.209   7.554   5.635
 7428TIP3   OH222226   4.759   6.195   0.666
 7428TIP3    H122227   4.764   6.219   0.758
 7428TIP3    H222228   4.804   6.266   0.620
 7429TIP3   OH222229   6.240   0.572   0.474
 7429TIP3    H122230   6.244   0.660   0.437
 7429TIP3    H222231   6.166   0.531   0.430
 7430TIP3   OH222232   8.054   5.119   2.662
 7430TIP3    H122233   8.088   5.076   2.584
 7430TIP3    H222234   8.001   5.191   2.629
 7431TIP3   OH222235   7.645   4.577   5.276
 7431TIP3    H122236   7.715   4.643   5.275
 7431TIP3    H222237   7.611   4.579   5.365
 7432TIP3   OH222238   7.391   0.000   3.388
 7432TIP3    H122239   7.433   0.086   3.379
 7432TIP3    H222240   7.370  -0.006   3.481
 7433TIP3   OH222241   1.693   2.307   0.108
 7433TIP3    H122242   1.667   2.399   0.113
 7433TIP3    H222243   1.629   2.268   0.049
 7434TIP3   OH222244   3.970   5.752   5.899
 7434TIP3    H122245   3.892   5.789   5.858
 7434TIP3    H222246   3.956   5.764   5.993
 7435TIP3   OH222247   5.783   7.610   4.786
 7435TIP3    H122248   5.790   7.516   4.768
 7435TIP3    H222249   5.843   7.651   4.723
 7436TIP3   OH222250   4.465   0.346   3.453
 7436TIP3    H122251   4.428   0.427   3.489
 7436TIP3    H222252   4.439   0.346   3.361
 7437TIP3   OH222253   4.973   3.107   3.954
 7437TIP3    H122254   4.946   3.049   3.883
 7437TIP3    H222255   5.062   3.133   3.930
 7438TIP3   OH222256   3.805   5.707   4.667
 7438TIP3    H122257   3.730   5.652   4.648
 7438TIP3    H222258   3.858   5.657   4.729
 7439TIP3   OH222259   1.005   2.970   2.155
 7439TIP3    H122260   1.028   2.899   2.095
 7439TIP3    H222261   0.980   2.925   2.236
 7440TIP3   OH222262   1.922   4.923   5.740
 7440TIP3    H122263   1.973   4.980   5.796
 7440TIP3    H222264   1.911   4.843   5.790
 7441TIP3   OH222265   0.637   2.368   4.829
 7441TIP3    H122266   0.576   2.301   4.861
 7441TIP3    H222267   0.588   2.415   4.762
 7442TIP3   OH222268   4.560   4.654   5.969
 7442TIP3    H122269   4.520   4.595   6.033
 7442TIP3    H222270   4.486   4.695   5.925
 7443TIP3   OH222271   5.270   1.612   4.915
 7443TIP3    H122272   5.333   1.614   4.988
 7443TIP3    H222273   5.197   1.665   4.946
 7444TIP3   OH222274   6.315   5.646   1.347
 7444TIP3    H122275   6.301   5.657   1.441
 7444TIP3    H222276   6.226   5.646   1.310
 7445TIP3   OH222277   5.921   3.996   4.787
 7445TIP3    H122278   5.956   3.953   4.865
 7445TIP3    H222279   5.832   4.020   4.811
 7446TIP3   OH222280   1.851   3.598   5.186
 7446TIP3    H122281   1.921   3.655   5.153
 7446TIP3    H222282   1.805   3.652   5.250
 7447TIP3   OH222283   1.742   7.164   1.906
 7447TIP3    H122284   1.723   7.150   1.999
 7447TIP3    H222285   1.757   7.076   1.871
 7448TIP3   OH222286   5.837   6.944   3.796
 7448TIP3    H122287   5.883   6.976   3.874
 7448TIP3    H222288   5.764   6.893   3.830
 7449TIP3   OH222289   4.339   7.415   0.434
 7449TIP3    H122290   4.268   7.442   0.375
 7449TIP3    H222291   4.397   7.491   0.437
 7450TIP3   OH222292   3.668   5.657   6.118
 7450TIP3    H122293   3.717   5.576   6.101
 7450TIP3    H222294   3.593   5.652   6.059
 7451TIP3   OH222295   6.312   7.478   4.150
 7451TIP3    H122296   6.327   7.553   4.093
 7451TIP3    H222297   6.221   7.489   4.179
 7452TIP3   OH222298   3.315   6.782   5.124
 7452TIP3    H122299   3.349   6.699   5.156
 7452TIP3    H222300   3.221   6.769   5.115
 7453TIP3   OH222301   1.385   3.532   3.992
 7453TIP3    H122302   1.296   3.541   4.026
 7453TIP3    H222303   1.434   3.490   4.063
 7454TIP3   OH222304   7.726   2.688   4.508
 7454TIP3    H122305   7.659   2.756   4.519
 7454TIP3    H222306   7.788   2.726   4.445
 7455TIP3   OH222307   7.422   7.558   1.882
 7455TIP3    H122308   7.475   7.556   1.961
 7455TIP3    H222309   7.368   7.636   1.891
 7456TIP3   OH222310   0.252   7.164   1.941
 7456TIP3    H122311   0.199   7.171   2.019
 7456TIP3    H222312   0.233   7.077   1.906
 7457TIP3   OH222313   4.957   0.773   1.448
 7457TIP3    H122314   5.030   0.763   1.510
 7457TIP3    H222315   4.942   0.867   1.444
 7458TIP3   OH222316   7.439   5.974   0.502
 7458TIP3    H122317   7.437   5.945   0.410
 7458TIP3    H222318   7.524   6.017   0.511
 7459TIP3   OH222319   5.335   6.658   3.250
 7459TIP3    H122320   5.318   6.684   3.341
 7459TIP3    H222321   5.248   6.638   3.215
 7460TIP3   OH222322   2.659   1.020   1.288
 7460TIP3    H122323   2.590   1.001   1.351
 7460TIP3    H222324   2.719   0.946   1.294
 7461TIP3   OH222325   6.200   1.419   0.591
 7461TIP3    H122326   6.264   1.487   0.611
 7461TIP3    H222327   6.233   1.377   0.512
 7462TIP3   OH222328   2.458   7.215   4.035
 7462TIP3    H122329   2.530   7.157   4.012
 7462TIP3    H222330   2.475   7.295   3.985
 7463TIP3   OH222331   6.896   6.341   4.677
 7463TIP3    H122332   6.881   6.394   4.755
 7463TIP3    H222333   6.986   6.363   4.650
 7464TIP3   OH222334   0.811   5.670   4.152
 7464TIP3    H122335   0.776   5.584   4.128
 7464TIP3    H222336   0.851   5.656   4.238
 7465TIP3   OH222337   5.772   3.862   4.285
 7465TIP3    H122338   5.744   3.939   4.235
 7465TIP3    H222339   5.865   3.876   4.301
 7466TIP3   OH222340   7.013   3.487   4.949
 7466TIP3    H122341   7.037   3.402   4.986
 7466TIP3    H222342   6.957   3.528   5.015
 7467TIP3   OH222343   0.059   6.250   2.055
 7467TIP3    H122344   0.122   6.177   2.056
 7467TIP3    H222345  -0.010   6.222   2.115
 7468TIP3   OH222346   1.216   1.494   1.628
 7468TIP3    H122347   1.300   1.450   1.642
 7468TIP3    H222348   1.215   1.514   1.534
 7469TIP3   OH222349   3.023   1.241   2.358
 7469TIP3    H122350   2.987   1.326   2.335
 7469TIP3    H222351   3.047   1.249   2.450
 7470TIP3   OH222352   0.380   3.845   1.690
 7470TIP3    H122353   0.325   3.785   1.639
 7470TIP3    H222354   0.348   3.837   1.779
 7471TIP3   OH222355   4.997   5.375   1.640
 7471TIP3    H122356   5.074   5.410   1.683
 7471TIP3    H222357   4.981   5.291   1.683
 7472TIP3   OH222358   1.515   4.662   0.787
 7472TIP3    H122359   1.609   4.650   0.799
 7472TIP3    H222360   1.480   4.573   0.786
 7473TIP3   OH222361   2.903   6.021   2.584
 7473TIP3    H122362   2.975   5.973   2.543
 7473TIP3    H222363   2.875   6.084   2.518
 7474TIP3   OH222364   1.429   7.725   0.942
 7474TIP3    H122365   1.461   7.656   1.000
 7474TIP3    H222366   1.425   7.803   0.998
 7475TIP3   OH222367   7.409   3.462   2.720
 7475TIP3    H122368   7.444   3.400   2.655
 7475TIP3    H222369   7.315   3.449   2.717
 7476TIP3   OH222370   7.656   2.556   6.714
 7476TIP3    H122371   7.687   2.646   6.721
 7476TIP3    H222372   7.630   2.547   6.622
 7477TIP3   OH222373   7.677   2.917   3.509
 7477TIP3    H122374   7.712   2.988   3.454
 7477TIP3    H222375   7.598   2.889   3.463
 7478TIP3   OH222376   2.458   2.088   0.418
 7478TIP3    H122377   2.444   2.043   0.335
 7478TIP3    H222378   2.464   2.180   0.395
 7479TIP3   OH222379   1.714   7.178   0.934
 7479TIP3    H122380   1.706   7.209   1.024
 7479TIP3    H222381   1.681   7.088   0.937
 7480TIP3   OH222382   4.601   5.272   0.442
 7480TIP3    H122383   4.652   5.255   0.521
 7480TIP3    H222384   4.615   5.365   0.425
 7481TIP3   OH222385   3.584   4.705   0.974
 7481TIP3    H122386   3.677   4.727   0.969
 7481TIP3    H222387   3.573   4.664   1.059
 7482TIP3   OH222388   6.280   5.165   4.567
 7482TIP3    H122389   6.215   5.200   4.506
 7482TIP3    H222390   6.352   5.229   4.563
 7483TIP3   OH222391   0.974   4.007   6.302
 7483TIP3    H122392   0.917   3.936   6.330
 7483TIP3    H222393   0.999   4.051   6.383
 7484TIP3   OH222394   7.459   5.651   0.721
 7484TIP3    H122395   7.450   5.745   0.709
 7484TIP3    H222396   7.544   5.640   0.765
 7485TIP3   OH222397   3.438   7.591   2.059
 7485TIP3    H122398   3.356   7.578   2.106
 7485TIP3    H222399   3.413   7.596   1.966
 7486TIP3   OH222400   6.089   4.748   5.428
 7486TIP3    H122401   6.080   4.725   5.521
 7486TIP3    H222402   6.182   4.731   5.408
 7487TIP3   OH222403   0.811   1.033   0.767
 7487TIP3    H122404   0.893   1.081   0.782
 7487TIP3    H222405   0.811   1.014   0.673
 7488TIP3   OH222406   3.669   6.930   4.806
 7488TIP3    H122407   3.667   6.894   4.717
 7488TIP3    H222408   3.732   7.002   4.801
 7489TIP3   OH222409   4.024   2.288   1.968
 7489TIP3    H122410   4.028   2.291   2.063
 7489TIP3    H222411   4.008   2.196   1.948
 7490TIP3   OH222412   7.170   7.282   2.335
 7490TIP3    H122413   7.120   7.206   2.302
 7490TIP3    H222414   7.214   7.317   2.257
 7491TIP3   OH222415   7.185   5.208   0.650
 7491TIP3    H122416   7.183   5.303   0.664
 7491TIP3    H222417   7.168   5.197   0.556
 7492TIP3   OH222418   1.902   0.082   0.654
 7492TIP3    H122419   1.908   0.106   0.747
 7492TIP3    H222420   1.929  -0.010   0.652
 7493TIP3   OH222421   6.875   4.178   2.116
 7493TIP3    H122422   6.967   4.205   2.110
 7493TIP3    H222423   6.826   4.254   2.084
 7494TIP3   OH222424   4.726   7.617   0.136
 7494TIP3    H122425   4.663   7.556   0.097
 7494TIP3    H222426   4.673   7.676   0.189
 7495TIP3   OH222427   1.924   5.428   3.335
 7495TIP3    H122428   1.854   5.363   3.324
 7495TIP3    H222429   1.977   5.393   3.407
 7496TIP3   OH222430   4.511   2.100   2.251
 7496TIP3    H122431   4.572   2.173   2.236
 7496TIP3    H222432   4.452   2.102   2.176
 7497TIP3   OH222433   7.730   7.010   6.566
 7497TIP3    H122434   7.728   7.082   6.503
 7497TIP3    H222435   7.659   7.030   6.627
 7498TIP3   OH222436   6.241   1.758   0.850
 7498TIP3    H122437   6.316   1.817   0.833
 7498TIP3    H222438   6.174   1.787   0.788
 7499TIP3   OH222439   7.933   1.870   0.608
 7499TIP3    H122440   7.956   1.780   0.584
 7499TIP3    H222441   7.995   1.924   0.560
 7500TIP3   OH222442   1.859   2.618   0.121
 7500TIP3    H122443   1.880   2.530   0.152
 7500TIP3    H222444   1.834   2.607   0.030
 7501TIP3   OH222445   2.878   3.025   5.418
 7501TIP3    H122446   2.819   3.100   5.430
 7501TIP3    H222447   2.847   2.985   5.337
 7502TIP3   OH222448   4.950   1.618   1.477
 7502TIP3    H122449   4.951   1.649   1.567
 7502TIP3    H222450   4.866   1.647   1.442
 7503TIP3   OH222451   6.551   2.827   2.679
 7503TIP3    H122452   6.537   2.755   2.740
 7503TIP3    H222453   6.464   2.866   2.667
 7504TIP3   OH222454   1.550   5.974   2.751
 7504TIP3    H122455   1.547   6.070   2.755
 7504TIP3    H222456   1.504   5.951   2.670
 7505TIP3   OH222457   5.286   0.266   0.820
 7505TIP3    H122458   5.294   0.255   0.725
 7505TIP3    H222459   5.355   0.211   0.857
 7506TIP3   OH222460   7.514   2.019   2.344
 7506TIP3    H122461   7.516   2.081   2.417
 7506TIP3    H222462   7.469   1.942   2.380
 7507TIP3   OH222463   7.700   0.898   4.840
 7507TIP3    H122464   7.795   0.889   4.852
 7507TIP3    H222465   7.666   0.916   4.927
 7508TIP3   OH222466   5.392   1.550   0.996
 7508TIP3    H122467   5.431   1.498   1.067
 7508TIP3    H222468   5.359   1.484   0.934
 7509TIP3   OH222469   6.846   6.612   5.139
 7509TIP3    H122470   6.841   6.526   5.181
 7509TIP3    H222471   6.795   6.670   5.196
 7510TIP3   OH222472   0.205   0.706   2.011
 7510TIP3    H122473   0.117   0.742   2.005
 7510TIP3    H222474   0.261   0.782   2.027
 7511TIP3   OH222475   1.457   1.906   2.406
 7511TIP3    H122476   1.369   1.869   2.406
 7511TIP3    H222477   1.512   1.839   2.446
 7512TIP3   OH222478   8.278   1.211   6.232
 7512TIP3    H122479   8.192   1.245   6.210
 7512TIP3    H222480   8.292   1.236   6.324
 7513TIP3   OH222481   4.169   7.369   5.468
 7513TIP3    H122482   4.166   7.431   5.394
 7513TIP3    H222483   4.247   7.316   5.451
 7514TIP3   OH222484   1.266   0.141   2.359
 7514TIP3    H122485   1.274   0.096   2.274
 7514TIP3    H222486   1.225   0.225   2.338
 7515TIP3   OH222487   4.253   1.059   4.261
 7515TIP3    H122488   4.208   0.976   4.277
 7515TIP3    H222489   4.241   1.109   4.342
 7516TIP3   OH222490   2.355   0.351   1.535
 7516TIP3    H122491   2.260   0.363   1.541
 7516TIP3    H222492   2.370   0.325   1.444
 7517TIP3   OH222493   8.049   2.705   6.315
 7517TIP3    H122494   8.027   2.643   6.385
 7517TIP3    H222495   8.128   2.668   6.275
 7518TIP3   OH222496   7.206   2.100   4.382
 7518TIP3    H122497   7.267   2.086   4.455
 7518TIP3    H222498   7.125   2.129   4.424
 7519TIP3   OH222499   6.222   0.798   2.740
 7519TIP3    H122500   6.170   0.718   2.746
 7519TIP3    H222501   6.198   0.848   2.818
 7520TIP3   OH222502   8.301   4.103   1.768
 7520TIP3    H122503   8.284   4.181   1.820
 7520TIP3    H222504   8.214   4.074   1.740
 7521TIP3   OH222505   0.773   7.118   4.714
 7521TIP3    H122506   0.717   7.118   4.791
 7521TIP3    H222507   0.756   7.203   4.672
 7522TIP3   OH222508   0.251   3.122   1.039
 7522TIP3    H122509   0.224   3.213   1.045
 7522TIP3    H222510   0.198   3.086   0.968
 7523TIP3   OH222511   2.799   6.516   4.396
 7523TIP3    H122512   2.739   6.588   4.413
 7523TIP3    H222513   2.790   6.459   4.473
 7524TIP3   OH222514   7.924   0.163   5.861
 7524TIP3    H122515   7.830   0.181   5.865
 7524TIP3    H222516   7.964   0.235   5.910
 7525TIP3   OH222517   4.837   2.949   2.021
 7525TIP3    H122518   4.881   2.952   2.107
 7525TIP3    H222519   4.908   2.957   1.958
 7526TIP3   OH222520   3.798   4.223   5.218
 7526TIP3    H122521   3.735   4.262   5.157
 7526TIP3    H222522   3.840   4.297   5.261
 7527TIP3   OH222523   6.280   4.065   5.472
 7527TIP3    H122524   6.360   4.116   5.487
 7527TIP3    H222525   6.222   4.091   5.544
 7528TIP3   OH222526   7.846   2.226   5.445
 7528TIP3    H122527   7.846   2.316   5.477
 7528TIP3    H222528   7.778   2.182   5.496
 7529TIP3   OH222529   0.438   7.351   6.285
 7529TIP3    H122530   0.347   7.325   6.296
 7529TIP3    H222531   0.465   7.311   6.203
 7530TIP3   OH222532   7.841   4.046   4.821
 7530TIP3    H122533   7.894   4.090   4.888
 7530TIP3    H222534   7.904   3.998   4.768
 7531TIP3   OH222535   8.242   5.938   6.713
 7531TIP3    H122536   8.195   5.911   6.634
 7531TIP3    H222537   8.205   6.023   6.736
 7532TIP3   OH222538   2.709   2.560   0.697
 7532TIP3    H122539   2.752   2.549   0.782
 7532TIP3    H222540   2.731   2.649   0.670
 7533TIP3   OH222541   6.606   7.295   6.625
 7533TIP3    H122542   6.607   7.306   6.720
 7533TIP3    H222543   6.519   7.324   6.599
 7534TIP3   OH222544   1.371   4.875   1.386
 7534TIP3    H122545   1.299   4.844   1.441
 7534TIP3    H222546   1.365   4.970   1.389
 7535TIP3   OH222547   2.427   4.648   2.779
 7535TIP3    H122548   2.435   4.654   2.684
 7535TIP3    H222549   2.488   4.715   2.812
 7536TIP3   OH222550   6.070   0.339   3.478
 7536TIP3    H122551   6.118   0.368   3.401
 7536TIP3    H222552   6.092   0.402   3.546
 7537TIP3   OH222553   6.718   6.123   2.075
 7537TIP3    H122554   6.681   6.211   2.069
 7537TIP3    H222555   6.812   6.138   2.089
 7538TIP3   OH222556   6.314   2.671   2.379
 7538TIP3    H122557   6.323   2.613   2.304
 7538TIP3    H222558   6.222   2.696   2.379
 7539TIP3   OH222559   1.605   7.659   0.698
 7539TIP3    H122560   1.591   7.566   0.678
 7539TIP3    H222561   1.542   7.677   0.768
 7540TIP3   OH222562   4.957   0.736   4.430
 7540TIP3    H122563   5.035   0.693   4.396
 7540TIP3    H222564   4.931   0.683   4.505
 7541TIP3   OH222565   0.268   5.130   5.388
 7541TIP3    H122566   0.261   5.214   5.343
 7541TIP3    H222567   0.200   5.075   5.347
 7542TIP3   OH222568   7.427   1.292   2.337
 7542TIP3    H122569   7.342   1.336   2.330
 7542TIP3    H222570   7.491   1.363   2.328
 7543TIP3   OH222571   8.011   6.211   3.458
 7543TIP3    H122572   7.918   6.196   3.441
 7543TIP3    H222573   8.013   6.287   3.517
 7544TIP3   OH222574   7.940   0.663   1.356
 7544TIP3    H122575   7.845   0.677   1.351
 7544TIP3    H222576   7.977   0.735   1.306
 7545TIP3   OH222577   1.757   0.945   2.916
 7545TIP3    H122578   1.681   0.942   2.974
 7545TIP3    H222579   1.830   0.913   2.968
 7546TIP3   OH222580   4.563   0.623   1.565
 7546TIP3    H122581   4.467   0.626   1.567
 7546TIP3    H222582   4.583   0.548   1.509
 7547TIP3   OH222583   0.203   1.939   1.001
 7547TIP3    H122584   0.257   2.004   0.957
 7547TIP3    H222585   0.251   1.857   0.991
 7548TIP3   OH222586   1.376   3.315   0.241
 7548TIP3    H122587   1.338   3.293   0.326
 7548TIP3    H222588   1.445   3.250   0.228
 7549TIP3   OH222589   8.121   7.007   2.184
 7549TIP3    H122590   8.067   7.011   2.263
 7549TIP3    H222591   8.067   7.047   2.116
 7550TIP3   OH222592   7.472   2.335   6.469
 7550TIP3    H122593   7.398   2.333   6.530
 7550TIP3    H222594   7.484   2.244   6.442
 7551TIP3   OH222595   6.030   3.580   4.878
 7551TIP3    H122596   6.096   3.557   4.944
 7551TIP3    H222597   5.981   3.652   4.917
 7552TIP3   OH222598   1.212   0.020   2.106
 7552TIP3    H122599   1.117   0.009   2.099
 7552TIP3    H222600   1.234   0.084   2.039
 7553TIP3   OH222601   4.036   4.748   1.608
 7553TIP3    H122602   4.002   4.661   1.624
 7553TIP3    H222603   4.122   4.734   1.567
 7554TIP3   OH222604   2.958   2.781   6.125
 7554TIP3    H122605   3.045   2.783   6.164
 7554TIP3    H222606   2.953   2.695   6.082
 7555TIP3   OH222607   0.591   4.130   3.935
 7555TIP3    H122608   0.509   4.181   3.936
 7555TIP3    H222609   0.576   4.062   4.001
 7556TIP3   OH222610   3.107   6.622   2.618
 7556TIP3    H122611   3.113   6.708   2.661
 7556TIP3    H222612   3.086   6.562   2.689
 7557TIP3   OH222613   2.764   7.098   0.615
 7557TIP3    H122614   2.674   7.123   0.635
 7557TIP3    H222615   2.817   7.173   0.642
 7558TIP3   OH222616   4.419   7.620   4.671
 7558TIP3    H122617   4.406   7.583   4.758
 7558TIP3    H222618   4.504   7.584   4.643
 7559TIP3   OH222619   7.784   7.777   5.621
 7559TIP3    H122620   7.721   7.846   5.598
 7559TIP3    H222621   7.806   7.736   5.538
 7560TIP3   OH222622   3.096   4.596   3.445
 7560TIP3    H122623   3.021   4.573   3.500
 7560TIP3    H222624   3.110   4.689   3.460
 7561TIP3   OH222625   2.837   6.659   2.487
 7561TIP3    H122626   2.765   6.681   2.546
 7561TIP3    H222627   2.914   6.657   2.544
 7562TIP3   OH222628   4.267   4.471   3.285
 7562TIP3    H122629   4.258   4.534   3.213
 7562TIP3    H222630   4.206   4.503   3.352
 7563TIP3   OH222631   0.972   1.710   1.661
 7563TIP3    H122632   0.925   1.765   1.599
 7563TIP3    H222633   0.926   1.626   1.659
 7564TIP3   OH222634   1.593   3.359   3.767
 7564TIP3    H122635   1.672   3.385   3.720
 7564TIP3    H222636   1.612   3.380   3.859
 7565TIP3   OH222637   0.107   3.923   4.434
 7565TIP3    H122638   0.053   3.969   4.498
 7565TIP3    H222639   0.108   3.981   4.358
 7566TIP3   OH222640   7.789   0.352   4.756
 7566TIP3    H122641   7.729   0.387   4.822
 7566TIP3    H222642   7.809   0.426   4.700
 7567TIP3   OH222643   4.628   5.367   0.830
 7567TIP3    H122644   4.558   5.327   0.882
 7567TIP3    H222645   4.686   5.407   0.895
 7568TIP3   OH222646   4.864   5.029   5.887
 7568TIP3    H122647   4.899   5.050   5.974
 7568TIP3    H222648   4.900   4.942   5.867
 7569TIP3   OH222649   0.107   1.738   6.522
 7569TIP3    H122650   0.164   1.676   6.567
 7569TIP3    H222651   0.053   1.684   6.464
 7570TIP3   OH222652   6.855   4.076   1.699
 7570TIP3    H122653   6.866   4.023   1.777
 7570TIP3    H222654   6.790   4.142   1.723
 7571TIP3   OH222655   0.934   2.214   5.831
 7571TIP3    H122656   0.934   2.132   5.783
 7571TIP3    H222657   0.842   2.228   5.853
 7572TIP3   OH222658   3.119   6.076   5.922
 7572TIP3    H122659   3.211   6.096   5.905
 7572TIP3    H222660   3.102   6.116   6.008
 7573TIP3   OH222661   6.239   3.779   5.994
 7573TIP3    H122662   6.306   3.794   6.060
 7573TIP3    H222663   6.246   3.855   5.936
 7574TIP3   OH222664   3.536   3.920   5.035
 7574TIP3    H122665   3.627   3.897   5.016
 7574TIP3    H222666   3.490   3.837   5.035
 7575TIP3   OH222667   1.709   3.276   0.630
 7575TIP3    H122668   1.755   3.289   0.712
 7575TIP3    H222669   1.736   3.189   0.600
 7576TIP3   OH222670   0.563   0.900   4.733
 7576TIP3    H122671   0.614   0.871   4.809
 7576TIP3    H222672   0.516   0.977   4.765
 7577TIP3   OH222673   1.006   3.930   5.262
 7577TIP3    H122674   0.958   3.885   5.331
 7577TIP3    H222675   1.065   3.990   5.308
 7578TIP3   OH222676   4.508   0.848   6.505
 7578TIP3    H122677   4.596   0.862   6.538
 7578TIP3    H222678   4.520   0.799   6.424
 7579TIP3   OH222679   5.124   5.273   6.430
 7579TIP3    H122680   5.183   5.237   6.496
 7579TIP3    H222681   5.166   5.355   6.403
 7580TIP3   OH222682   5.018   4.493   0.664
 7580TIP3    H122683   4.994   4.522   0.576
 7580TIP3    H222684   4.938   4.500   0.715
 7581TIP3   OH222685   0.190   7.500   4.172
 7581TIP3    H122686   0.143   7.582   4.153
 7581TIP3    H222687   0.129   7.431   4.148
 7582TIP3   OH222688   2.314   7.144   3.136
 7582TIP3    H122689   2.329   7.223   3.084
 7582TIP3    H222690   2.317   7.073   3.072
 7583TIP3   OH222691   7.490   5.249   0.420
 7583TIP3    H122692   7.495   5.272   0.513
 7583TIP3    H222693   7.437   5.319   0.382
 7584TIP3   OH222694   2.737   1.403   1.018
 7584TIP3    H122695   2.825   1.438   1.003
 7584TIP3    H222696   2.737   1.378   1.110
 7585TIP3   OH222697   1.033   6.379   0.415
 7585TIP3    H122698   1.051   6.441   0.345
 7585TIP3    H222699   1.113   6.328   0.424
 7586TIP3   OH222700   2.516   2.405   3.760
 7586TIP3    H122701   2.496   2.353   3.837
 7586TIP3    H222702   2.432   2.440   3.732
 7587TIP3   OH222703   7.672   4.441   3.686
 7587TIP3    H122704   7.763   4.414   3.698
 7587TIP3    H222705   7.640   4.387   3.615
 7588TIP3   OH222706   0.398   0.595   2.175
 7588TIP3    H122707   0.320   0.614   2.124
 7588TIP3    H222708   0.371   0.524   2.233
 7589TIP3   OH222709   7.025   3.680   0.944
 7589TIP3    H122710   7.073   3.742   0.889
 7589TIP3    H222711   7.093   3.629   0.988
 7590TIP3   OH222712   4.332   3.734   0.472
 7590TIP3    H122713   4.370   3.791   0.538
 7590TIP3    H222714   4.246   3.772   0.454
 7591TIP3   OH222715   2.066   3.441   0.658
 7591TIP3    H122716   2.088   3.350   0.636
 7591TIP3    H222717   2.151   3.483   0.671
 7592TIP3   OH222718   1.709   5.678   0.495
 7592TIP3    H122719   1.668   5.635   0.569
 7592TIP3    H222720   1.770   5.741   0.534
 7593TIP3   OH222721   4.351   1.246   4.742
 7593TIP3    H122722   4.272   1.287   4.708
 7593TIP3    H222723   4.369   1.174   4.682
 7594TIP3   OH222724   0.268   0.527   6.111
 7594TIP3    H122725   0.252   0.473   6.189
 7594TIP3    H222726   0.337   0.480   6.064
 7595TIP3   OH222727   7.990   2.573   2.951
 7595TIP3    H122728   7.920   2.513   2.977
 7595TIP3    H222729   8.038   2.591   3.032
 7596TIP3   OH222730   4.702   5.801   2.011
 7596TIP3    H122731   4.776   5.806   2.071
 7596TIP3    H222732   4.677   5.708   2.012
 7597TIP3   OH222733   2.731   0.673   0.102
 7597TIP3    H122734   2.813   0.640   0.139
 7597TIP3    H222735   2.663   0.642   0.162
 7598TIP3   OH222736   0.444   7.698   2.896
 7598TIP3    H122737   0.481   7.615   2.865
 7598TIP3    H222738   0.407   7.677   2.982
 7599TIP3   OH222739   7.029   1.239   5.093
 7599TIP3    H122740   6.967   1.186   5.143
 7599TIP3    H222741   6.980   1.317   5.067
 7600TIP3   OH222742   0.933   0.595   2.342
 7600TIP3    H122743   0.998   0.627   2.404
 7600TIP3    H222744   0.879   0.535   2.393
 7601TIP3   OH222745   6.100   4.044   0.834
 7601TIP3    H122746   6.111   4.021   0.927
 7601TIP3    H222747   6.188   4.039   0.798
 7602TIP3   OH222748   3.613   1.457   2.961
 7602TIP3    H122749   3.639   1.527   3.021
 7602TIP3    H222750   3.530   1.425   2.995
 7603TIP3   OH222751   7.842   0.552   6.661
 7603TIP3    H122752   7.747   0.556   6.671
 7603TIP3    H222753   7.873   0.504   6.738
 7604TIP3   OH222754   6.376   0.929   3.121
 7604TIP3    H122755   6.321   0.881   3.183
 7604TIP3    H222756   6.421   0.994   3.174
 7605TIP3   OH222757   0.624   3.892   1.235
 7605TIP3    H122758   0.531   3.880   1.256
 7605TIP3    H222759   0.666   3.812   1.266
 7606TIP3   OH222760   7.220   6.244   0.425
 7606TIP3    H122761   7.171   6.180   0.374
 7606TIP3    H222762   7.191   6.329   0.392
 7607TIP3   OH222763   5.695   0.078   0.573
 7607TIP3    H122764   5.770   0.035   0.612
 7607TIP3    H222765   5.710   0.073   0.479
 7608TIP3   OH222766   6.173   1.878   1.610
 7608TIP3    H122767   6.194   1.928   1.531
 7608TIP3    H222768   6.077   1.872   1.610
 7609TIP3   OH222769   5.792   3.567   0.047
 7609TIP3    H122770   5.770   3.622   0.123
 7609TIP3    H222771   5.868   3.517   0.076
 7610TIP3   OH222772   3.540   5.362   2.835
 7610TIP3    H122773   3.475   5.399   2.895
 7610TIP3    H222774   3.506   5.275   2.814
 7611TIP3   OH222775   2.329   6.738   4.143
 7611TIP3    H122776   2.289   6.711   4.060
 7611TIP3    H222777   2.295   6.827   4.158
 7612TIP3   OH222778   7.589   2.570   5.008
 7612TIP3    H122779   7.623   2.539   4.924
 7612TIP3    H222780   7.587   2.492   5.063
 7613TIP3   OH222781   5.281   4.545   6.012
 7613TIP3    H122782   5.258   4.583   5.927
 7613TIP3    H222783   5.256   4.453   6.004
 7614TIP3   OH222784   0.980   7.510   2.565
 7614TIP3    H122785   0.908   7.484   2.507
 7614TIP3    H222786   0.980   7.445   2.635
 7615TIP3   OH222787   3.905   3.167   0.480
 7615TIP3    H122788   3.870   3.171   0.391
 7615TIP3    H222789   3.990   3.210   0.474
 7616TIP3   OH222790   8.177   6.669   5.205
 7616TIP3    H122791   8.187   6.744   5.147
 7616TIP3    H222792   8.161   6.707   5.292
 7617TIP3   OH222793   5.007   2.820   2.613
 7617TIP3    H122794   5.055   2.808   2.694
 7617TIP3    H222795   4.986   2.913   2.611
 7618TIP3   OH222796   3.165   0.940   0.881
 7618TIP3    H122797   3.072   0.919   0.893
 7618TIP3    H222798   3.169   1.035   0.885
 7619TIP3   OH222799   7.372   3.706   2.561
 7619TIP3    H122800   7.389   3.640   2.628
 7619TIP3    H222801   7.320   3.660   2.494
 7620TIP3   OH222802   6.480   7.629   1.003
 7620TIP3    H122803   6.420   7.703   0.990
 7620TIP3    H222804   6.472   7.608   1.096
 7621TIP3   OH222805   2.641   1.299   5.584
 7621TIP3    H122806   2.592   1.255   5.515
 7621TIP3    H222807   2.664   1.384   5.546
 7622TIP3   OH222808   3.877   1.072   2.641
 7622TIP3    H122809   3.819   1.076   2.717
 7622TIP3    H222810   3.857   1.152   2.592
 7623TIP3   OH222811   0.380   6.348   4.150
 7623TIP3    H122812   0.326   6.281   4.108
 7623TIP3    H222813   0.468   6.311   4.149
 7624TIP3   OH222814   2.904   1.634   0.282
 7624TIP3    H122815   2.856   1.624   0.364
 7624TIP3    H222816   2.950   1.717   0.290
 7625TIP3   OH222817   5.534   1.673   4.273
 7625TIP3    H122818   5.466   1.740   4.272
 7625TIP3    H222819   5.573   1.679   4.360
 7626TIP3   OH222820   2.708   3.393   3.735
 7626TIP3    H122821   2.617   3.421   3.725
 7626TIP3    H222822   2.705   3.324   3.802
 7627TIP3   OH222823   7.388   5.615   1.360
 7627TIP3    H122824   7.304   5.580   1.390
 7627TIP3    H222825   7.448   5.601   1.433
 7628TIP3   OH222826   2.978   4.954   2.152
 7628TIP3    H122827   2.933   4.994   2.078
 7628TIP3    H222828   3.017   4.874   2.116
 7629TIP3   OH222829   3.246   6.265   1.656
 7629TIP3    H122830   3.152   6.256   1.672
 7629TIP3    H222831   3.254   6.341   1.598
 7630TIP3   OH222832   2.773   2.153   3.062
 7630TIP3    H122833   2.722   2.194   3.132
 7630TIP3    H222834   2.780   2.221   2.994
 7631TIP3   OH222835   2.048   5.592   5.581
 7631TIP3    H122836   2.040   5.500   5.609
 7631TIP3    H222837   2.025   5.591   5.488
 7632TIP3   OH222838   1.015   6.957   6.009
 7632TIP3    H122839   0.926   6.942   5.977
 7632TIP3    H222840   1.068   6.889   5.967
 7633TIP3   OH222841   7.919   6.774   5.715
 7633TIP3    H122842   7.969   6.693   5.704
 7633TIP3    H222843   7.913   6.785   5.810
 7634TIP3   OH222844   1.002   3.691   3.055
 7634TIP3    H122845   1.041   3.719   2.972
 7634TIP3    H222846   0.953   3.767   3.086
 7635TIP3   OH222847   3.669   6.761   5.020
 7635TIP3    H122848   3.678   6.818   4.944
 7635TIP3    H222849   3.758   6.752   5.054
 7636TIP3   OH222850   5.204   4.508   3.855
 7636TIP3    H122851   5.278   4.460   3.817
 7636TIP3    H222852   5.211   4.596   3.817
 7637TIP3   OH222853   3.103   4.623   6.305
 7637TIP3    H122854   3.145   4.641   6.389
 7637TIP3    H222855   3.022   4.673   6.307
 7638TIP3   OH222856   4.498   6.909   3.575
 7638TIP3    H122857   4.575   6.853   3.567
 7638TIP3    H222858   4.484   6.943   3.487
 7639TIP3   OH222859   3.743   3.319   2.123
 7639TIP3    H122860   3.693   3.386   2.075
 7639TIP3    H222861   3.696   3.309   2.206
 7640TIP3   OH222862   0.150   6.926   3.304
 7640TIP3    H122863   0.201   6.850   3.276
 7640TIP3    H222864   0.195   7.001   3.265
 7641TIP3   OH222865   5.694   1.615   6.303
 7641TIP3    H122866   5.605   1.636   6.278
 7641TIP3    H222867   5.704   1.522   6.283
 7642TIP3   OH222868   7.160   4.695   2.430
 7642TIP3    H122869   7.182   4.683   2.338
 7642TIP3    H222870   7.202   4.621   2.475
 7643TIP3   OH222871   1.899   6.114   5.974
 7643TIP3    H122872   1.990   6.092   5.995
 7643TIP3    H222873   1.857   6.030   5.956
 7644TIP3   OH222874   0.343   4.405   5.059
 7644TIP3    H122875   0.383   4.454   4.988
 7644TIP3    H222876   0.333   4.316   5.025
 7645TIP3   OH222877   1.647   0.759   5.805
 7645TIP3    H122878   1.583   0.830   5.816
 7645TIP3    H222879   1.593   0.681   5.791
 7646TIP3   OH222880   3.671  -0.061   3.930
 7646TIP3    H122881   3.749  -0.092   3.884
 7646TIP3    H222882   3.703  -0.001   3.996
 7647TIP3   OH222883   6.302   6.384   2.825
 7647TIP3    H122884   6.264   6.395   2.913
 7647TIP3    H222885   6.360   6.460   2.815
 7648TIP3   OH222886   5.226   5.158   1.256
 7648TIP3    H122887   5.270   5.074   1.245
 7648TIP3    H222888   5.133   5.137   1.250
 7649TIP3   OH222889   5.614   4.962   2.204
 7649TIP3    H122890   5.569   5.029   2.151
 7649TIP3    H222891   5.707   4.985   2.196
 7650TIP3   OH222892   6.126   6.505   0.678
 7650TIP3    H122893   6.200   6.512   0.739
 7650TIP3    H222894   6.077   6.586   0.691
 7651TIP3   OH222895   0.738   0.489   1.139
 7651TIP3    H122896   0.721   0.518   1.229
 7651TIP3    H222897   0.833   0.479   1.136
 7652TIP3   OH222898   0.582   1.113   5.603
 7652TIP3    H122899   0.635   1.139   5.527
 7652TIP3    H222900   0.537   1.194   5.629
 7653TIP3   OH222901   8.265   5.415   3.238
 7653TIP3    H122902   8.281   5.408   3.144
 7653TIP3    H222903   8.175   5.445   3.246
 7654TIP3   OH222904   8.028   4.001   4.595
 7654TIP3    H122905   8.009   3.922   4.545
 7654TIP3    H222906   8.096   4.046   4.545
 7655TIP3   OH222907   3.827   5.255   5.241
 7655TIP3    H122908   3.860   5.334   5.283
 7655TIP3    H222909   3.772   5.213   5.307
 7656TIP3   OH222910   1.601   2.940   1.164
 7656TIP3    H122911   1.663   2.948   1.092
 7656TIP3    H222912   1.556   3.024   1.167
 7657TIP3   OH222913   2.650   4.398   5.721
 7657TIP3    H122914   2.574   4.340   5.727
 7657TIP3    H222915   2.619   4.483   5.751
 7658TIP3   OH222916   1.724   3.388   2.819
 7658TIP3    H122917   1.820   3.389   2.814
 7658TIP3    H222918   1.705   3.379   2.912
 7659TIP3   OH222919   8.098   1.630   2.554
 7659TIP3    H122920   8.034   1.558   2.553
 7659TIP3    H222921   8.044   1.709   2.554
 7660TIP3   OH222922   4.809   0.611   3.520
 7660TIP3    H122923   4.756   0.644   3.447
 7660TIP3    H222924   4.895   0.650   3.507
 7661TIP3   OH222925   3.007   1.009   2.930
 7661TIP3    H122926   3.007   1.103   2.949
 7661TIP3    H222927   2.915   0.987   2.914
 7662TIP3   OH222928   7.446   6.373   3.103
 7662TIP3    H122929   7.513   6.440   3.114
 7662TIP3    H222930   7.376   6.416   3.054
 7663TIP3   OH222931   6.726   3.243   2.740
 7663TIP3    H122932   6.785   3.183   2.695
 7663TIP3    H222933   6.746   3.329   2.704
 7664TIP3   OH222934   6.513   4.637   2.861
 7664TIP3    H122935   6.429   4.592   2.869
 7664TIP3    H222936   6.566   4.601   2.932
 7665TIP3   OH222937   7.113   5.087   6.535
 7665TIP3    H122938   7.131   5.161   6.592
 7665TIP3    H222939   7.022   5.098   6.509
 7666TIP3   OH222940   1.785   1.064   1.852
 7666TIP3    H122941   1.806   1.006   1.925
 7666TIP3    H222942   1.855   1.130   1.853
 7667TIP3   OH222943   5.444   0.763   4.016
 7667TIP3    H122944   5.461   0.836   4.075
 7667TIP3    H222945   5.349   0.754   4.015
 7668TIP3   OH222946   6.039   2.544   1.956
 7668TIP3    H122947   5.967   2.491   1.920
 7668TIP3    H222948   6.093   2.565   1.880
 7669TIP3   OH222949   6.517   1.375   3.347
 7669TIP3    H122950   6.462   1.401   3.273
 7669TIP3    H222951   6.486   1.429   3.420
 7670TIP3   OH222952   4.322   0.648   0.846
 7670TIP3    H122953   4.346   0.580   0.784
 7670TIP3    H222954   4.275   0.602   0.915
 7671TIP3   OH222955   7.199   6.706   2.035
 7671TIP3    H122956   7.170   6.659   1.957
 7671TIP3    H222957   7.179   6.648   2.108
 7672TIP3   OH222958   3.999   7.725   2.360
 7672TIP3    H122959   4.040   7.808   2.384
 7672TIP3    H222960   4.006   7.671   2.439
 7673TIP3   OH222961   3.409   3.031   4.789
 7673TIP3    H122962   3.469   2.988   4.849
 7673TIP3    H222963   3.384   3.112   4.834
 7674TIP3   OH222964   3.135   6.218   4.100
 7674TIP3    H122965   3.082   6.291   4.132
 7674TIP3    H222966   3.097   6.141   4.143
 7675TIP3   OH222967   3.618   0.692   1.420
 7675TIP3    H122968   3.683   0.748   1.464
 7675TIP3    H222969   3.565   0.656   1.491
 7676TIP3   OH222970   7.710   5.559   1.359
 7676TIP3    H122971   7.655   5.491   1.399
 7676TIP3    H222972   7.789   5.512   1.331
 7677TIP3   OH222973   3.570   5.607   0.901
 7677TIP3    H122974   3.485   5.646   0.881
 7677TIP3    H222975   3.619   5.676   0.946
 7678TIP3   OH222976   2.118   1.133   2.827
 7678TIP3    H122977   2.162   1.107   2.746
 7678TIP3    H222978   2.086   1.051   2.864
 7679TIP3   OH222979   3.997   4.190   3.845
 7679TIP3    H122980   4.043   4.274   3.844
 7679TIP3    H222981   4.054   4.132   3.894
 7680TIP3   OH222982   4.040   5.313   6.640
 7680TIP3    H122983   4.002   5.326   6.727
 7680TIP3    H222984   4.026   5.221   6.621
 7681TIP3   OH222985   7.227   0.128   0.407
 7681TIP3    H122986   7.259   0.163   0.490
 7681TIP3    H222987   7.164   0.194   0.376
 7682TIP3   OH222988   7.165   3.795   1.646
 7682TIP3    H122989   7.190   3.880   1.681
 7682TIP3    H222990   7.095   3.765   1.704
 7683TIP3   OH222991   7.178   5.869   0.546
 7683TIP3    H122992   7.199   5.801   0.482
 7683TIP3    H222993   7.263   5.906   0.570
 7684TIP3   OH222994   3.220   5.993   4.806
 7684TIP3    H122995   3.136   6.010   4.850
 7684TIP3    H222996   3.210   5.906   4.768
 7685TIP3   OH222997   3.375   3.583   2.704
 7685TIP3    H122998   3.315   3.585   2.778
 7685TIP3    H222999   3.458   3.615   2.739
 7686TIP3   OH223000   5.814   4.732   6.059
 7686TIP3    H123001   5.899   4.774   6.043
 7686TIP3    H223002   5.750   4.800   6.036
 7687TIP3   OH223003   2.009   5.291   5.603
 7687TIP3    H123004   2.007   5.248   5.689
 7687TIP3    H223005   2.090   5.260   5.562
 7688TIP3   OH223006   3.164   3.075   6.147
 7688TIP3    H123007   3.125   3.163   6.140
 7688TIP3    H223008   3.258   3.091   6.142
 7689TIP3   OH223009   8.119   1.489   5.983
 7689TIP3    H123010   8.166   1.470   5.902
 7689TIP3    H223011   8.165   1.565   6.020
 7690TIP3   OH223012   2.432   2.773   6.610
 7690TIP3    H123013   2.358   2.830   6.627
 7690TIP3    H223014   2.393   2.691   6.580
 7691TIP3   OH223015   4.768   4.320   5.692
 7691TIP3    H123016   4.752   4.412   5.710
 7691TIP3    H223017   4.857   4.303   5.725
 7692TIP3   OH223018   2.486   5.349   3.015
 7692TIP3    H123019   2.392   5.362   3.004
 7692TIP3    H223020   2.494   5.291   3.091
 7693TIP3   OH223021   3.008   4.424   0.580
 7693TIP3    H123022   3.024   4.331   0.560
 7693TIP3    H223023   2.916   4.428   0.604
 7694TIP3   OH223024   1.579   5.898   3.185
 7694TIP3    H123025   1.639   5.853   3.126
 7694TIP3    H223026   1.597   5.862   3.271
 7695TIP3   OH223027   4.714   1.174   5.279
 7695TIP3    H123028   4.753   1.214   5.201
 7695TIP3    H223029   4.649   1.237   5.309
 7696TIP3   OH223030   0.919   1.740   4.549
 7696TIP3    H123031   0.894   1.771   4.462
 7696TIP3    H223032   0.863   1.664   4.565
 7697TIP3   OH223033   2.010   5.082   1.314
 7697TIP3    H123034   1.926   5.074   1.270
 7697TIP3    H223035   2.073   5.100   1.244
 7698TIP3   OH223036   1.192   3.836   1.147
 7698TIP3    H123037   1.124   3.852   1.081
 7698TIP3    H223038   1.244   3.916   1.148
 7699TIP3   OH223039   4.633   5.695   3.465
 7699TIP3    H123040   4.618   5.742   3.547
 7699TIP3    H223041   4.723   5.718   3.440
 7700TIP3   OH223042   5.774   3.283   4.421
 7700TIP3    H123043   5.782   3.378   4.414
 7700TIP3    H223044   5.739   3.256   4.335
 7701TIP3   OH223045   8.123   2.382   0.922
 7701TIP3    H123046   8.166   2.312   0.971
 7701TIP3    H223047   8.144   2.364   0.831
 7702TIP3   OH223048   7.111   1.715   1.015
 7702TIP3    H123049   7.087   1.634   0.970
 7702TIP3    H223050   7.062   1.711   1.098
 7703TIP3   OH223051   7.267   6.717   4.206
 7703TIP3    H123052   7.291   6.780   4.138
 7703TIP3    H223053   7.350   6.695   4.248
 7704TIP3   OH223054   0.387   5.377   0.286
 7704TIP3    H123055   0.338   5.459   0.277
 7704TIP3    H223056   0.323   5.308   0.266
 7705TIP3   OH223057   2.243   4.833   2.833
 7705TIP3    H123058   2.226   4.738   2.837
 7705TIP3    H223059   2.336   4.840   2.814
 7706TIP3   OH223060   7.233   5.483   5.739
 7706TIP3    H123061   7.303   5.437   5.784
 7706TIP3    H223062   7.272   5.513   5.657
 7707TIP3   OH223063   1.979   2.950   6.160
 7707TIP3    H123064   1.917   3.004   6.209
 7707TIP3    H223065   1.974   2.984   6.070
 7708TIP3   OH223066   4.940   6.428   0.812
 7708TIP3    H123067   4.984   6.487   0.873
 7708TIP3    H223068   4.914   6.353   0.865
 7709TIP3   OH223069   5.233   6.240   0.723
 7709TIP3    H123070   5.231   6.318   0.667
 7709TIP3    H223071   5.232   6.275   0.812
 7710TIP3   OH223072   5.623   1.371   3.170
 7710TIP3    H123073   5.698   1.376   3.229
 7710TIP3    H223074   5.590   1.282   3.180
 7711TIP3   OH223075   6.878   7.296   1.845
 7711TIP3    H123076   6.956   7.340   1.878
 7711TIP3    H223077   6.806   7.334   1.895
 7712TIP3   OH223078   7.018   5.145   5.999
 7712TIP3    H123079   7.082   5.194   6.051
 7712TIP3    H223080   7.054   5.145   5.910
 7713TIP3   OH223081   3.079   2.838   0.452
 7713TIP3    H123082   3.016   2.872   0.516
 7713TIP3    H223083   3.033   2.843   0.368
 7714TIP3   OH223084   4.588   3.468   1.689
 7714TIP3    H123085   4.626   3.382   1.674
 7714TIP3    H223086   4.532   3.483   1.613
 7715TIP3   OH223087   4.875   5.249   0.282
 7715TIP3    H123088   4.785   5.226   0.308
 7715TIP3    H223089   4.912   5.167   0.249
 7716TIP3   OH223090   1.687   3.268   5.999
 7716TIP3    H123091   1.722   3.191   5.953
 7716TIP3    H223092   1.735   3.342   5.962
 7717TIP3   OH223093   6.300   2.004   0.282
 7717TIP3    H123094   6.335   2.054   0.356
 7717TIP3    H223095   6.210   1.985   0.307
 7718TIP3   OH223096   0.455   3.848   0.154
 7718TIP3    H123097   0.382   3.786   0.147
 7718TIP3    H223098   0.442   3.908   0.080
 7719TIP3   OH223099   3.660   3.776   4.083
 7719TIP3    H123100   3.665   3.830   4.003
 7719TIP3    H223101   3.626   3.835   4.150
 7720TIP3   OH223102   2.167   4.021   0.245
 7720TIP3    H123103   2.189   3.942   0.195
 7720TIP3    H223104   2.082   4.001   0.285
 7721TIP3   OH223105   0.412   4.181   3.344
 7721TIP3    H123106   0.453   4.098   3.366
 7721TIP3    H223107   0.328   4.157   3.306
 7722TIP3   OH223108   5.567   5.638   4.309
 7722TIP3    H123109   5.515   5.558   4.305
 7722TIP3    H223110   5.612   5.641   4.225
 7723TIP3   OH223111   6.393   1.778   4.432
 7723TIP3    H123112   6.312   1.741   4.395
 7723TIP3    H223113   6.415   1.720   4.505
 7724TIP3   OH223114   6.598   3.561   1.508
 7724TIP3    H123115   6.691   3.579   1.522
 7724TIP3    H223116   6.555   3.599   1.584
 7725TIP3   OH223117   0.236   4.986   5.621
 7725TIP3    H123118   0.259   5.054   5.684
 7725TIP3    H223119   0.230   5.031   5.537
 7726TIP3   OH223120   4.223   4.790   5.442
 7726TIP3    H123121   4.215   4.726   5.512
 7726TIP3    H223122   4.315   4.787   5.416
 7727TIP3   OH223123   7.755   7.419   2.456
 7727TIP3    H123124   7.669   7.424   2.498
 7727TIP3    H223125   7.761   7.329   2.424
 7728TIP3   OH223126   2.785   3.541   2.827
 7728TIP3    H123127   2.827   3.605   2.884
 7728TIP3    H223128   2.832   3.459   2.844
 7729TIP3   OH223129   0.191   1.856   4.112
 7729TIP3    H123130   0.206   1.901   4.195
 7729TIP3    H223131   0.167   1.925   4.051
 7730TIP3   OH223132   3.355   5.713   4.480
 7730TIP3    H123133   3.283   5.652   4.466
 7730TIP3    H223134   3.353   5.733   4.573
 7731TIP3   OH223135   7.584   1.454   4.184
 7731TIP3    H123136   7.490   1.470   4.188
 7731TIP3    H223137   7.596   1.400   4.106
 7732TIP3   OH223138   5.050   4.505   1.775
 7732TIP3    H123139   5.056   4.429   1.717
 7732TIP3    H223140   4.965   4.495   1.818
 7733TIP3   OH223141   3.686   1.582   3.477
 7733TIP3    H123142   3.598   1.609   3.502
 7733TIP3    H223143   3.708   1.511   3.538
 7734TIP3   OH223144   5.656   1.760   5.987
 7734TIP3    H123145   5.746   1.792   5.997
 7734TIP3    H223146   5.605   1.813   6.048
 7735TIP3   OH223147   7.215   0.660   0.629
 7735TIP3    H123148   7.159   0.668   0.552
 7735TIP3    H223149   7.284   0.724   0.615
 7736TIP3   OH223150   0.307   4.877   2.339
 7736TIP3    H123151   0.256   4.921   2.270
 7736TIP3    H223152   0.256   4.892   2.418
 7737TIP3   OH223153   6.621   3.011   5.876
 7737TIP3    H123154   6.571   3.004   5.957
 7737TIP3    H223155   6.655   3.101   5.876
 7738TIP3   OH223156   2.925  -0.014   4.596
 7738TIP3    H123157   2.968   0.048   4.655
 7738TIP3    H223158   2.979  -0.012   4.517
 7739TIP3   OH223159   8.228   6.672   2.683
 7739TIP3    H123160   8.177   6.655   2.763
 7739TIP3    H223161   8.163   6.667   2.613
 7740TIP3   OH223162   2.333   3.148   2.167
 7740TIP3    H123163   2.349   3.235   2.205
 7740TIP3    H223164   2.313   3.092   2.243
 7741TIP3   OH223165   3.006   5.167   4.239
 7741TIP3    H123166   2.939   5.226   4.274
 7741TIP3    H223167   3.066   5.223   4.191
 7742TIP3   OH223168   7.675   5.997   6.493
 7742TIP3    H123169   7.652   5.909   6.463
 7742TIP3    H223170   7.594   6.032   6.530
 7743TIP3   OH223171   5.558   4.860   2.795
 7743TIP3    H123172   5.652   4.862   2.780
 7743TIP3    H223173   5.532   4.952   2.793
 7744TIP3   OH223174   0.285   1.798   4.654
 7744TIP3    H123175   0.293   1.890   4.679
 7744TIP3    H223176   0.240   1.799   4.570
 7745TIP3   OH223177   3.946   1.944   2.417
 7745TIP3    H123178   4.014   1.878   2.430
 7745TIP3    H223179   3.953   2.002   2.493
 7746TIP3   OH223180   5.699   4.268   0.411
 7746TIP3    H123181   5.785   4.233   0.388
 7746TIP3    H223182   5.691   4.348   0.359
 7747TIP3   OH223183   4.452   2.325   1.008
 7747TIP3    H123184   4.474   2.332   0.915
 7747TIP3    H223185   4.471   2.234   1.031
 7748TIP3   OH223186   2.529   7.537   3.488
 7748TIP3    H123187   2.445   7.583   3.498
 7748TIP3    H223188   2.559   7.523   3.578
 7749TIP3   OH223189   5.929   7.602   2.871
 7749TIP3    H123190   5.961   7.644   2.791
 7749TIP3    H223191   5.924   7.509   2.849
 7750TIP3   OH223192   7.072   6.252   3.337
 7750TIP3    H123193   7.055   6.274   3.245
 7750TIP3    H223194   7.014   6.310   3.387
 7751TIP3   OH223195   6.766   0.577   6.311
 7751TIP3    H123196   6.755   0.535   6.397
 7751TIP3    H223197   6.767   0.671   6.331
 7752TIP3   OH223198   3.023   1.857   1.290
 7752TIP3    H123199   3.097   1.799   1.271
 7752TIP3    H223200   2.955   1.831   1.227
 7753TIP3   OH223201   0.439   1.432   0.629
 7753TIP3    H123202   0.412   1.410   0.718
 7753TIP3    H223203   0.476   1.520   0.637
 7754TIP3   OH223204   4.956   2.161   2.415
 7754TIP3    H123205   4.994   2.235   2.462
 7754TIP3    H223206   4.914   2.108   2.483
 7755TIP3   OH223207   7.103   1.664   6.736
 7755TIP3    H123208   7.175   1.612   6.700
 7755TIP3    H223209   7.140   1.705   6.815
 7756TIP3   OH223210   0.159   0.443   1.330
 7756TIP3    H123211   0.121   0.355   1.335
 7756TIP3    H223212   0.171   0.468   1.421
 7757TIP3   OH223213   3.055   3.341   6.128
 7757TIP3    H123214   3.079   3.411   6.188
 7757TIP3    H223215   3.079   3.374   6.041
 7758TIP3   OH223216   3.790   4.723   3.318
 7758TIP3    H123217   3.719   4.678   3.364
 7758TIP3    H223218   3.828   4.781   3.384
 7759TIP3   OH223219   2.535   6.294   5.720
 7759TIP3    H123220   2.456   6.309   5.771
 7759TIP3    H223221   2.509   6.307   5.629
 7760TIP3   OH223222   0.594   5.210   0.849
 7760TIP3    H123223   0.663   5.241   0.790
 7760TIP3    H223224   0.518   5.200   0.792
 7761TIP3   OH223225   5.555   6.226   3.394
 7761TIP3    H123226   5.517   6.231   3.306
 7761TIP3    H223227   5.518   6.302   3.440
 7762TIP3   OH223228   2.642   5.951   6.072
 7762TIP3    H123229   2.596   5.982   5.993
 7762TIP3    H223230   2.714   5.898   6.038
 7763TIP3   OH223231   0.024   3.303   6.020
 7763TIP3    H123232   0.025   3.322   6.114
 7763TIP3    H223233   0.100   3.351   5.985
 7764TIP3   OH223234   0.776   1.391   5.250
 7764TIP3    H123235   0.751   1.367   5.161
 7764TIP3    H223236   0.864   1.427   5.242
 7765TIP3   OH223237   7.694   3.696   1.848
 7765TIP3    H123238   7.656   3.782   1.866
 7765TIP3    H223239   7.780   3.699   1.890
 7766TIP3   OH223240   4.487   5.032   5.331
 7766TIP3    H123241   4.479   4.953   5.385
 7766TIP3    H223242   4.496   5.103   5.394
 7767TIP3   OH223243   3.874   0.207   0.859
 7767TIP3    H123244   3.854   0.289   0.814
 7767TIP3    H223245   3.799   0.193   0.917
 7768TIP3   OH223246   3.685   7.182   5.416
 7768TIP3    H123247   3.710   7.094   5.387
 7768TIP3    H223248   3.759   7.237   5.391
 7769TIP3   OH223249   1.815   5.637   3.537
 7769TIP3    H123250   1.887   5.631   3.600
 7769TIP3    H223251   1.737   5.617   3.589
 7770TIP3   OH223252   3.436   0.721   5.007
 7770TIP3    H123253   3.483   0.644   4.977
 7770TIP3    H223254   3.456   0.789   4.943
 7771TIP3   OH223255   3.816   6.398   3.260
 7771TIP3    H123256   3.801   6.491   3.245
 7771TIP3    H223257   3.823   6.390   3.355
 7772TIP3   OH223258   3.863   6.544   5.524
 7772TIP3    H123259   3.795   6.567   5.461
 7772TIP3    H223260   3.936   6.511   5.471
 7773TIP3   OH223261   1.472   6.461   3.509
 7773TIP3    H123262   1.459   6.501   3.423
 7773TIP3    H223263   1.384   6.439   3.539
 7774TIP3   OH223264   7.738   6.325   3.352
 7774TIP3    H123265   7.741   6.235   3.320
 7774TIP3    H223266   7.663   6.327   3.411
 7775TIP3   OH223267   7.283   6.722   3.322
 7775TIP3    H123268   7.238   6.754   3.400
 7775TIP3    H223269   7.315   6.635   3.346
 7776TIP3   OH223270   1.731   6.503   4.826
 7776TIP3    H123271   1.761   6.469   4.742
 7776TIP3    H223272   1.681   6.581   4.803
 7777TIP3   OH223273   3.736   4.128   0.466
 7777TIP3    H123274   3.733   4.186   0.543
 7777TIP3    H223275   3.826   4.136   0.435
 7778TIP3   OH223276   3.995   2.723   4.168
 7778TIP3    H123277   4.029   2.798   4.217
 7778TIP3    H223278   4.004   2.649   4.229
 7779TIP3   OH223279   6.257   5.644   0.839
 7779TIP3    H123280   6.330   5.629   0.898
 7779TIP3    H223281   6.294   5.630   0.751
 7780TIP3   OH223282   8.212   4.072   5.654
 7780TIP3    H123283   8.263   4.153   5.662
 7780TIP3    H223284   8.268   4.013   5.604
 7781TIP3   OH223285   6.617   0.827   3.765
 7781TIP3    H123286   6.681   0.855   3.831
 7781TIP3    H223287   6.655   0.748   3.726
 7782TIP3   OH223288   1.271   2.874   0.296
 7782TIP3    H123289   1.339   2.811   0.272
 7782TIP3    H223290   1.191   2.822   0.299
 7783TIP3   OH223291   2.922   3.537   1.792
 7783TIP3    H123292   2.968   3.615   1.760
 7783TIP3    H223293   2.917   3.479   1.716
 7784TIP3   OH223294   3.746   0.659   3.929
 7784TIP3    H123295   3.711   0.633   3.844
 7784TIP3    H223296   3.676   0.709   3.970
 7785TIP3   OH223297   8.256   2.148   1.021
 7785TIP3    H123298   8.225   2.073   0.970
 7785TIP3    H223299   8.241   2.123   1.112
 7786TIP3   OH223300   6.135   4.819   1.784
 7786TIP3    H123301   6.089   4.739   1.762
 7786TIP3    H223302   6.173   4.848   1.701
 7787TIP3   OH223303   2.948   0.493   2.230
 7787TIP3    H123304   2.856   0.493   2.207
 7787TIP3    H223305   2.985   0.419   2.180
 7788TIP3   OH223306   6.342   6.357   5.354
 7788TIP3    H123307   6.364   6.449   5.362
 7788TIP3    H223308   6.293   6.351   5.272
 7789TIP3   OH223309   5.503   4.057   2.572
 7789TIP3    H123310   5.508   4.145   2.608
 7789TIP3    H223311   5.547   4.062   2.488
 7790TIP3   OH223312   2.428   5.316   4.803
 7790TIP3    H123313   2.443   5.346   4.892
 7790TIP3    H223314   2.335   5.333   4.787
 7791TIP3   OH223315   2.647   3.914   2.805
 7791TIP3    H123316   2.687   3.850   2.863
 7791TIP3    H223317   2.629   3.989   2.861
 7792TIP3   OH223318   5.316   1.565   3.049
 7792TIP3    H123319   5.408   1.580   3.025
 7792TIP3    H223320   5.298   1.475   3.021
 7793TIP3   OH223321   2.193   5.717   1.484
 7793TIP3    H123322   2.278   5.750   1.510
 7793TIP3    H223323   2.203   5.622   1.484
 7794TIP3   OH223324   2.726   6.599   0.358
 7794TIP3    H123325   2.780   6.548   0.419
 7794TIP3    H223326   2.649   6.544   0.343
 7795TIP3   OH223327   6.416   0.739   6.674
 7795TIP3    H123328   6.419   0.779   6.587
 7795TIP3    H223329   6.322   0.731   6.693
 7796TIP3   OH223330   5.398   2.712   3.034
 7796TIP3    H123331   5.385   2.627   2.990
 7796TIP3    H223332   5.313   2.732   3.073
 7797TIP3   OH223333   0.062   6.485   5.544
 7797TIP3    H123334   0.128   6.503   5.477
 7797TIP3    H223335   0.084   6.546   5.615
 7798TIP3   OH223336   4.012   2.011   1.950
 7798TIP3    H123337   3.939   2.025   2.010
 7798TIP3    H223338   4.062   1.939   1.988
 7799TIP3   OH223339   1.780   1.551   2.366
 7799TIP3    H123340   1.765   1.459   2.344
 7799TIP3    H223341   1.694   1.585   2.390
 7800TIP3   OH223342   5.852   4.252   4.015
 7800TIP3    H123343   5.798   4.181   4.049
 7800TIP3    H223344   5.928   4.255   4.073
 7801TIP3   OH223345   6.066   1.585   3.470
 7801TIP3    H123346   6.107   1.654   3.522
 7801TIP3    H223347   6.089   1.607   3.380
 7802TIP3   OH223348   2.827   6.954   5.618
 7802TIP3    H123349   2.792   6.931   5.704
 7802TIP3    H223350   2.899   6.892   5.603
 7803TIP3   OH223351   3.784   3.783   4.966
 7803TIP3    H123352   3.782   3.705   5.021
 7803TIP3    H223353   3.871   3.820   4.980
 7804TIP3   OH223354   7.299   0.739   3.894
 7804TIP3    H123355   7.326   0.714   3.806
 7804TIP3    H223356   7.380   0.738   3.945
 7805TIP3   OH223357   2.485   0.325   0.900
 7805TIP3    H123358   2.515   0.405   0.856
 7805TIP3    H223359   2.527   0.328   0.986
 7806TIP3   OH223360   3.816   5.890   3.834
 7806TIP3    H123361   3.898   5.845   3.854
 7806TIP3    H223362   3.825   5.975   3.876
 7807TIP3   OH223363   2.454   5.801   1.556
 7807TIP3    H123364   2.469   5.878   1.501
 7807TIP3    H223365   2.537   5.788   1.601
 7808TIP3   OH223366   3.079   5.244   2.045
 7808TIP3    H123367   3.173   5.262   2.035
 7808TIP3    H223368   3.075   5.170   2.106
 7809TIP3   OH223369   3.638   5.230   6.604
 7809TIP3    H123370   3.643   5.208   6.512
 7809TIP3    H223371   3.658   5.324   6.608
 7810TIP3   OH223372   5.224   7.378   4.698
 7810TIP3    H123373   5.281   7.400   4.772
 7810TIP3    H223374   5.244   7.444   4.632
 7811TIP3   OH223375   6.066   3.326   1.013
 7811TIP3    H123376   6.161   3.335   1.026
 7811TIP3    H223377   6.035   3.415   0.998
 7812TIP3   OH223378   7.734   5.732   1.562
 7812TIP3    H123379   7.806   5.697   1.615
 7812TIP3    H223380   7.724   5.668   1.491
 7813TIP3   OH223381   5.980   6.425   2.977
 7813TIP3    H123382   6.023   6.500   3.018
 7813TIP3    H223383   5.961   6.366   3.050
 7814TIP3   OH223384   8.081   1.960   4.722
 7814TIP3    H123385   8.134   1.933   4.798
 7814TIP3    H223386   8.067   2.054   4.735
 7815TIP3   OH223387   0.719   5.628   1.404
 7815TIP3    H123388   0.685   5.676   1.479
 7815TIP3    H223389   0.795   5.679   1.376
 7816TIP3   OH223390   1.108   4.057   6.066
 7816TIP3    H123391   1.121   4.151   6.071
 7816TIP3    H223392   1.038   4.039   6.128
 7817TIP3   OH223393   2.191   0.817   0.401
 7817TIP3    H123394   2.142   0.881   0.452
 7817TIP3    H223395   2.249   0.774   0.464
 7818TIP3   OH223396   6.500   6.683   4.051
 7818TIP3    H123397   6.590   6.716   4.053
 7818TIP3    H223398   6.465   6.704   4.138
 7819TIP3   OH223399   4.422   0.070   4.174
 7819TIP3    H123400   4.442   0.092   4.083
 7819TIP3    H223401   4.486   0.002   4.197
 7820TIP3   OH223402   7.987   3.229   4.252
 7820TIP3    H123403   7.901   3.256   4.284
 7820TIP3    H223404   8.044   3.304   4.272
 7821TIP3   OH223405   1.489   5.028   0.182
 7821TIP3    H123406   1.402   5.023   0.142
 7821TIP3    H223407   1.538   4.956   0.143
 7822TIP3   OH223408   1.446   5.482   5.354
 7822TIP3    H123409   1.390   5.472   5.431
 7822TIP3    H223410   1.535   5.486   5.390
 7823TIP3   OH223411   4.480   4.593   4.177
 7823TIP3    H123412   4.493   4.647   4.099
 7823TIP3    H223413   4.437   4.652   4.240
 7824TIP3   OH223414   4.669   2.804   4.325
 7824TIP3    H123415   4.601   2.857   4.368
 7824TIP3    H223416   4.729   2.868   4.288
 7825TIP3   OH223417   2.767   6.453   3.371
 7825TIP3    H123418   2.819   6.430   3.448
 7825TIP3    H223419   2.770   6.376   3.315
 7826TIP3   OH223420   1.379   4.831   3.775
 7826TIP3    H123421   1.367   4.809   3.868
 7826TIP3    H223422   1.432   4.759   3.740
 7827TIP3   OH223423   6.514   4.895   6.232
 7827TIP3    H123424   6.500   4.989   6.222
 7827TIP3    H223425   6.427   4.856   6.221
 7828TIP3   OH223426   2.440   1.451   3.477
 7828TIP3    H123427   2.356   1.405   3.481
 7828TIP3    H223428   2.506   1.381   3.478
 7829TIP3   OH223429   3.508   2.114   3.858
 7829TIP3    H123430   3.568   2.108   3.784
 7829TIP3    H223431   3.478   2.205   3.858
 7830TIP3   OH223432   7.468   3.199   3.389
 7830TIP3    H123433   7.560   3.177   3.374
 7830TIP3    H223434   7.427   3.195   3.303
 7831TIP3   OH223435   3.313   2.290   0.117
 7831TIP3    H123436   3.230   2.334   0.137
 7831TIP3    H223437   3.332   2.238   0.195
 7832TIP3   OH223438   4.126   5.572   3.207
 7832TIP3    H123439   4.103   5.556   3.299
 7832TIP3    H223440   4.053   5.624   3.173
 7833TIP3   OH223441   1.843   2.644   1.219
 7833TIP3    H123442   1.844   2.560   1.264
 7833TIP3    H223443   1.935   2.661   1.197
 7834TIP3   OH223444   8.114   6.230   1.146
 7834TIP3    H123445   8.204   6.259   1.140
 7834TIP3    H223446   8.086   6.254   1.235
 7835TIP3   OH223447   2.012   3.456   6.187
 7835TIP3    H123448   2.079   3.520   6.209
 7835TIP3    H223449   2.018   3.445   6.092
 7836TIP3   OH223450   7.281   6.620   2.310
 7836TIP3    H123451   7.191   6.603   2.339
 7836TIP3    H223452   7.335   6.559   2.360
 7837TIP3   OH223453   4.675   3.970   2.112
 7837TIP3    H123454   4.649   4.017   2.033
 7837TIP3    H223455   4.610   3.997   2.178
 7838TIP3   OH223456   0.088   5.229   0.970
 7838TIP3    H123457   0.129   5.242   1.056
 7838TIP3    H223458   0.000   5.198   0.990
 7839TIP3   OH223459   4.021   6.570   2.885
 7839TIP3    H123460   3.945   6.542   2.834
 7839TIP3    H223461   3.991   6.648   2.932
 7840TIP3   OH223462   5.850   1.861   3.470
 7840TIP3    H123463   5.853   1.800   3.544
 7840TIP3    H223464   5.757   1.872   3.452
 7841TIP3   OH223465   3.781   2.112   1.755
 7841TIP3    H123466   3.781   2.138   1.847
 7841TIP3    H223467   3.689   2.098   1.734
 7842TIP3   OH223468   6.170   5.278   6.597
 7842TIP3    H123469   6.205   5.234   6.675
 7842TIP3    H223470   6.219   5.240   6.525
 7843TIP3   OH223471   1.343   5.168   5.409
 7843TIP3    H123472   1.293   5.231   5.462
 7843TIP3    H223473   1.434   5.196   5.418
 7844TIP3   OH223474   0.868   0.046   3.528
 7844TIP3    H123475   0.945   0.009   3.572
 7844TIP3    H223476   0.889   0.139   3.519
 7845TIP3   OH223477   6.566   7.488   3.599
 7845TIP3    H123478   6.520   7.418   3.554
 7845TIP3    H223479   6.659   7.469   3.585
 7846TIP3   OH223480   5.380   7.134   2.282
 7846TIP3    H123481   5.462   7.154   2.237
 7846TIP3    H223482   5.406   7.085   2.360
 7847TIP3   OH223483   3.732   7.789   2.400
 7847TIP3    H123484   3.684   7.742   2.331
 7847TIP3    H223485   3.824   7.767   2.385
 7848TIP3   OH223486   0.685   7.391   6.669
 7848TIP3    H123487   0.690   7.318   6.607
 7848TIP3    H223488   0.683   7.469   6.614
 7849TIP3   OH223489   4.072   5.839   3.930
 7849TIP3    H123490   4.158   5.805   3.907
 7849TIP3    H223491   4.029   5.767   3.976
 7850TIP3   OH223492   8.195   7.465   6.572
 7850TIP3    H123493   8.197   7.375   6.541
 7850TIP3    H223494   8.146   7.460   6.654
 7851TIP3   OH223495   2.037   7.226   3.007
 7851TIP3    H123496   2.103   7.295   3.010
 7851TIP3    H223497   2.070   7.159   3.068
 7852TIP3   OH223498   3.047   3.207   4.951
 7852TIP3    H123499   3.131   3.200   4.995
 7852TIP3    H223500   3.068   3.239   4.863
 7853TIP3   OH223501   0.688   1.490   3.312
 7853TIP3    H123502   0.779   1.463   3.321
 7853TIP3    H223503   0.692   1.582   3.285
 7854TIP3   OH223504   7.868   6.139   4.817
 7854TIP3    H123505   7.900   6.052   4.793
 7854TIP3    H223506   7.808   6.124   4.890
 7855TIP3   OH223507   1.349   7.405   5.006
 7855TIP3    H123508   1.380   7.354   4.931
 7855TIP3    H223509   1.428   7.438   5.048
 7856TIP3   OH223510   5.794   7.111   1.945
 7856TIP3    H123511   5.848   7.045   1.989
 7856TIP3    H223512   5.838   7.194   1.964
 7857TIP3   OH223513   2.077   4.640   0.031
 7857TIP3    H123514   2.131   4.617   0.107
 7857TIP3    H223515   2.089   4.734   0.021
 7858TIP3   OH223516   8.067   5.565   4.356
 7858TIP3    H123517   8.153   5.561   4.397
 7858TIP3    H223518   8.080   5.528   4.269
 7859TIP3   OH223519   1.075   6.800   1.994
 7859TIP3    H123520   1.055   6.875   1.937
 7859TIP3    H223521   1.076   6.725   1.935
 7860TIP3   OH223522   3.928   6.889   0.773
 7860TIP3    H123523   3.958   6.798   0.775
 7860TIP3    H223524   3.980   6.934   0.839
 7861TIP3   OH223525   4.147   4.596   1.149
 7861TIP3    H123526   4.124   4.647   1.071
 7861TIP3    H223527   4.108   4.510   1.134
 7862TIP3   OH223528   0.466   1.094   1.935
 7862TIP3    H123529   0.448   1.172   1.987
 7862TIP3    H223530   0.429   1.114   1.849
 7863TIP3   OH223531   7.379   1.662   5.668
 7863TIP3    H123532   7.357   1.676   5.760
 7863TIP3    H223533   7.469   1.694   5.659
 7864TIP3   OH223534   7.886   3.882   1.482
 7864TIP3    H123535   7.865   3.796   1.520
 7864TIP3    H223536   7.816   3.898   1.419
 7865TIP3   OH223537   4.135   6.585   1.137
 7865TIP3    H123538   4.131   6.605   1.231
 7865TIP3    H223539   4.226   6.605   1.113
 7866TIP3   OH223540   3.218   5.253   0.265
 7866TIP3    H123541   3.168   5.329   0.237
 7866TIP3    H223542   3.194   5.185   0.202
 7867TIP3   OH223543   5.814   3.239   3.222
 7867TIP3    H123544   5.819   3.207   3.132
 7867TIP3    H223545   5.900   3.220   3.259
 7868TIP3   OH223546   3.887   5.329   4.644
 7868TIP3    H123547   3.875   5.372   4.728
 7868TIP3    H223548   3.814   5.360   4.590
 7869TIP3   OH223549   4.893   5.988   2.927
 7869TIP3    H123550   4.888   5.927   2.854
 7869TIP3    H223551   4.831   5.954   2.992
 7870TIP3   OH223552   3.101   4.263   5.568
 7870TIP3    H123553   3.077   4.355   5.583
 7870TIP3    H223554   3.162   4.267   5.494
 7871TIP3   OH223555   2.753   4.953   1.672
 7871TIP3    H123556   2.747   5.017   1.601
 7871TIP3    H223557   2.686   4.888   1.652
 7872TIP3   OH223558   2.415   7.776   5.199
 7872TIP3    H123559   2.325   7.779   5.167
 7872TIP3    H223560   2.407   7.779   5.294
 7873TIP3   OH223561   0.908   6.421   1.868
 7873TIP3    H123562   0.901   6.510   1.904
 7873TIP3    H223563   0.825   6.379   1.892
 7874TIP3   OH223564   6.950   6.769   0.440
 7874TIP3    H123565   6.858   6.754   0.418
 7874TIP3    H223566   6.984   6.683   0.462
 7875TIP3   OH223567   4.177   0.877   6.412
 7875TIP3    H123568   4.212   0.798   6.370
 7875TIP3    H223569   4.218   0.949   6.364
 7876TIP3   OH223570   2.288   5.968   5.217
 7876TIP3    H123571   2.276   6.056   5.181
 7876TIP3    H223572   2.242   5.969   5.300
 7877TIP3   OH223573   7.170   4.757   2.814
 7877TIP3    H123574   7.171   4.795   2.727
 7877TIP3    H223575   7.128   4.822   2.870
 7878TIP3   OH223576   1.786   1.036   4.405
 7878TIP3    H123577   1.803   0.955   4.356
 7878TIP3    H223578   1.710   1.015   4.460
 7879TIP3   OH223579   5.488   6.563   3.756
 7879TIP3    H123580   5.402   6.602   3.773
 7879TIP3    H223581   5.551   6.632   3.780
 7880TIP3   OH223582   7.875   2.221   0.454
 7880TIP3    H123583   7.837   2.229   0.367
 7880TIP3    H223584   7.806   2.180   0.506
 7881TIP3   OH223585   6.131   0.922   5.201
 7881TIP3    H123586   6.080   0.976   5.141
 7881TIP3    H223587   6.066   0.889   5.264
 7882TIP3   OH223588   0.450   6.864   0.779
 7882TIP3    H123589   0.389   6.893   0.847
 7882TIP3    H223590   0.414   6.899   0.698
 7883TIP3   OH223591   6.639   1.987   6.196
 7883TIP3    H123592   6.708   1.994   6.129
 7883TIP3    H223593   6.557   1.987   6.146
 7884TIP3   OH223594   0.853   1.017   4.743
 7884TIP3    H123595   0.821   0.928   4.762
 7884TIP3    H223596   0.934   1.003   4.694
 7885TIP3   OH223597   4.571   2.191   3.134
 7885TIP3    H123598   4.597   2.141   3.057
 7885TIP3    H223599   4.608   2.279   3.119
 7886TIP3   OH223600   4.156   6.819   3.894
 7886TIP3    H123601   4.070   6.857   3.880
 7886TIP3    H223602   4.191   6.804   3.806
 7887TIP3   OH223603   5.785   5.381   2.886
 7887TIP3    H123604   5.823   5.376   2.974
 7887TIP3    H223605   5.718   5.450   2.893
 7888TIP3   OH223606   0.638   3.840   5.994
 7888TIP3    H123607   0.644   3.778   6.067
 7888TIP3    H223608   0.621   3.925   6.036
 7889TIP3   OH223609   6.770   1.077   2.990
 7889TIP3    H123610   6.832   1.077   2.917
 7889TIP3    H223611   6.737   0.988   2.994
 7890TIP3   OH223612   4.081   6.586   5.142
 7890TIP3    H123613   4.134   6.590   5.221
 7890TIP3    H223614   4.137   6.542   5.078
 7891TIP3   OH223615   3.321   3.197   5.050
 7891TIP3    H123616   3.333   3.239   5.136
 7891TIP3    H223617   3.392   3.133   5.045
 7892TIP3   OH223618   0.617   4.582   2.337
 7892TIP3    H123619   0.563   4.508   2.307
 7892TIP3    H223620   0.676   4.544   2.402
 7893TIP3   OH223621   7.712   0.986   5.751
 7893TIP3    H123622   7.624   1.024   5.751
 7893TIP3    H223623   7.770   1.058   5.777
 7894TIP3   OH223624   1.452   6.497   1.378
 7894TIP3    H123625   1.535   6.451   1.377
 7894TIP3    H223626   1.417   6.483   1.466
 7895TIP3   OH223627   1.595   7.775   1.843
 7895TIP3    H123628   1.521   7.733   1.886
 7895TIP3    H223629   1.652   7.702   1.817
 7896TIP3   OH223630   0.753   1.565   3.010
 7896TIP3    H123631   0.700   1.630   3.057
 7896TIP3    H223632   0.839   1.606   3.001
 7897TIP3   OH223633   5.339   4.423   5.613
 7897TIP3    H123634   5.296   4.427   5.528
 7897TIP3    H223635   5.420   4.473   5.601
 7898TIP3   OH223636   1.512   2.762   2.170
 7898TIP3    H123637   1.453   2.702   2.217
 7898TIP3    H223638   1.454   2.811   2.112
 7899TIP3   OH223639   5.457   3.202   4.782
 7899TIP3    H123640   5.369   3.165   4.776
 7899TIP3    H223641   5.475   3.235   4.694
 7900TIP3   OH223642   1.111   0.539   3.906
 7900TIP3    H123643   1.197   0.565   3.873
 7900TIP3    H223644   1.055   0.615   3.889
 7901TIP3   OH223645   3.560   3.264   0.125
 7901TIP3    H123646   3.528   3.238   0.211
 7901TIP3    H223647   3.481   3.276   0.072
 7902TIP3   OH223648   6.390   3.800   1.573
 7902TIP3    H123649   6.398   3.847   1.656
 7902TIP3    H223650   6.450   3.847   1.514
 7903TIP3   OH223651   4.883   1.274   0.395
 7903TIP3    H123652   4.834   1.204   0.352
 7903TIP3    H223653   4.834   1.354   0.375
 7904TIP3   OH223654   6.871   2.491   2.341
 7904TIP3    H123655   6.889   2.403   2.373
 7904TIP3    H223656   6.877   2.546   2.419
 7905TIP3   OH223657   6.514   0.317   4.569
 7905TIP3    H123658   6.596   0.290   4.526
 7905TIP3    H223659   6.454   0.335   4.496
 7906TIP3   OH223660   2.174   2.046   4.255
 7906TIP3    H123661   2.234   2.005   4.192
 7906TIP3    H223662   2.128   2.112   4.203
 7907TIP3   OH223663   1.466   5.890   4.473
 7907TIP3    H123664   1.453   5.840   4.553
 7907TIP3    H223665   1.471   5.981   4.501
 7908TIP3   OH223666   7.184   7.647   3.736
 7908TIP3    H123667   7.276   7.657   3.711
 7908TIP3    H223668   7.148   7.583   3.675
 7909TIP3   OH223669   7.982   1.479   5.340
 7909TIP3    H123670   8.050   1.545   5.324
 7909TIP3    H223671   7.919   1.492   5.269
 7910TIP3   OH223672   2.902   1.128   5.141
 7910TIP3    H123673   2.830   1.132   5.204
 7910TIP3    H223674   2.954   1.053   5.169
 7911TIP3   OH223675   4.021   0.159   2.517
 7911TIP3    H123676   3.991   0.079   2.559
 7911TIP3    H223677   3.982   0.229   2.569
 7912TIP3   OH223678   6.325   6.985   5.460
 7912TIP3    H123679   6.306   7.064   5.409
 7912TIP3    H223680   6.410   6.956   5.427
 7913TIP3   OH223681   2.382   1.800   3.822
 7913TIP3    H123682   2.467   1.779   3.782
 7913TIP3    H223683   2.390   1.770   3.913
 7914TIP3   OH223684   4.112   0.368   5.559
 7914TIP3    H123685   4.042   0.431   5.577
 7914TIP3    H223686   4.141   0.339   5.646
 7915TIP3   OH223687   0.635   0.004   5.410
 7915TIP3    H123688   0.730  -0.003   5.421
 7915TIP3    H223689   0.622   0.089   5.368
 7916TIP3   OH223690   6.888   3.157   5.463
 7916TIP3    H123691   6.953   3.224   5.441
 7916TIP3    H223692   6.940   3.081   5.490
 7917TIP3   OH223693   2.896   3.488   4.698
 7917TIP3    H123694   2.946   3.523   4.771
 7917TIP3    H223695   2.948   3.511   4.620
 7918TIP3   OH223696   4.548   2.105   3.644
 7918TIP3    H123697   4.573   2.162   3.571
 7918TIP3    H223698   4.618   2.040   3.649
 7919TIP3   OH223699   5.242   5.007   1.709
 7919TIP3    H123700   5.248   4.952   1.631
 7919TIP3    H223701   5.273   4.952   1.781
 7920TIP3   OH223702   6.046   2.143   3.528
 7920TIP3    H123703   6.044   2.072   3.463
 7920TIP3    H223704   6.140   2.161   3.540
 7921TIP3   OH223705   6.306   6.543   4.872
 7921TIP3    H123706   6.235   6.530   4.809
 7921TIP3    H223707   6.359   6.463   4.864
 7922TIP3   OH223708   2.372   0.804   4.530
 7922TIP3    H123709   2.420   0.875   4.574
 7922TIP3    H223710   2.417   0.792   4.447
 7923TIP3   OH223711   6.014   4.533   5.897
 7923TIP3    H123712   5.920   4.533   5.881
 7923TIP3    H223713   6.052   4.555   5.812
 7924TIP3   OH223714   7.456   2.840   2.640
 7924TIP3    H123715   7.406   2.919   2.616
 7924TIP3    H223716   7.543   2.873   2.663
 7925TIP3   OH223717   5.694   4.114   0.083
 7925TIP3    H123718   5.780   4.072   0.074
 7925TIP3    H223719   5.690   4.176   0.011
 7926TIP3   OH223720   2.235   0.478   3.538
 7926TIP3    H123721   2.291   0.434   3.602
 7926TIP3    H223722   2.240   0.423   3.460
 7927TIP3   OH223723   5.123   5.519   4.873
 7927TIP3    H123724   5.188   5.503   4.941
 7927TIP3    H223725   5.156   5.470   4.797
 7928TIP3   OH223726   3.747   2.075   2.938
 7928TIP3    H123727   3.781   2.009   2.999
 7928TIP3    H223728   3.787   2.053   2.854
 7929TIP3   OH223729   6.881   4.065   0.407
 7929TIP3    H123730   6.797   4.021   0.419
 7929TIP3    H223731   6.944   4.007   0.449
 7930TIP3   OH223732   2.219   6.341   1.283
 7930TIP3    H123733   2.143   6.285   1.297
 7930TIP3    H223734   2.182   6.430   1.276
 7931TIP3   OH223735   1.959   5.588   4.707
 7931TIP3    H123736   1.907   5.632   4.774
 7931TIP3    H223737   1.980   5.658   4.644
 7932TIP3   OH223738   0.484   5.896   4.366
 7932TIP3    H123739   0.418   5.827   4.357
 7932TIP3    H223740   0.440   5.974   4.333
 7933TIP3   OH223741   2.771   5.232   3.553
 7933TIP3    H123742   2.767   5.315   3.505
 7933TIP3    H223743   2.864   5.214   3.562
 7934TIP3   OH223744   6.579   1.777   6.373
 7934TIP3    H123745   6.583   1.813   6.284
 7934TIP3    H223746   6.491   1.798   6.404
 7935TIP3   OH223747   7.162   4.886   1.825
 7935TIP3    H123748   7.219   4.956   1.794
 7935TIP3    H223749   7.220   4.826   1.872
 7936TIP3   OH223750   6.895   5.683   0.927
 7936TIP3    H123751   6.867   5.600   0.966
 7936TIP3    H223752   6.850   5.686   0.842
 7937TIP3   OH223753   2.346   2.213   0.071
 7937TIP3    H123754   2.287   2.251   0.136
 7937TIP3    H223755   2.380   2.288   0.022
 7938TIP3   OH223756   2.979   6.145   3.707
 7938TIP3    H123757   3.060   6.100   3.731
 7938TIP3    H223758   3.002   6.195   3.629
 7939TIP3   OH223759   6.529   3.104  -0.016
 7939TIP3    H123760   6.615   3.143  -0.003
 7939TIP3    H223761   6.490   3.102   0.072
 7940TIP3   OH223762   6.854   6.399   3.446
 7940TIP3    H123763   6.794   6.345   3.395
 7940TIP3    H223764   6.814   6.403   3.534
 7941TIP3   OH223765   2.562   5.551   0.044
 7941TIP3    H123766   2.649   5.558   0.084
 7941TIP3    H223767   2.563   5.616  -0.026
 7942TIP3   OH223768   1.866   7.035   1.316
 7942TIP3    H123769   1.902   7.110   1.364
 7942TIP3    H223770   1.866   6.964   1.380
 7943TIP3   OH223771   1.848   3.209   0.087
 7943TIP3    H123772   1.943   3.211   0.093
 7943TIP3    H223773   1.830   3.158   0.008
 7944TIP3   OH223774   6.681   2.954   0.224
 7944TIP3    H123775   6.586   2.961   0.232
 7944TIP3    H223776   6.711   3.045   0.217
 7945TIP3   OH223777   4.436   7.538   1.119
 7945TIP3    H123778   4.492   7.615   1.128
 7945TIP3    H223779   4.391   7.551   1.036
 7946TIP3   OH223780   8.224   7.239   5.628
 7946TIP3    H123781   8.175   7.168   5.586
 7946TIP3    H223782   8.264   7.198   5.705
 7947TIP3   OH223783   0.094   0.618   0.843
 7947TIP3    H123784   0.111   0.558   0.915
 7947TIP3    H223785   0.021   0.578   0.795
 7948TIP3   OH223786   2.787   0.632   2.864
 7948TIP3    H123787   2.857   0.611   2.925
 7948TIP3    H223788   2.784   0.557   2.804
 7949TIP3   OH223789   8.184   3.019   3.197
 7949TIP3    H123790   8.223   2.934   3.176
 7949TIP3    H223791   8.117   2.998   3.263
 7950TIP3   OH223792   3.253   2.449   3.435
 7950TIP3    H123793   3.298   2.431   3.517
 7950TIP3    H223794   3.219   2.538   3.444
 7951TIP3   OH223795   5.077   5.344   0.107
 7951TIP3    H123796   5.007   5.343   0.041
 7951TIP3    H223797   5.032   5.355   0.190
 7952TIP3   OH223798   5.878   0.701   5.945
 7952TIP3    H123799   5.783   0.717   5.939
 7952TIP3    H223800   5.894   0.683   6.037
 7953TIP3   OH223801   0.750   0.500   0.675
 7953TIP3    H123802   0.818   0.558   0.642
 7953TIP3    H223803   0.668   0.547   0.657
 7954TIP3   OH223804   0.910   4.457   4.912
 7954TIP3    H123805   0.848   4.385   4.922
 7954TIP3    H223806   0.985   4.418   4.867
 7955TIP3   OH223807   0.061   5.199   6.043
 7955TIP3    H123808   0.055   5.288   6.078
 7955TIP3    H223809   0.149   5.170   6.066
 7956TIP3   OH223810   2.501   6.241   0.570
 7956TIP3    H123811   2.446   6.228   0.647
 7956TIP3    H223812   2.454   6.197   0.499
 7957TIP3   OH223813   4.570   1.665   5.273
 7957TIP3    H123814   4.564   1.658   5.177
 7957TIP3    H223815   4.607   1.581   5.300
 7958TIP3   OH223816   6.605   7.336   1.351
 7958TIP3    H123817   6.662   7.412   1.365
 7958TIP3    H223818   6.539   7.342   1.419
 7959TIP3   OH223819   4.279   1.706   0.967
 7959TIP3    H123820   4.315   1.627   0.926
 7959TIP3    H223821   4.280   1.686   1.061
 7960TIP3   OH223822   5.072   7.547   1.485
 7960TIP3    H123823   5.139   7.479   1.493
 7960TIP3    H223824   5.073   7.572   1.392
 7961TIP3   OH223825   6.398   4.012   0.384
 7961TIP3    H123826   6.478   3.977   0.347
 7961TIP3    H223827   6.413   4.107   0.389
 7962TIP3   OH223828   6.777   3.536   6.412
 7962TIP3    H123829   6.867   3.547   6.443
 7962TIP3    H223830   6.732   3.494   6.486
 7963TIP3   OH223831   3.605   6.324   3.776
 7963TIP3    H123832   3.543   6.395   3.788
 7963TIP3    H223833   3.557   6.245   3.800
 7964TIP3   OH223834   0.304   0.018   5.179
 7964TIP3    H123835   0.331  -0.065   5.140
 7964TIP3    H223836   0.325   0.084   5.113
 7965TIP3   OH223837   1.886   3.765   5.510
 7965TIP3    H123838   1.854   3.842   5.557
 7965TIP3    H223839   1.945   3.801   5.444
 7966TIP3   OH223840   1.257   5.544   3.190
 7966TIP3    H123841   1.352   5.557   3.183
 7966TIP3    H223842   1.219   5.611   3.135
 7967TIP3   OH223843   4.167   1.860   2.563
 7967TIP3    H123844   4.217   1.790   2.521
 7967TIP3    H223845   4.207   1.941   2.530
 7968TIP3   OH223846   6.749   4.826   3.244
 7968TIP3    H123847   6.752   4.824   3.339
 7968TIP3    H223848   6.656   4.810   3.223
 7969TIP3   OH223849   7.564   0.751   1.619
 7969TIP3    H123850   7.582   0.668   1.663
 7969TIP3    H223851   7.575   0.818   1.687
 7970TIP3   OH223852   0.562   4.317   1.166
 7970TIP3    H123853   0.583   4.387   1.228
 7970TIP3    H223854   0.645   4.270   1.154
 7971TIP3   OH223855   6.762   6.422   5.327
 7971TIP3    H123856   6.683   6.375   5.355
 7971TIP3    H223857   6.802   6.451   5.409
 7972TIP3   OH223858   5.120   0.977   5.502
 7972TIP3    H123859   5.031   1.005   5.525
 7972TIP3    H223860   5.168   1.059   5.490
 7973TIP3   OH223861   6.694   4.578   6.728
 7973TIP3    H123862   6.741   4.495   6.733
 7973TIP3    H223863   6.759   4.642   6.700
 7974TIP3   OH223864   2.695   5.152   0.080
 7974TIP3    H123865   2.620   5.152   0.021
 7974TIP3    H223866   2.739   5.069   0.063
 7975TIP3   OH223867   5.901   7.042   0.098
 7975TIP3    H123868   5.852   7.060   0.017
 7975TIP3    H223869   5.989   7.074   0.080
 7976TIP3   OH223870   1.858   0.769   3.370
 7976TIP3    H123871   1.842   0.687   3.417
 7976TIP3    H223872   1.802   0.833   3.414
 7977TIP3   OH223873   6.256   4.330   5.088
 7977TIP3    H123874   6.209   4.298   5.165
 7977TIP3    H223875   6.261   4.424   5.099
 7978TIP3   OH223876   6.058   7.687   2.644
 7978TIP3    H123877   6.024   7.777   2.643
 7978TIP3    H223878   6.016   7.645   2.570
 7979TIP3   OH223879   4.846   2.092   4.610
 7979TIP3    H123880   4.794   2.029   4.560
 7979TIP3    H223881   4.898   2.039   4.670
 7980TIP3   OH223882   8.234   0.907   1.990
 7980TIP3    H123883   8.164   0.899   2.053
 7980TIP3    H223884   8.253   1.001   1.986
 7981TIP3   OH223885   7.318   5.242   2.087
 7981TIP3    H123886   7.392   5.183   2.101
 7981TIP3    H223887   7.335   5.282   2.001
 7982TIP3   OH223888   0.898   0.220   4.350
 7982TIP3    H123889   0.841   0.161   4.401
 7982TIP3    H223890   0.936   0.279   4.415
 7983TIP3   OH223891   3.762   7.397   3.895
 7983TIP3    H123892   3.847   7.352   3.900
 7983TIP3    H223893   3.717   7.372   3.976
 7984TIP3   OH223894   4.211   3.992   2.426
 7984TIP3    H123895   4.263   4.022   2.501
 7984TIP3    H223896   4.276   3.961   2.363
 7985TIP3   OH223897   4.283   5.491   6.664
 7985TIP3    H123898   4.328   5.463   6.744
 7985TIP3    H223899   4.192   5.463   6.677
 7986TIP3   OH223900   5.252   5.893   3.642
 7986TIP3    H123901   5.289   5.820   3.690
 7986TIP3    H223902   5.312   5.907   3.569
 7987TIP3   OH223903   4.050   4.892   1.039
 7987TIP3    H123904   4.119   4.931   1.093
 7987TIP3    H223905   4.096   4.836   0.977
 7988TIP3   OH223906   6.737   1.748   3.791
 7988TIP3    H123907   6.719   1.810   3.720
 7988TIP3    H223908   6.745   1.663   3.748
 7989TIP3   OH223909   8.020   1.963   0.182
 7989TIP3    H123910   7.960   1.993   0.114
 7989TIP3    H223911   8.103   2.008   0.163
 7990TIP3   OH223912   2.736   3.248   2.122
 7990TIP3    H123913   2.831   3.259   2.121
 7990TIP3    H223914   2.706   3.304   2.193
 7991TIP3   OH223915   7.879   4.591   0.125
 7991TIP3    H123916   7.943   4.521   0.109
 7991TIP3    H223917   7.927   4.672   0.107
 7992TIP3   OH223918   5.699   6.114   2.549
 7992TIP3    H123919   5.779   6.116   2.496
 7992TIP3    H223920   5.628   6.109   2.485
 7993TIP3   OH223921   2.158   0.543   0.146
 7993TIP3    H123922   2.119   0.546   0.233
 7993TIP3    H223923   2.085   0.552   0.086
 7994TIP3   OH223924   0.663   3.176   4.278
 7994TIP3    H123925   0.654   3.097   4.331
 7994TIP3    H223926   0.627   3.246   4.332
 7995TIP3   OH223927   5.203   1.850   2.302
 7995TIP3    H123928   5.115   1.837   2.267
 7995TIP3    H223929   5.242   1.762   2.302
 7996TIP3   OH223930   5.038   0.792   5.307
 7996TIP3    H123931   5.114   0.745   5.274
 7996TIP3    H223932   5.074   0.857   5.367
 7997TIP3   OH223933   1.648   5.490   1.804
 7997TIP3    H123934   1.687   5.469   1.719
 7997TIP3    H223935   1.616   5.406   1.837
 7998TIP3   OH223936   2.219   6.486   1.984
 7998TIP3    H123937   2.133   6.500   2.023
 7998TIP3    H223938   2.207   6.411   1.925
 7999TIP3   OH223939   5.156   3.355   6.374
 7999TIP3    H123940   5.111   3.413   6.435
 7999TIP3    H223941   5.202   3.415   6.314
 8000TIP3   OH223942   1.777   7.171   5.438
 8000TIP3    H123943   1.859   7.162   5.487
 8000TIP3    H223944   1.787   7.111   5.364
 8001TIP3   OH223945   3.022   7.284   1.850
 8001TIP3    H123946   2.929   7.299   1.832
 8001TIP3    H223947   3.024   7.247   1.939
 8002TIP3   OH223948   6.692   1.177   0.118
 8002TIP3    H123949   6.785   1.168   0.099
 8002TIP3    H223950   6.650   1.182   0.032
 8003TIP3   OH223951   4.933   5.368   5.337
 8003TIP3    H123952   4.857   5.340   5.286
 8003TIP3    H223953   4.980   5.427   5.279
 8004TIP3   OH223954   1.824   4.952   2.826
 8004TIP3    H123955   1.857   4.879   2.774
 8004TIP3    H223956   1.730   4.954   2.808
 8005TIP3   OH223957   5.799   6.319   5.816
 8005TIP3    H123958   5.709   6.346   5.835
 8005TIP3    H223959   5.839   6.307   5.902
 8006TIP3   OH223960   0.099   0.967   0.543
 8006TIP3    H123961   0.013   1.010   0.549
 8006TIP3    H223962   0.146   1.017   0.477
 8007TIP3   OH223963   7.487   4.391   3.937
 8007TIP3    H123964   7.522   4.324   3.995
 8007TIP3    H223965   7.546   4.392   3.861
 8008TIP3   OH223966   3.223   0.635   2.877
 8008TIP3    H123967   3.172   0.580   2.818
 8008TIP3    H223968   3.314   0.615   2.856
 8009TIP3   OH223969   3.744   5.820   1.033
 8009TIP3    H123970   3.715   5.766   1.107
 8009TIP3    H223971   3.776   5.900   1.073
 8010TIP3   OH223972   6.551   0.529   3.937
 8010TIP3    H123973   6.591   0.517   4.023
 8010TIP3    H223974   6.588   0.459   3.883
 8011TIP3   OH223975   4.218   6.298   1.342
 8011TIP3    H123976   4.263   6.246   1.276
 8011TIP3    H223977   4.269   6.285   1.422
 8012TIP3   OH223978   5.903   6.387   6.095
 8012TIP3    H123979   5.908   6.482   6.083
 8012TIP3    H223980   5.962   6.369   6.169
 8013TIP3   OH223981   8.265   7.224   4.654
 8013TIP3    H123982   8.208   7.209   4.730
 8013TIP3    H223983   8.210   7.202   4.579
 8014TIP3   OH223984   6.709   4.804   5.147
 8014TIP3    H123985   6.765   4.870   5.188
 8014TIP3    H223986   6.627   4.808   5.196
 8015TIP3   OH223987   3.145   7.811   2.831
 8015TIP3    H123988   3.219   7.752   2.818
 8015TIP3    H223989   3.167   7.888   2.777
 8016TIP3   OH223990   4.536   1.448   1.769
 8016TIP3    H123991   4.453   1.462   1.814
 8016TIP3    H223992   4.601   1.490   1.825
 8017TIP3   OH223993   5.120   7.793   0.503
 8017TIP3    H123994   5.099   7.713   0.455
 8017TIP3    H223995   5.140   7.857   0.435
 8018TIP3   OH223996   5.768   2.121   3.733
 8018TIP3    H123997   5.755   2.045   3.789
 8018TIP3    H223998   5.804   2.085   3.651
 8019TIP3   OH223999   2.733   7.536   4.447
 8019TIP3    H124000   2.809   7.577   4.488
 8019TIP3    H224001   2.707   7.467   4.508
 8020TIP3   OH224002   7.291   3.703   3.847
 8020TIP3    H124003   7.337   3.619   3.855
 8020TIP3    H224004   7.350   3.757   3.794
 8021TIP3   OH224005   1.223   6.279   0.677
 8021TIP3    H124006   1.218   6.353   0.738
 8021TIP3    H224007   1.265   6.316   0.599
 8022TIP3   OH224008   7.421   2.831   3.663
 8022TIP3    H124009   7.390   2.907   3.614
 8022TIP3    H224010   7.354   2.815   3.729
 8023TIP3   OH224011   5.960   0.561   4.300
 8023TIP3    H124012   5.936   0.468   4.305
 8023TIP3    H224013   5.882   0.604   4.266
 8024TIP3   OH224014   2.305   7.204   1.300
 8024TIP3    H124015   2.315   7.298   1.287
 8024TIP3    H224016   2.346   7.165   1.223
 8025TIP3   OH224017   5.643   3.169   4.202
 8025TIP3    H124018   5.555   3.132   4.201
 8025TIP3    H224019   5.659   3.193   4.111
 8026TIP3   OH224020   1.967   6.725   4.142
 8026TIP3    H124021   2.009   6.672   4.209
 8026TIP3    H224022   1.929   6.662   4.081
 8027TIP3   OH224023   3.602   2.268   4.213
 8027TIP3    H124024   3.552   2.324   4.154
 8027TIP3    H224025   3.617   2.187   4.164
 8028TIP3   OH224026   3.481   3.435   4.906
 8028TIP3    H124027   3.491   3.350   4.949
 8028TIP3    H224028   3.428   3.416   4.828
 8029TIP3   OH224029   1.636   5.664   2.576
 8029TIP3    H124030   1.540   5.663   2.579
 8029TIP3    H224031   1.657   5.739   2.521
 8030TIP3   OH224032   7.467   6.368   0.279
 8030TIP3    H124033   7.401   6.436   0.287
 8030TIP3    H224034   7.433   6.294   0.329
 8031TIP3   OH224035   8.186   1.641   2.830
 8031TIP3    H124036   8.130   1.665   2.756
 8031TIP3    H224037   8.272   1.676   2.808
 8032TIP3   OH224038   0.612   5.120   5.815
 8032TIP3    H124039   0.564   5.052   5.862
 8032TIP3    H224040   0.614   5.089   5.724
 8033TIP3   OH224041   2.470   6.650   0.890
 8033TIP3    H124042   2.425   6.706   0.826
 8033TIP3    H224043   2.516   6.585   0.836
 8034TIP3   OH224044   6.597   6.226   6.707
 8034TIP3    H124045   6.661   6.296   6.718
 8034TIP3    H224046   6.599   6.179   6.791
 8035TIP3   OH224047   7.823   4.728   5.433
 8035TIP3    H124048   7.863   4.773   5.507
 8035TIP3    H224049   7.755   4.788   5.403
 8036TIP3   OH224050   4.437   1.114   1.444
 8036TIP3    H124051   4.398   1.029   1.425
 8036TIP3    H224052   4.375   1.156   1.504
 8037TIP3   OH224053   4.142   2.276   5.124
 8037TIP3    H124054   4.236   2.270   5.139
 8037TIP3    H224055   4.110   2.186   5.133
 8038TIP3   OH224056   0.187   5.393   0.755
 8038TIP3    H124057   0.177   5.335   0.831
 8038TIP3    H224058   0.133   5.354   0.687
 8039TIP3   OH224059   2.355   5.528   1.745
 8039TIP3    H124060   2.430   5.515   1.688
 8039TIP3    H224061   2.384   5.495   1.831
 8040TIP3   OH224062   4.604   4.278   0.880
 8040TIP3    H124063   4.692   4.274   0.844
 8040TIP3    H224064   4.550   4.312   0.809
 8041TIP3   OH224065   0.580   1.142   2.648
 8041TIP3    H124066   0.502   1.173   2.600
 8041TIP3    H224067   0.559   1.051   2.671
 8042TIP3   OH224068   4.568   3.481   2.169
 8042TIP3    H124069   4.594   3.538   2.096
 8042TIP3    H224070   4.603   3.524   2.247
 8043TIP3   OH224071   4.729   4.637   3.913
 8043TIP3    H124072   4.766   4.709   3.965
 8043TIP3    H224073   4.648   4.672   3.876
 8044TIP3   OH224074   1.623   0.528   3.172
 8044TIP3    H124075   1.641   0.477   3.251
 8044TIP3    H224076   1.533   0.559   3.183
 8045TIP3   OH224077   1.227   1.400   6.292
 8045TIP3    H124078   1.219   1.311   6.327
 8045TIP3    H224079   1.189   1.456   6.359
 8046TIP3   OH224080   4.555   4.202   4.980
 8046TIP3    H124081   4.498   4.233   5.051
 8046TIP3    H224082   4.513   4.233   4.900
 8047TIP3   OH224083   0.168   0.468   4.998
 8047TIP3    H124084   0.224   0.439   5.070
 8047TIP3    H224085   0.181   0.404   4.929
 8048TIP3   OH224086   7.664   5.235   2.032
 8048TIP3    H124087   7.603   5.162   2.026
 8048TIP3    H224088   7.692   5.250   1.941
 8049TIP3   OH224089   1.933   1.953   6.122
 8049TIP3    H124090   1.867   2.018   6.144
 8049TIP3    H224091   1.973   1.931   6.207
 8050TIP3   OH224092   3.578   5.584   0.584
 8050TIP3    H124093   3.571   5.522   0.657
 8050TIP3    H224094   3.660   5.559   0.539
 8051TIP3   OH224095   5.590   1.803   2.753
 8051TIP3    H124096   5.632   1.879   2.793
 8051TIP3    H224097   5.632   1.796   2.667
 8052TIP3   OH224098   0.162   2.574   5.596
 8052TIP3    H124099   0.137   2.525   5.675
 8052TIP3    H224100   0.250   2.606   5.615
 8053TIP3   OH224101   7.215   2.384   4.218
 8053TIP3    H124102   7.299   2.410   4.257
 8053TIP3    H224103   7.220   2.288   4.213
 8054TIP3   OH224104   1.712   1.330   0.465
 8054TIP3    H124105   1.751   1.253   0.425
 8054TIP3    H224106   1.781   1.397   0.462
 8055TIP3   OH224107   5.947   6.884   4.878
 8055TIP3    H124108   5.940   6.809   4.938
 8055TIP3    H224109   6.022   6.933   4.910
 8056TIP3   OH224110   6.054   0.253   5.151
 8056TIP3    H124111   6.020   0.208   5.074
 8056TIP3    H224112   6.067   0.184   5.216
 8057TIP3   OH224113   1.950   3.107   5.900
 8057TIP3    H124114   1.926   3.116   5.808
 8057TIP3    H224115   1.998   3.188   5.920
 8058TIP3   OH224116   3.707   0.083   2.954
 8058TIP3    H124117   3.655   0.031   2.892
 8058TIP3    H224118   3.649   0.097   3.029
 8059TIP3   OH224119   4.829   4.859   4.074
 8059TIP3    H124120   4.901   4.881   4.014
 8059TIP3    H224121   4.844   4.916   4.150
 8060TIP3   OH224122   7.116   2.648   0.694
 8060TIP3    H124123   7.155   2.670   0.778
 8060TIP3    H224124   7.078   2.730   0.663
 8061TIP3   OH224125   0.586   6.665   5.612
 8061TIP3    H124126   0.565   6.587   5.561
 8061TIP3    H224127   0.679   6.680   5.597
 8062TIP3   OH224128   5.399   1.722   6.550
 8062TIP3    H124129   5.424   1.811   6.526
 8062TIP3    H224130   5.351   1.732   6.632
 8063TIP3   OH224131   5.973   7.664   5.697
 8063TIP3    H124132   5.966   7.631   5.607
 8063TIP3    H224133   6.061   7.639   5.724
 8064TIP3   OH224134   0.878   6.481   0.621
 8064TIP3    H124135   0.805   6.510   0.565
 8064TIP3    H224136   0.940   6.442   0.560
 8065TIP3   OH224137   7.309   3.314   2.412
 8065TIP3    H124138   7.293   3.408   2.412
 8065TIP3    H224139   7.375   3.301   2.344
 8066TIP3   OH224140   5.457   3.794   2.624
 8066TIP3    H124141   5.449   3.881   2.585
 8066TIP3    H224142   5.423   3.805   2.713
 8067TIP3   OH224143   3.943   2.333   0.738
 8067TIP3    H124144   3.865   2.343   0.682
 8067TIP3    H224145   3.953   2.239   0.750
 8068TIP3   OH224146   1.371   1.411   0.294
 8068TIP3    H124147   1.454   1.448   0.265
 8068TIP3    H224148   1.314   1.414   0.217
 8069TIP3   OH224149   6.644   7.289   2.975
 8069TIP3    H124150   6.736   7.290   3.000
 8069TIP3    H224151   6.626   7.197   2.953
 8070TIP3   OH224152   4.700   1.369   6.409
 8070TIP3    H124153   4.653   1.432   6.464
 8070TIP3    H224154   4.773   1.419   6.373
 8071TIP3   OH224155   0.521   1.597   1.630
 8071TIP3    H124156   0.453   1.595   1.697
 8071TIP3    H224157   0.597   1.637   1.674
 8072TIP3   OH224158   4.765   5.581   0.975
 8072TIP3    H124159   4.758   5.582   1.070
 8072TIP3    H224160   4.847   5.626   0.955
 8073TIP3   OH224161   2.228   1.006   5.271
 8073TIP3    H124162   2.168   1.052   5.212
 8073TIP3    H224163   2.223   1.055   5.353
 8074TIP3   OH224164   1.994   6.900   5.506
 8074TIP3    H124165   2.088   6.889   5.524
 8074TIP3    H224166   1.976   6.991   5.529
 8075TIP3   OH224167   4.642   4.382   6.226
 8075TIP3    H124168   4.595   4.301   6.209
 8075TIP3    H224169   4.595   4.422   6.299
 8076TIP3   OH224170   1.674   5.720   5.102
 8076TIP3    H124171   1.580   5.726   5.086
 8076TIP3    H224172   1.714   5.742   5.017
 8077TIP3   OH224173   2.333   1.383   5.530
 8077TIP3    H124174   2.367   1.419   5.448
 8077TIP3    H224175   2.314   1.460   5.584
 8078TIP3   OH224176   2.247   7.829   2.491
 8078TIP3    H124177   2.219   7.779   2.415
 8078TIP3    H224178   2.330   7.868   2.465
 8079TIP3   OH224179   2.863   0.518   0.514
 8079TIP3    H124180   2.840   0.610   0.518
 8079TIP3    H224181   2.834   0.489   0.428
 8080TIP3   OH224182   0.024   3.020   6.538
 8080TIP3    H124183  -0.061   3.003   6.578
 8080TIP3    H224184   0.084   3.028   6.612
 8081TIP3   OH224185   6.119   3.749   5.276
 8081TIP3    H124186   6.093   3.814   5.211
 8081TIP3    H224187   6.079   3.778   5.358
 8082TIP3   OH224188   8.000   3.369   1.116
 8082TIP3    H124189   7.956   3.292   1.153
 8082TIP3    H224190   8.066   3.333   1.057
 8083TIP3   OH224191   1.248   6.872   1.085
 8083TIP3    H124192   1.190   6.948   1.080
 8083TIP3    H224193   1.262   6.847   0.994
 8084TIP3   OH224194   1.424   7.159   1.074
 8084TIP3    H124195   1.499   7.174   1.133
 8084TIP3    H224196   1.441   7.072   1.037
 8085TIP3   OH224197   3.685   3.922   4.750
 8085TIP3    H124198   3.678   3.869   4.670
 8085TIP3    H224199   3.715   3.861   4.817
 8086TIP3   OH224200   0.041   7.602   5.655
 8086TIP3    H124201   0.113   7.664   5.670
 8086TIP3    H224202   0.081   7.528   5.611
 8087TIP3   OH224203   1.991   3.087   3.742
 8087TIP3    H124204   1.916   3.098   3.801
 8087TIP3    H224205   2.064   3.068   3.801
 8088TIP3   OH224206   5.030   5.537   2.584
 8088TIP3    H124207   5.072   5.557   2.500
 8088TIP3    H224208   4.966   5.469   2.562
 8089TIP3   OH224209   5.161   4.949   0.657
 8089TIP3    H124210   5.215   5.027   0.642
 8089TIP3    H224211   5.121   4.931   0.571
 8090TIP3   OH224212   1.598   5.068   0.624
 8090TIP3    H124213   1.600   5.161   0.604
 8090TIP3    H224214   1.635   5.026   0.545
 8091TIP3   OH224215   6.305   4.687   1.968
 8091TIP3    H124216   6.362   4.629   1.918
 8091TIP3    H224217   6.275   4.752   1.904
 8092TIP3   OH224218   1.401   0.782   6.779
 8092TIP3    H124219   1.456   0.706   6.759
 8092TIP3    H224220   1.394   0.829   6.696
 8093TIP3   OH224221   4.903   2.274   1.613
 8093TIP3    H124222   4.818   2.277   1.569
 8093TIP3    H224223   4.925   2.181   1.614
 8094TIP3   OH224224   0.876   0.450   3.731
 8094TIP3    H124225   0.945   0.420   3.791
 8094TIP3    H224226   0.867   0.543   3.750
 8095TIP3   OH224227   4.928   2.842   0.469
 8095TIP3    H124228   4.965   2.797   0.393
 8095TIP3    H224229   4.943   2.782   0.542
 8096TIP3   OH224230   0.427   7.061   2.937
 8096TIP3    H124231   0.520   7.037   2.942
 8096TIP3    H224232   0.425   7.130   2.871
 8097TIP3   OH224233   1.893   0.243   4.966
 8097TIP3    H124234   1.951   0.167   4.978
 8097TIP3    H224235   1.820   0.210   4.915
 8098TIP3   OH224236   2.791   3.464   6.178
 8098TIP3    H124237   2.710   3.444   6.132
 8098TIP3    H224238   2.809   3.386   6.230
 8099TIP3   OH224239   5.860   2.300   0.956
 8099TIP3    H124240   5.833   2.303   0.864
 8099TIP3    H224241   5.829   2.215   0.987
 8100TIP3   OH224242   7.357   0.581   2.646
 8100TIP3    H124243   7.266   0.607   2.656
 8100TIP3    H224244   7.372   0.580   2.552
 8101TIP3   OH224245   0.658   1.995   5.838
 8101TIP3    H124246   0.595   2.061   5.866
 8101TIP3    H224247   0.673   1.942   5.916
 8102TIP3   OH224248   8.085   3.363   4.968
 8102TIP3    H124249   8.170   3.321   4.955
 8102TIP3    H224250   8.096   3.452   4.934
 8103TIP3   OH224251   2.158   1.940   2.925
 8103TIP3    H124252   2.113   1.926   2.842
 8103TIP3    H224253   2.088   1.963   2.986
 8104TIP3   OH224254   7.462   4.036   5.255
 8104TIP3    H124255   7.499   4.116   5.218
 8104TIP3    H224256   7.521   3.967   5.225
 8105TIP3   OH224257   3.589   3.450   2.368
 8105TIP3    H124258   3.518   3.509   2.393
 8105TIP3    H224259   3.545   3.371   2.336
 8106TIP3   OH224260   5.557   7.785   3.172
 8106TIP3    H124261   5.563   7.695   3.140
 8106TIP3    H224262   5.575   7.839   3.095
 8107TIP3   OH224263   7.332   6.153   2.461
 8107TIP3    H124264   7.346   6.115   2.548
 8107TIP3    H224265   7.239   6.137   2.443
 8108TIP3   OH224266   3.327   1.479   1.416
 8108TIP3    H124267   3.370   1.476   1.501
 8108TIP3    H224268   3.354   1.563   1.379
 8109TIP3   OH224269   8.104   7.755   4.206
 8109TIP3    H124270   8.094   7.850   4.201
 8109TIP3    H224271   8.110   7.737   4.299
 8110TIP3   OH224272   5.964   5.100   6.723
 8110TIP3    H124273   6.048   5.141   6.745
 8110TIP3    H224274   5.931   5.152   6.650
 8111TIP3   OH224275   5.734   1.129   6.007
 8111TIP3    H124276   5.780   1.121   5.923
 8111TIP3    H224277   5.797   1.172   6.065
 8112TIP3   OH224278   6.654   0.370   3.523
 8112TIP3    H124279   6.558   0.364   3.516
 8112TIP3    H224280   6.684   0.279   3.515
 8113TIP3   OH224281   6.197   5.397   4.152
 8113TIP3    H124282   6.290   5.375   4.145
 8113TIP3    H224283   6.189   5.482   4.108
 8114TIP3   OH224284   5.795   2.675   2.409
 8114TIP3    H124285   5.732   2.736   2.371
 8114TIP3    H224286   5.754   2.589   2.399
 8115TIP3   OH224287   1.456   3.112   5.032
 8115TIP3    H124288   1.400   3.039   5.004
 8115TIP3    H224289   1.470   3.096   5.126
 8116TIP3   OH224290   5.290   6.290   6.525
 8116TIP3    H124291   5.353   6.263   6.591
 8116TIP3    H224292   5.300   6.227   6.454
 8117TIP3   OH224293   7.580   2.931   0.426
 8117TIP3    H124294   7.552   2.939   0.518
 8117TIP3    H224295   7.499   2.942   0.376
 8118TIP3   OH224296   3.754   6.473   4.281
 8118TIP3    H124297   3.778   6.449   4.370
 8118TIP3    H224298   3.675   6.421   4.262
 8119TIP3   OH224299   7.361   6.128   4.481
 8119TIP3    H124300   7.359   6.059   4.548
 8119TIP3    H224301   7.279   6.117   4.433
 8120TIP3   OH224302   1.297   2.354   3.854
 8120TIP3    H124303   1.258   2.396   3.931
 8120TIP3    H224304   1.353   2.421   3.816
 8121TIP3   OH224305   7.433   1.375   5.225
 8121TIP3    H124306   7.489   1.339   5.293
 8121TIP3    H224307   7.353   1.402   5.271
 8122TIP3   OH224308   6.549   6.817   0.178
 8122TIP3    H124309   6.593   6.795   0.096
 8122TIP3    H224310   6.457   6.798   0.162
 8123TIP3   OH224311   0.555   6.568   2.040
 8123TIP3    H124312   0.645   6.545   2.060
 8123TIP3    H224313   0.561   6.652   1.993
 8124TIP3   OH224314   6.037   5.267   6.302
 8124TIP3    H124315   6.027   5.172   6.295
 8124TIP3    H224316   6.100   5.289   6.233
 8125TIP3   OH224317   0.449   1.930   6.599
 8125TIP3    H124318   0.465   1.959   6.510
 8125TIP3    H224319   0.505   1.985   6.653
 8126TIP3   OH224320   1.067   1.515   4.165
 8126TIP3    H124321   1.101   1.604   4.152
 8126TIP3    H224322   1.108   1.485   4.246
 8127TIP3   OH224323   3.885   0.786   3.175
 8127TIP3    H124324   3.806   0.766   3.225
 8127TIP3    H224325   3.930   0.853   3.226
 8128TIP3   OH224326   0.747   2.393   4.368
 8128TIP3    H124327   0.810   2.425   4.433
 8128TIP3    H224328   0.734   2.467   4.309
 8129TIP3   OH224329   7.344   4.983   3.323
 8129TIP3    H124330   7.415   4.919   3.328
 8129TIP3    H224331   7.269   4.940   3.364
 8130TIP3   OH224332   4.003   1.040   0.859
 8130TIP3    H124333   3.921   1.028   0.812
 8130TIP3    H224334   4.031   0.951   0.882
 8131TIP3   OH224335   7.121   1.778   0.033
 8131TIP3    H124336   7.116   1.805   0.124
 8131TIP3    H224337   7.139   1.859  -0.015
 8132TIP3   OH224338   5.164   7.670   6.603
 8132TIP3    H124339   5.243   7.627   6.634
 8132TIP3    H224340   5.151   7.743   6.664
 8133TIP3   OH224341   2.426   4.088   1.430
 8133TIP3    H124342   2.354   4.054   1.377
 8133TIP3    H224343   2.422   4.039   1.512
 8134TIP3   OH224344   2.750   2.009   5.865
 8134TIP3    H124345   2.690   2.017   5.790
 8134TIP3    H224346   2.836   2.034   5.830
 8135TIP3   OH224347   4.154   1.887   0.524
 8135TIP3    H124348   4.206   1.966   0.533
 8135TIP3    H224349   4.202   1.833   0.461
 8136TIP3   OH224350   3.808   2.214   5.374
 8136TIP3    H124351   3.828   2.291   5.428
 8136TIP3    H224352   3.780   2.147   5.436
 8137TIP3   OH224353   5.631   0.537   4.811
 8137TIP3    H124354   5.649   0.450   4.847
 8137TIP3    H224355   5.674   0.598   4.871
 8138TIP3   OH224356   1.670   4.089   4.935
 8138TIP3    H124357   1.730   4.019   4.960
 8138TIP3    H224358   1.720   4.170   4.945
 8139TIP3   OH224359   5.855   7.741   3.340
 8139TIP3    H124360   5.816   7.689   3.270
 8139TIP3    H224361   5.948   7.746   3.317
 8140TIP3   OH224362  -0.013   6.844   3.523
 8140TIP3    H124363  -0.018   6.752   3.498
 8140TIP3    H224364   0.032   6.886   3.450
 8141TIP3   OH224365   3.280   1.755   1.316
 8141TIP3    H124366   3.375   1.753   1.322
 8141TIP3    H224367   3.250   1.767   1.407
 8142TIP3   OH224368   4.411   2.234   4.285
 8142TIP3    H124369   4.342   2.175   4.313
 8142TIP3    H224370   4.366   2.311   4.251
 8143TIP3   OH224371   3.856   4.317   2.351
 8143TIP3    H124372   3.876   4.405   2.382
 8143TIP3    H224373   3.869   4.261   2.428
 8144TIP3   OH224374   5.657   6.723   3.167
 8144TIP3    H124375   5.624   6.668   3.096
 8144TIP3    H224376   5.585   6.727   3.230
 8145TIP3   OH224377   6.572   5.550   1.620
 8145TIP3    H124378   6.612   5.499   1.691
 8145TIP3    H224379   6.501   5.495   1.589
 8146TIP3   OH224380   3.762   4.914   5.859
 8146TIP3    H124381   3.848   4.881   5.832
 8146TIP3    H224382   3.702   4.841   5.843
 8147TIP3   OH224383   3.432   7.646   1.751
 8147TIP3    H124384   3.347   7.674   1.717
 8147TIP3    H224385   3.444   7.558   1.716
 8148TIP3   OH224386   7.731   7.157   2.709
 8148TIP3    H124387   7.696   7.091   2.769
 8148TIP3    H224388   7.816   7.180   2.746
 8149TIP3   OH224389   0.681   5.015   1.023
 8149TIP3    H124390   0.775   5.017   1.008
 8149TIP3    H224391   0.646   5.087   0.971
 8150TIP3   OH224392   0.336   4.192   6.123
 8150TIP3    H124393   0.427   4.161   6.130
 8150TIP3    H224394   0.303   4.192   6.212
 8151TIP3   OH224395   4.597   1.106   2.143
 8151TIP3    H124396   4.555   1.180   2.098
 8151TIP3    H224397   4.672   1.085   2.088
 8152TIP3   OH224398   7.799   1.166   5.283
 8152TIP3    H124399   7.788   1.216   5.202
 8152TIP3    H224400   7.892   1.176   5.304
 8153TIP3   OH224401   0.635   6.721   6.073
 8153TIP3    H124402   0.591   6.640   6.049
 8153TIP3    H224403   0.565   6.787   6.075
 8154TIP3   OH224404   7.144   4.816   5.911
 8154TIP3    H124405   7.074   4.879   5.891
 8154TIP3    H224406   7.191   4.805   5.828
 8155TIP3   OH224407   4.993   4.491   5.215
 8155TIP3    H124408   4.909   4.451   5.189
 8155TIP3    H224409   5.036   4.510   5.132
 8156TIP3   OH224410   1.312   7.153   3.668
 8156TIP3    H124411   1.382   7.091   3.687
 8156TIP3    H224412   1.238   7.125   3.722
 8157TIP3   OH224413   5.046   1.470   1.098
 8157TIP3    H124414   4.978   1.435   1.155
 8157TIP3    H224415   5.073   1.396   1.043
 8158TIP3   OH224416   7.667   2.741   0.194
 8158TIP3    H124417   7.612   2.767   0.268
 8158TIP3    H224418   7.753   2.780   0.214
 8159TIP3   OH224419   2.673   4.184   3.727
 8159TIP3    H124420   2.614   4.115   3.697
 8159TIP3    H224421   2.757   4.141   3.740
 8160TIP3   OH224422   4.390   6.872   1.702
 8160TIP3    H124423   4.384   6.916   1.618
 8160TIP3    H224424   4.468   6.816   1.695
 8161TIP3   OH224425   7.239   6.151   0.679
 8161TIP3    H124426   7.226   6.181   0.589
 8161TIP3    H224427   7.333   6.155   0.692
 8162TIP3   OH224428   4.567   0.756   2.410
 8162TIP3    H124429   4.602   0.681   2.458
 8162TIP3    H224430   4.477   0.730   2.389
 8163TIP3   OH224431   6.917   6.565   2.099
 8163TIP3    H124432   6.925   6.657   2.122
 8163TIP3    H224433   6.960   6.518   2.171
 8164TIP3   OH224434   6.434   4.517   4.459
 8164TIP3    H124435   6.398   4.445   4.408
 8164TIP3    H224436   6.461   4.582   4.394
 8165TIP3   OH224437   1.376   4.654   6.140
 8165TIP3    H124438   1.465   4.671   6.109
 8165TIP3    H224439   1.331   4.738   6.133
 8166TIP3   OH224440   4.995   3.234   4.771
 8166TIP3    H124441   4.907   3.198   4.769
 8166TIP3    H224442   5.017   3.247   4.678
 8167TIP3   OH224443   3.766   7.241   5.977
 8167TIP3    H124444   3.760   7.203   5.889
 8167TIP3    H224445   3.860   7.258   5.989
 8168TIP3   OH224446   7.569   0.079   1.390
 8168TIP3    H124447   7.488   0.124   1.365
 8168TIP3    H224448   7.545  -0.013   1.395
 8169TIP3   OH224449   0.255   2.986   4.416
 8169TIP3    H124450   0.177   2.938   4.389
 8169TIP3    H224451   0.325   2.920   4.416
 8170TIP3   OH224452   0.171   0.842   2.662
 8170TIP3    H124453   0.143   0.756   2.629
 8170TIP3    H224454   0.115   0.904   2.614
 8171TIP3   OH224455   7.344   2.383   0.131
 8171TIP3    H124456   7.394   2.331   0.193
 8171TIP3    H224457   7.358   2.473   0.158
 8172TIP3   OH224458   7.858   6.322   5.491
 8172TIP3    H124459   7.945   6.305   5.529
 8172TIP3    H224460   7.877   6.367   5.409
 8173TIP3   OH224461   1.130   5.368   4.917
 8173TIP3    H124462   1.166   5.423   4.847
 8173TIP3    H224463   1.195   5.374   4.987
 8174TIP3   OH224464   6.927   7.234   4.220
 8174TIP3    H124465   6.836   7.231   4.188
 8174TIP3    H224466   6.952   7.325   4.212
 8175TIP3   OH224467   7.469   3.437   5.254
 8175TIP3    H124468   7.407   3.505   5.229
 8175TIP3    H224469   7.551   3.463   5.211
 8176TIP3   OH224470   4.982   1.386   6.609
 8176TIP3    H124471   5.045   1.453   6.582
 8176TIP3    H224472   5.025   1.303   6.587
 8177TIP3   OH224473   2.418   5.092   3.235
 8177TIP3    H124474   2.378   5.085   3.148
 8177TIP3    H224475   2.403   5.183   3.261
 8178TIP3   OH224476   0.305   2.403   2.066
 8178TIP3    H124477   0.235   2.398   2.131
 8178TIP3    H224478   0.260   2.389   1.982
 8179TIP3   OH224479   7.926   5.079   4.171
 8179TIP3    H124480   7.864   5.013   4.138
 8179TIP3    H224481   7.908   5.157   4.120
 8180TIP3   OH224482   7.221   1.029   6.340
 8180TIP3    H124483   7.147   1.090   6.334
 8180TIP3    H224484   7.184   0.950   6.380
 8181TIP3   OH224485   4.476   4.764   1.440
 8181TIP3    H124486   4.464   4.811   1.523
 8181TIP3    H224487   4.399   4.708   1.433
 8182TIP3   OH224488   6.813   5.334   6.315
 8182TIP3    H124489   6.793   5.247   6.281
 8182TIP3    H224490   6.908   5.338   6.317
 8183TIP3   OH224491   1.054   6.192   2.882
 8183TIP3    H124492   1.142   6.163   2.905
 8183TIP3    H224493   1.066   6.252   2.809
 8184TIP3   OH224494   4.119   4.893   5.082
 8184TIP3    H124495   4.208   4.905   5.048
 8184TIP3    H224496   4.125   4.919   5.174
 8185TIP3   OH224497   5.750   2.837   5.626
 8185TIP3    H124498   5.659   2.853   5.600
 8185TIP3    H224499   5.800   2.846   5.544
 8186TIP3   OH224500   2.151   4.731   1.296
 8186TIP3    H124501   2.106   4.764   1.374
 8186TIP3    H224502   2.146   4.803   1.233
 8187TIP3   OH224503   6.444   3.112   0.243
 8187TIP3    H124504   6.459   3.084   0.333
 8187TIP3    H224505   6.443   3.207   0.247
 8188TIP3   OH224506   2.701   4.857   4.400
 8188TIP3    H124507   2.686   4.942   4.443
 8188TIP3    H224508   2.748   4.879   4.320
 8189TIP3   OH224509   1.294   4.617   1.612
 8189TIP3    H124510   1.262   4.703   1.584
 8189TIP3    H224511   1.240   4.594   1.687
 8190TIP3   OH224512   7.410   3.848   6.258
 8190TIP3    H124513   7.450   3.919   6.308
 8190TIP3    H224514   7.477   3.820   6.196
 8191TIP3   OH224515   4.788   0.916   5.946
 8191TIP3    H124516   4.741   0.932   5.864
 8191TIP3    H224517   4.808   0.822   5.944
 8192TIP3   OH224518   5.452   0.732   5.129
 8192TIP3    H124519   5.548   0.724   5.125
 8192TIP3    H224520   5.437   0.825   5.143
 8193TIP3   OH224521   8.143   2.784   1.541
 8193TIP3    H124522   8.117   2.871   1.569
 8193TIP3    H224523   8.097   2.770   1.459
 8194TIP3   OH224524   8.184   4.942   4.023
 8194TIP3    H124525   8.124   5.015   4.036
 8194TIP3    H224526   8.200   4.909   4.111
 8195TIP3   OH224527   2.195   3.403   3.117
 8195TIP3    H124528   2.249   3.334   3.080
 8195TIP3    H224529   2.191   3.470   3.049
 8196TIP3   OH224530   1.097   1.082   5.453
 8196TIP3    H124531   1.166   1.129   5.499
 8196TIP3    H224532   1.130   0.993   5.445
 8197TIP3   OH224533   3.811   2.298   4.896
 8197TIP3    H124534   3.774   2.233   4.836
 8197TIP3    H224535   3.748   2.370   4.897
 8198TIP3   OH224536   0.749   6.199   3.468
 8198TIP3    H124537   0.732   6.172   3.558
 8198TIP3    H224538   0.735   6.119   3.416
 8199TIP3   OH224539   0.758   4.052   1.715
 8199TIP3    H124540   0.845   4.053   1.675
 8199TIP3    H224541   0.716   3.975   1.677
 8200TIP3   OH224542   6.303   1.415   3.949
 8200TIP3    H124543   6.354   1.495   3.963
 8200TIP3    H224544   6.310   1.367   4.031
 8201TIP3   OH224545   1.815   6.911   1.832
 8201TIP3    H124546   1.790   6.819   1.824
 8201TIP3    H224547   1.868   6.927   1.754
 8202TIP3   OH224548   6.580   0.753   4.914
 8202TIP3    H124549   6.551   0.823   4.856
 8202TIP3    H224550   6.596   0.679   4.855
 8203TIP3   OH224551   5.713   4.334   2.527
 8203TIP3    H124552   5.651   4.379   2.470
 8203TIP3    H224553   5.777   4.295   2.466
 8204TIP3   OH224554   2.816   5.366   4.310
 8204TIP3    H124555   2.850   5.454   4.297
 8204TIP3    H224556   2.790   5.364   4.402
 8205TIP3   OH224557   1.576   3.421   4.288
 8205TIP3    H124558   1.605   3.433   4.378
 8205TIP3    H224559   1.506   3.355   4.294
 8206TIP3   OH224560   3.761   4.297   3.216
 8206TIP3    H124561   3.755   4.327   3.307
 8206TIP3    H224562   3.851   4.317   3.191
 8207TIP3   OH224563   1.693   2.839   5.032
 8207TIP3    H124564   1.747   2.886   5.094
 8207TIP3    H224565   1.735   2.754   5.023
 8208TIP3   OH224566   2.255   4.323   1.244
 8208TIP3    H124567   2.339   4.278   1.235
 8208TIP3    H224568   2.195   4.271   1.190
 8209TIP3   OH224569   7.891   5.244   6.550
 8209TIP3    H124570   7.934   5.299   6.616
 8209TIP3    H224571   7.838   5.183   6.600
 8210TIP3   OH224572   4.557   6.299   5.656
 8210TIP3    H124573   4.573   6.382   5.701
 8210TIP3    H224574   4.628   6.292   5.592
 8211TIP3   OH224575   3.169   7.004   4.415
 8211TIP3    H124576   3.245   7.000   4.357
 8211TIP3    H224577   3.101   6.955   4.370
 8212TIP3   OH224578   2.897   2.296   6.226
 8212TIP3    H124579   2.923   2.206   6.249
 8212TIP3    H224580   2.965   2.351   6.266
 8213TIP3   OH224581   3.412   4.455   5.380
 8213TIP3    H124582   3.370   4.527   5.331
 8213TIP3    H224583   3.360   4.378   5.358
 8214TIP3   OH224584   6.346   2.251   5.323
 8214TIP3    H124585   6.310   2.289   5.243
 8214TIP3    H224586   6.338   2.156   5.310
 8215TIP3   OH224587   1.958   6.216   2.403
 8215TIP3    H124588   2.041   6.235   2.448
 8215TIP3    H224589   1.939   6.125   2.423
 8216TIP3   OH224590   3.243   0.933   3.085
 8216TIP3    H124591   3.156   0.947   3.048
 8216TIP3    H224592   3.263   1.015   3.130
 8217TIP3   OH224593   4.553   0.091   4.862
 8217TIP3    H124594   4.623   0.102   4.926
 8217TIP3    H224595   4.508   0.175   4.860
 8218TIP3   OH224596   3.021   5.233   5.818
 8218TIP3    H124597   2.996   5.192   5.736
 8218TIP3    H224598   2.944   5.284   5.844
 8219TIP3   OH224599   4.562   3.078   4.095
 8219TIP3    H124600   4.591   3.168   4.106
 8219TIP3    H224601   4.642   3.027   4.084
 8220TIP3   OH224602   7.455   1.456   6.286
 8220TIP3    H124603   7.449   1.396   6.360
 8220TIP3    H224604   7.512   1.527   6.317
 8221TIP3   OH224605   2.747   6.818   3.646
 8221TIP3    H124606   2.732   6.832   3.553
 8221TIP3    H224607   2.696   6.886   3.690
 8222TIP3   OH224608   6.928   0.056   3.527
 8222TIP3    H124609   6.976   0.132   3.561
 8222TIP3    H224610   6.965  -0.019   3.573
 8223TIP3   OH224611   4.762   5.010   5.251
 8223TIP3    H124612   4.670   5.003   5.275
 8223TIP3    H224613   4.809   5.006   5.334
 8224TIP3   OH224614   6.385   7.076   0.407
 8224TIP3    H124615   6.472   7.074   0.445
 8224TIP3    H224616   6.342   7.151   0.448
 8225TIP3   OH224617   3.064   1.400   4.615
 8225TIP3    H124618   2.999   1.347   4.661
 8225TIP3    H224619   3.072   1.359   4.529
 8226TIP3   OH224620   5.783   7.464   4.220
 8226TIP3    H124621   5.835   7.416   4.284
 8226TIP3    H224622   5.696   7.471   4.259
 8227TIP3   OH224623   5.853   5.986   3.580
 8227TIP3    H124624   5.898   6.007   3.662
 8227TIP3    H224625   5.764   6.018   3.593
 8228TIP3   OH224626   0.230   5.224   1.222
 8228TIP3    H124627   0.323   5.203   1.210
 8228TIP3    H224628   0.201   5.163   1.290
 8229TIP3   OH224629   7.713   6.326   0.610
 8229TIP3    H124630   7.776   6.361   0.674
 8229TIP3    H224631   7.725   6.381   0.532
 8230TIP3   OH224632   5.149   7.293   5.998
 8230TIP3    H124633   5.166   7.355   6.070
 8230TIP3    H224634   5.058   7.265   6.012
 8231TIP3   OH224635   8.262   7.324   3.087
 8231TIP3    H124636   8.173   7.292   3.103
 8231TIP3    H224637   8.314   7.244   3.075
 8232TIP3   OH224638   0.373   6.212   4.454
 8232TIP3    H124639   0.393   6.289   4.400
 8232TIP3    H224640   0.326   6.248   4.529
 8233TIP3   OH224641   5.764   2.473   1.853
 8233TIP3    H124642   5.747   2.482   1.759
 8233TIP3    H224643   5.783   2.562   1.882
 8234TIP3   OH224644   4.433   5.772   3.290
 8234TIP3    H124645   4.364   5.792   3.353
 8234TIP3    H224646   4.509   5.750   3.345
 8235TIP3   OH224647   0.639   2.206   0.163
 8235TIP3    H124648   0.639   2.115   0.193
 8235TIP3    H224649   0.652   2.200   0.069
 8236TIP3   OH224650   6.996   2.994   5.057
 8236TIP3    H124651   7.003   2.908   5.099
 8236TIP3    H224652   7.001   2.975   4.963
 8237TIP3   OH224653   6.474   6.651   1.646
 8237TIP3    H124654   6.525   6.592   1.701
 8237TIP3    H224655   6.425   6.593   1.588
 8238TIP3   OH224656   7.763   3.598   1.202
 8238TIP3    H124657   7.805   3.678   1.173
 8238TIP3    H224658   7.677   3.626   1.235
 8239TIP3   OH224659   5.381   0.573   4.726
 8239TIP3    H124660   5.464   0.553   4.769
 8239TIP3    H224661   5.403   0.578   4.633
 8240TIP3   OH224662   3.442   0.211   2.081
 8240TIP3    H124663   3.412   0.242   1.995
 8240TIP3    H224664   3.370   0.157   2.113
 8241TIP3   OH224665   2.576   2.282   0.999
 8241TIP3    H124666   2.487   2.250   1.016
 8241TIP3    H224667   2.613   2.218   0.937
 8242TIP3   OH224668   3.449   0.892   4.780
 8242TIP3    H124669   3.393   0.961   4.815
 8242TIP3    H224670   3.522   0.938   4.739
 8243TIP3   OH224671   4.286   6.865   1.319
 8243TIP3    H124672   4.264   6.815   1.397
 8243TIP3    H224673   4.381   6.857   1.312
 8244TIP3   OH224674   3.476   6.333   4.935
 8244TIP3    H124675   3.446   6.266   4.996
 8244TIP3    H224676   3.400   6.390   4.923
 8245TIP3   OH224677   1.974   0.346   3.744
 8245TIP3    H124678   2.061   0.366   3.709
 8245TIP3    H224679   1.914   0.399   3.692
 8246TIP3   OH224680   5.816   5.581   4.643
 8246TIP3    H124681   5.846   5.670   4.624
 8246TIP3    H224682   5.722   5.583   4.625
 8247TIP3   OH224683   7.706   1.484   1.043
 8247TIP3    H124684   7.732   1.395   1.064
 8247TIP3    H224685   7.612   1.487   1.059
 8248TIP3   OH224686   6.782   0.037   5.093
 8248TIP3    H124687   6.812   0.103   5.031
 8248TIP3    H224688   6.708  -0.005   5.050
 8249TIP3   OH224689   5.523   2.455   3.735
 8249TIP3    H124690   5.462   2.454   3.809
 8249TIP3    H224691   5.603   2.492   3.772
 8250TIP3   OH224692   7.884   2.917   6.314
 8250TIP3    H124693   7.897   2.964   6.232
 8250TIP3    H224694   7.961   2.861   6.322
 8251TIP3   OH224695   2.557   4.470   4.933
 8251TIP3    H124696   2.599   4.386   4.920
 8251TIP3    H224697   2.628   4.530   4.955
 8252TIP3   OH224698   2.443   2.323   3.147
 8252TIP3    H124699   2.519   2.289   3.194
 8252TIP3    H224700   2.411   2.249   3.096
 8253TIP3   OH224701   1.365   6.167   5.798
 8253TIP3    H124702   1.297   6.134   5.738
 8253TIP3    H224703   1.380   6.257   5.769
 8254TIP3   OH224704   1.081   1.717   2.112
 8254TIP3    H124705   1.173   1.737   2.097
 8254TIP3    H224706   1.069   1.630   2.074
 8255TIP3   OH224707   1.883   1.674   2.795
 8255TIP3    H124708   1.822   1.601   2.786
 8255TIP3    H224709   1.944   1.664   2.721
 8256TIP3   OH224710   8.243   7.069   1.821
 8256TIP3    H124711   8.170   7.109   1.773
 8256TIP3    H224712   8.232   7.099   1.911
 8257TIP3   OH224713   4.329   5.008   0.092
 8257TIP3    H124714   4.243   5.025   0.131
 8257TIP3    H224715   4.390   5.012   0.166
 8258TIP3   OH224716   6.355   0.811   2.477
 8258TIP3    H124717   6.338   0.885   2.419
 8258TIP3    H224718   6.310   0.834   2.559
 8259TIP3   OH224719   0.762   2.457   3.194
 8259TIP3    H124720   0.764   2.371   3.235
 8259TIP3    H224721   0.705   2.445   3.118
 8260TIP3   OH224722   7.693   1.661   5.882
 8260TIP3    H124723   7.774   1.621   5.851
 8260TIP3    H224724   7.633   1.587   5.893
 8261TIP3   OH224725   4.923   7.214   1.920
 8261TIP3    H124726   4.902   7.128   1.955
 8261TIP3    H224727   4.961   7.262   1.994
 8262TIP3   OH224728   5.100   5.911   0.681
 8262TIP3    H124729   5.120   5.982   0.620
 8262TIP3    H224730   5.115   5.831   0.631
 8263TIP3   OH224731   7.153   0.788   5.019
 8263TIP3    H124732   7.175   0.880   5.004
 8263TIP3    H224733   7.067   0.790   5.061
 8264TIP3   OH224734   7.554   3.101   2.809
 8264TIP3    H124735   7.470   3.100   2.854
 8264TIP3    H224736   7.543   3.166   2.740
 8265TIP3   OH224737   4.218   4.773   3.687
 8265TIP3    H124738   4.282   4.831   3.727
 8265TIP3    H224739   4.268   4.720   3.625
 8266TIP3   OH224740   7.437   1.865   1.642
 8266TIP3    H124741   7.456   1.864   1.736
 8266TIP3    H224742   7.513   1.907   1.603
 8267TIP3   OH224743   6.207   1.155   1.164
 8267TIP3    H124744   6.281   1.126   1.111
 8267TIP3    H224745   6.182   1.240   1.128
 8268TIP3   OH224746   5.208   7.337   2.293
 8268TIP3    H124747   5.256   7.255   2.280
 8268TIP3    H224748   5.270   7.405   2.267
 8269TIP3   OH224749   7.549   2.045   5.878
 8269TIP3    H124750   7.519   1.976   5.937
 8269TIP3    H224751   7.469   2.092   5.854
 8270TIP3   OH224752   5.360   6.490   4.145
 8270TIP3    H124753   5.350   6.546   4.068
 8270TIP3    H224754   5.277   6.497   4.192
 8271TIP3   OH224755   1.154   6.935   6.559
 8271TIP3    H124756   1.089   6.948   6.628
 8271TIP3    H224757   1.238   6.931   6.604
 8272TIP3   OH224758   1.787   7.138   4.093
 8272TIP3    H124759   1.756   7.096   4.174
 8272TIP3    H224760   1.778   7.071   4.026
 8273TIP3   OH224761   8.132   0.464   4.474
 8273TIP3    H124762   8.214   0.422   4.501
 8273TIP3    H224763   8.099   0.408   4.403
 8274TIP3   OH224764   7.190   4.145   5.291
 8274TIP3    H124765   7.188   4.126   5.385
 8274TIP3    H224766   7.281   4.133   5.266
 8275TIP3   OH224767   1.897   1.133   4.019
 8275TIP3    H124768   1.922   1.192   4.090
 8275TIP3    H224769   1.967   1.068   4.015
 8276TIP3   OH224770   7.846   4.620   6.520
 8276TIP3    H124771   7.872   4.712   6.519
 8276TIP3    H224772   7.754   4.621   6.546
 8277TIP3   OH224773   7.895   1.204   2.340
 8277TIP3    H124774   7.831   1.133   2.348
 8277TIP3    H224775   7.864   1.271   2.401
 8278TIP3   OH224776   0.972   6.450   1.476
 8278TIP3    H124777   1.049   6.466   1.422
 8278TIP3    H224778   0.948   6.359   1.457
 8279TIP3   OH224779   0.760   1.497   6.608
 8279TIP3    H124780   0.804   1.556   6.668
 8279TIP3    H224781   0.795   1.520   6.522
 8280TIP3   OH224782   6.097   5.913   2.259
 8280TIP3    H124783   6.136   5.984   2.311
 8280TIP3    H224784   6.159   5.898   2.188
 8281TIP3   OH224785   5.930   0.503   1.796
 8281TIP3    H124786   6.014   0.491   1.753
 8281TIP3    H224787   5.949   0.561   1.870
 8282TIP3   OH224788   6.890   4.917   5.827
 8282TIP3    H124789   6.892   4.956   5.739
 8282TIP3    H224790   6.894   4.992   5.886
 8283TIP3   OH224791   6.079   3.476   5.396
 8283TIP3    H124792   6.116   3.393   5.366
 8283TIP3    H224793   6.132   3.543   5.352
 8284TIP3   OH224794   6.746   2.863   0.832
 8284TIP3    H124795   6.830   2.881   0.874
 8284TIP3    H224796   6.762   2.784   0.780
 8285TIP3   OH224797   6.432   4.480   5.779
 8285TIP3    H124798   6.485   4.547   5.736
 8285TIP3    H224799   6.491   4.440   5.843
 8286TIP3   OH224800   0.823   1.282   1.913
 8286TIP3    H124801   0.859   1.224   1.980
 8286TIP3    H224802   0.770   1.224   1.858
 8287TIP3   OH224803   1.790   2.983   6.365
 8287TIP3    H124804   1.755   3.061   6.321
 8287TIP3    H224805   1.714   2.943   6.406
 8288TIP3   OH224806   2.236   6.688   6.443
 8288TIP3    H124807   2.256   6.670   6.535
 8288TIP3    H224808   2.214   6.602   6.406
 8289TIP3   OH224809   1.854   6.009   0.218
 8289TIP3    H124810   1.873   6.093   0.262
 8289TIP3    H224811   1.882   5.943   0.281
 8290TIP3   OH224812   6.885   3.155   2.380
 8290TIP3    H124813   6.793   3.138   2.398
 8290TIP3    H224814   6.912   3.083   2.323
 8291TIP3   OH224815   0.865   7.166   4.169
 8291TIP3    H124816   0.915   7.246   4.157
 8291TIP3    H224817   0.922   7.109   4.221
 8292TIP3   OH224818   3.243   2.170   2.260
 8292TIP3    H124819   3.316   2.232   2.265
 8292TIP3    H224820   3.262   2.118   2.182
 8293TIP3   OH224821   6.883   3.790   1.706
 8293TIP3    H124822   6.879   3.804   1.801
 8293TIP3    H224823   6.834   3.863   1.669
 8294TIP3   OH224824   0.817   1.767   2.711
 8294TIP3    H124825   0.821   1.806   2.624
 8294TIP3    H224826   0.733   1.797   2.747
 8295TIP3   OH224827   4.279   3.350   3.584
 8295TIP3    H124828   4.342   3.379   3.650
 8295TIP3    H224829   4.257   3.261   3.609
 8296TIP3   OH224830   1.390   1.290   5.830
 8296TIP3    H124831   1.477   1.287   5.869
 8296TIP3    H224832   1.343   1.218   5.872
 8297TIP3   OH224833   2.802   2.473   3.886
 8297TIP3    H124834   2.796   2.405   3.819
 8297TIP3    H224835   2.895   2.491   3.895
 8298TIP3   OH224836   3.240   5.905   4.007
 8298TIP3    H124837   3.171   5.943   4.062
 8298TIP3    H224838   3.265   5.824   4.052
 8299TIP3   OH224839   7.198   4.748   4.794
 8299TIP3    H124840   7.172   4.742   4.886
 8299TIP3    H224841   7.173   4.836   4.767
 8300TIP3   OH224842   1.938   6.590   4.541
 8300TIP3    H124843   1.905   6.655   4.479
 8300TIP3    H224844   2.033   6.595   4.533
 8301TIP3   OH224845   4.994   5.128   5.120
 8301TIP3    H124846   4.925   5.193   5.109
 8301TIP3    H224847   4.947   5.047   5.141
 8302TIP3   OH224848   5.933   3.407   6.123
 8302TIP3    H124849   5.988   3.403   6.045
 8302TIP3    H224850   5.922   3.501   6.139
 8303TIP3   OH224851   3.462   7.848   6.524
 8303TIP3    H124852   3.394   7.781   6.534
 8303TIP3    H224853   3.505   7.824   6.441
 8304TIP3   OH224854   0.568   1.537   5.423
 8304TIP3    H124855   0.494   1.482   5.448
 8304TIP3    H224856   0.612   1.489   5.354
 8305TIP3   OH224857   5.727   0.709   2.395
 8305TIP3    H124858   5.723   0.718   2.300
 8305TIP3    H224859   5.779   0.783   2.424
 8306TIP3   OH224860   7.202   6.611   5.877
 8306TIP3    H124861   7.154   6.681   5.921
 8306TIP3    H224862   7.230   6.552   5.947
 8307TIP3   OH224863   0.168   6.693   1.967
 8307TIP3    H124864   0.256   6.720   1.942
 8307TIP3    H224865   0.142   6.754   2.035
 8308TIP3   OH224866   1.000   5.047   4.433
 8308TIP3    H124867   1.001   5.040   4.529
 8308TIP3    H224868   0.935   4.983   4.405
 8309TIP3   OH224869   7.992   2.378   2.133
 8309TIP3    H124870   7.974   2.390   2.227
 8309TIP3    H224871   7.916   2.415   2.089
 8310TIP3   OH224872   3.930   3.520   0.401
 8310TIP3    H124873   3.860   3.491   0.460
 8310TIP3    H224874   3.994   3.449   0.404
 8311TIP3   OH224875   1.080   0.400   0.034
 8311TIP3    H124876   1.149   0.381  -0.030
 8311TIP3    H224877   1.079   0.324   0.092
 8312TIP3   OH224878   7.024   0.871   2.344
 8312TIP3    H124879   6.995   0.837   2.260
 8312TIP3    H224880   7.034   0.965   2.330
 8313TIP3   OH224881   5.261   6.104   3.963
 8313TIP3    H124882   5.284   6.027   3.910
 8313TIP3    H224883   5.345   6.147   3.980
 8314TIP3   OH224884   4.749   7.411   3.702
 8314TIP3    H124885   4.835   7.441   3.675
 8314TIP3    H224886   4.736   7.328   3.656
 8315TIP3   OH224887   0.446   3.447   5.310
 8315TIP3    H124888   0.445   3.411   5.222
 8315TIP3    H224889   0.485   3.534   5.301
 8316TIP3   OH224890   0.205   6.865   1.454
 8316TIP3    H124891   0.280   6.856   1.394
 8316TIP3    H224892   0.128   6.861   1.396
 8317TIP3   OH224893   1.555   1.108   5.109
 8317TIP3    H124894   1.593   1.182   5.061
 8317TIP3    H224895   1.462   1.128   5.115
 8318TIP3   OH224896   2.357   2.783   1.197
 8318TIP3    H124897   2.346   2.711   1.135
 8318TIP3    H224898   2.273   2.829   1.194
 8319TIP3   OH224899   4.430   2.384   6.363
 8319TIP3    H124900   4.394   2.428   6.440
 8319TIP3    H224901   4.523   2.373   6.382
 8320TIP3   OH224902   0.918   7.740   0.868
 8320TIP3    H124903   0.904   7.826   0.907
 8320TIP3    H224904   0.987   7.754   0.803
 8321TIP3   OH224905   5.221   3.276   5.130
 8321TIP3    H124906   5.215   3.204   5.067
 8321TIP3    H224907   5.148   3.261   5.191
 8322TIP3   OH224908   5.126   0.938   3.505
 8322TIP3    H124909   5.126   0.934   3.409
 8322TIP3    H224910   5.117   0.847   3.533
 8323TIP3   OH224911   0.147   2.421   3.740
 8323TIP3    H124912   0.161   2.444   3.649
 8323TIP3    H224913   0.234   2.422   3.780
 8324TIP3   OH224914   6.500   4.977   1.145
 8324TIP3    H124915   6.542   4.897   1.112
 8324TIP3    H224916   6.413   4.976   1.104
 8325TIP3   OH224917   6.928   5.255   1.825
 8325TIP3    H124918   7.019   5.227   1.831
 8325TIP3    H224919   6.881   5.198   1.885
 8326TIP3   OH224920   3.743   0.505   5.995
 8326TIP3    H124921   3.785   0.460   6.068
 8326TIP3    H224922   3.775   0.461   5.917
 8327TIP3   OH224923   4.234   4.019   1.551
 8327TIP3    H124924   4.163   3.956   1.538
 8327TIP3    H224925   4.292   4.005   1.476
 8328TIP3   OH224926   4.900   4.520   3.036
 8328TIP3    H124927   4.887   4.538   2.943
 8328TIP3    H224928   4.844   4.444   3.054
 8329TIP3   OH224929   5.544   1.800   3.527
 8329TIP3    H124930   5.551   1.882   3.477
 8329TIP3    H224931   5.533   1.732   3.460
 8330TIP3   OH224932   0.305   5.068   6.113
 8330TIP3    H124933   0.257   5.081   6.195
 8330TIP3    H224934   0.376   5.132   6.116
 8331TIP3   OH224935   5.364   6.949   6.365
 8331TIP3    H124936   5.278   6.992   6.354
 8331TIP3    H224937   5.356   6.900   6.446
 8332TIP3   OH224938   0.480   2.367   0.401
 8332TIP3    H124939   0.482   2.320   0.318
 8332TIP3    H224940   0.408   2.326   0.450
 8333TIP3   OH224941   1.988   7.746   6.441
 8333TIP3    H124942   1.897   7.771   6.461
 8333TIP3    H224943   2.039   7.785   6.511
 8334TIP3   OH224944   3.716   4.406   2.130
 8334TIP3    H124945   3.674   4.491   2.127
 8334TIP3    H224946   3.735   4.390   2.223
 8335TIP3   OH224947   8.164   2.224   2.366
 8335TIP3    H124948   8.225   2.252   2.435
 8335TIP3    H224949   8.093   2.180   2.413
 8336TIP3   OH224950   5.516   1.788   0.802
 8336TIP3    H124951   5.595   1.751   0.841
 8336TIP3    H224952   5.471   1.713   0.762
 8337TIP3   OH224953   5.252   2.476   4.198
 8337TIP3    H124954   5.171   2.432   4.224
 8337TIP3    H224955   5.321   2.417   4.229
 8338TIP3   OH224956   3.125   3.571   0.934
 8338TIP3    H124957   3.175   3.639   0.978
 8338TIP3    H224958   3.058   3.545   0.998
 8339TIP3   OH224959   5.450   3.220   0.307
 8339TIP3    H124960   5.456   3.243   0.214
 8339TIP3    H224961   5.509   3.281   0.351
 8340TIP3   OH224962   4.891   2.840   4.637
 8340TIP3    H124963   4.825   2.815   4.702
 8340TIP3    H224964   4.890   2.769   4.573
 8341TIP3   OH224965   1.575   2.575   3.878
 8341TIP3    H124966   1.491   2.600   3.839
 8341TIP3    H224967   1.623   2.533   3.806
 8342TIP3   OH224968   0.021   1.430   4.557
 8342TIP3    H124969   0.048   1.422   4.466
 8342TIP3    H224970   0.103   1.429   4.607
 8343TIP3   OH224971   1.726   4.119   2.441
 8343TIP3    H124972   1.720   4.213   2.426
 8343TIP3    H224973   1.659   4.101   2.508
 8344TIP3   OH224974   8.127   4.875   6.396
 8344TIP3    H124975   8.037   4.908   6.400
 8344TIP3    H224976   8.171   4.932   6.333
 8345TIP3   OH224977   3.199   4.241   1.384
 8345TIP3    H124978   3.277   4.297   1.385
 8345TIP3    H224979   3.159   4.257   1.299
 8346TIP3   OH224980   6.273   2.474   6.619
 8346TIP3    H124981   6.265   2.393   6.568
 8346TIP3    H224982   6.269   2.544   6.553
 8347TIP3   OH224983   3.180   4.846   2.548
 8347TIP3    H124984   3.268   4.836   2.512
 8347TIP3    H224985   3.121   4.837   2.473
 8348TIP3   OH224986   4.803   1.779   4.643
 8348TIP3    H124987   4.878   1.727   4.671
 8348TIP3    H224988   4.806   1.776   4.547
 8349TIP3   OH224989   7.678   3.484   4.105
 8349TIP3    H124990   7.760   3.488   4.054
 8349TIP3    H224991   7.609   3.500   4.040
 8350TIP3   OH224992   1.828   3.319   0.864
 8350TIP3    H124993   1.897   3.259   0.890
 8350TIP3    H224994   1.849   3.401   0.909
 8351TIP3   OH224995   3.389   2.312   2.632
 8351TIP3    H124996   3.426   2.378   2.572
 8351TIP3    H224997   3.423   2.229   2.599
 8352TIP3   OH224998   2.447   1.751   0.912
 8352TIP3    H124999   2.459   1.695   0.835
 8352TIP3    H225000   2.436   1.690   0.984
 8353TIP3   OH225001   7.365   5.714   1.659
 8353TIP3    H125002   7.358   5.627   1.697
 8353TIP3    H225003   7.424   5.761   1.718
 8354TIP3   OH225004   8.210   4.762   0.866
 8354TIP3    H125005   8.174   4.680   0.830
 8354TIP3    H225006   8.304   4.755   0.851
 8355TIP3   OH225007   4.047   7.133   5.766
 8355TIP3    H125008   4.102   7.055   5.768
 8355TIP3    H225009   3.985   7.117   5.695
 8356TIP3   OH225010   1.709   4.816   2.296
 8356TIP3    H125011   1.762   4.738   2.313
 8356TIP3    H225012   1.669   4.838   2.380
 8357TIP3   OH225013   7.685   2.387   5.821
 8357TIP3    H125014   7.687   2.294   5.801
 8357TIP3    H225015   7.627   2.425   5.754
 8358TIP3   OH225016   4.035   5.174   3.235
 8358TIP3    H125017   3.949   5.190   3.275
 8358TIP3    H225018   4.087   5.134   3.304
 8359TIP3   OH225019   5.914   2.692   6.520
 8359TIP3    H125020   5.934   2.655   6.434
 8359TIP3    H225021   5.853   2.629   6.559
 8360TIP3   OH225022   0.612   4.530   1.378
 8360TIP3    H125023   0.657   4.458   1.421
 8360TIP3    H225024   0.630   4.606   1.432
 8361TIP3   OH225025   0.624   0.097   5.053
 8361TIP3    H125026   0.579   0.012   5.058
 8361TIP3    H225027   0.608   0.137   5.139
 8362TIP3   OH225028   8.208   3.028   2.505
 8362TIP3    H125029   8.202   3.091   2.433
 8362TIP3    H225030   8.147   2.959   2.482
 8363TIP3   OH225031   4.447   0.196   0.194
 8363TIP3    H125032   4.448   0.110   0.237
 8363TIP3    H225033   4.368   0.239   0.229
 8364TIP3   OH225034   3.843   6.475   5.804
 8364TIP3    H125035   3.789   6.399   5.824
 8364TIP3    H225036   3.840   6.483   5.708
 8365TIP3   OH225037   6.669   3.454   3.511
 8365TIP3    H125038   6.692   3.376   3.562
 8365TIP3    H225039   6.632   3.514   3.575
 8366TIP3   OH225040   4.073   1.326   0.528
 8366TIP3    H125041   4.084   1.420   0.543
 8366TIP3    H225042   4.008   1.299   0.593
 8367TIP3   OH225043   5.054   5.546   3.357
 8367TIP3    H125044   5.145   5.518   3.366
 8367TIP3    H225045   5.019   5.493   3.285
 8368TIP3   OH225046   8.040   5.968   3.161
 8368TIP3    H125047   8.102   5.950   3.231
 8368TIP3    H225048   8.063   5.906   3.092
 8369TIP3   OH225049   0.755   3.167   2.246
 8369TIP3    H125050   0.801   3.245   2.278
 8369TIP3    H225051   0.824   3.116   2.202
 8370TIP3   OH225052   0.023   3.070   5.053
 8370TIP3    H125053  -0.006   3.069   5.145
 8370TIP3    H225054   0.037   3.163   5.033
 8371TIP3   OH225055   6.505   6.263   1.013
 8371TIP3    H125056   6.513   6.194   1.079
 8371TIP3    H225057   6.586   6.315   1.023
 8372TIP3   OH225058   6.111   1.733   1.900
 8372TIP3    H125059   6.153   1.767   1.820
 8372TIP3    H225060   6.184   1.719   1.961
 8373TIP3   OH225061   7.048   2.130   1.595
 8373TIP3    H125062   7.129   2.133   1.544
 8373TIP3    H225063   6.982   2.101   1.533
 8374TIP3   OH225064   7.936   1.053   3.243
 8374TIP3    H125065   8.023   1.031   3.276
 8374TIP3    H225066   7.935   1.018   3.154
 8375TIP3   OH225067   7.372   4.658   3.059
 8375TIP3    H125068   7.323   4.578   3.036
 8375TIP3    H225069   7.456   4.648   3.015
 8376TIP3   OH225070   7.748   1.388   2.537
 8376TIP3    H125071   7.731   1.482   2.522
 8376TIP3    H225072   7.811   1.386   2.609
 8377TIP3   OH225073   0.675   5.043   3.481
 8377TIP3    H125074   0.655   4.950   3.490
 8377TIP3    H225075   0.655   5.080   3.567
 8378TIP3   OH225076   0.148   7.472   0.712
 8378TIP3    H125077   0.110   7.446   0.628
 8378TIP3    H225078   0.164   7.389   0.757
 8379TIP3   OH225079   2.343   1.708   6.391
 8379TIP3    H125080   2.288   1.643   6.348
 8379TIP3    H225081   2.301   1.724   6.475
 8380TIP3   OH225082   6.970   1.923   3.271
 8380TIP3    H125083   7.023   2.001   3.262
 8380TIP3    H225084   7.028   1.858   3.311
 8381TIP3   OH225085   7.731   3.572   0.425
 8381TIP3    H125086   7.644   3.600   0.452
 8381TIP3    H225087   7.767   3.526   0.501
 8382TIP3   OH225088   4.859   6.821   2.424
 8382TIP3    H125089   4.793   6.889   2.438
 8382TIP3    H225090   4.824   6.744   2.468
 8383TIP3   OH225091   1.775   2.261   1.582
 8383TIP3    H125092   1.849   2.219   1.626
 8383TIP3    H225093   1.767   2.346   1.625
 8384TIP3   OH225094   1.127   6.726   5.602
 8384TIP3    H125095   1.162   6.813   5.583
 8384TIP3    H225096   1.071   6.739   5.679
 8385TIP3   OH225097   1.678   4.136   2.002
 8385TIP3    H125098   1.647   4.206   1.945
 8385TIP3    H225099   1.769   4.122   1.976
 8386TIP3   OH225100   5.259   3.782   4.020
 8386TIP3    H125101   5.310   3.847   3.971
 8386TIP3    H225102   5.231   3.718   3.955
 8387TIP3   OH225103   2.120   1.426   2.802
 8387TIP3    H125104   2.132   1.332   2.795
 8387TIP3    H225105   2.181   1.464   2.739
 8388TIP3   OH225106   1.538   1.179   4.537
 8388TIP3    H125107   1.580   1.133   4.609
 8388TIP3    H225108   1.538   1.271   4.565
 8389TIP3   OH225109   1.257   4.968   4.424
 8389TIP3    H125110   1.167   4.991   4.401
 8389TIP3    H225111   1.276   5.019   4.502
 8390TIP3   OH225112   2.489   2.353   5.469
 8390TIP3    H125113   2.398   2.326   5.465
 8390TIP3    H225114   2.498   2.420   5.401
 8391TIP3   OH225115   6.362   6.776   5.800
 8391TIP3    H125116   6.275   6.738   5.813
 8391TIP3    H225117   6.358   6.861   5.843
 8392TIP3   OH225118   2.705   1.328   3.578
 8392TIP3    H125119   2.791   1.364   3.600
 8392TIP3    H225120   2.645   1.369   3.641
 8393TIP3   OH225121   8.272   1.312   1.647
 8393TIP3    H125122   8.266   1.271   1.560
 8393TIP3    H225123   8.194   1.366   1.653
 8394TIP3   OH225124   2.026   2.713   3.560
 8394TIP3    H125125   2.114   2.684   3.540
 8394TIP3    H225126   2.035   2.766   3.639
 8395TIP3   OH225127   5.097   0.918   6.026
 8395TIP3    H125128   5.082   0.835   6.071
 8395TIP3    H225129   5.010   0.952   6.006
 8396TIP3   OH225130   8.277   2.559   6.237
 8396TIP3    H125131   8.309   2.494   6.174
 8396TIP3    H225132   8.323   2.538   6.318
 8397TIP3   OH225133   0.726   7.278   0.318
 8397TIP3    H125134   0.737   7.226   0.397
 8397TIP3    H225135   0.802   7.336   0.315
 8398TIP3   OH225136   7.465   0.331   4.717
 8398TIP3    H125137   7.484   0.366   4.804
 8398TIP3    H225138   7.458   0.236   4.730
 8399TIP3   OH225139   5.431   4.252   4.841
 8399TIP3    H125140   5.389   4.276   4.758
 8399TIP3    H225141   5.358   4.230   4.899
 8400TIP3   OH225142   6.813   7.343   3.475
 8400TIP3    H125143   6.795   7.338   3.382
 8400TIP3    H225144   6.811   7.252   3.505
 8401TIP3   OH225145   0.600   2.763   5.153
 8401TIP3    H125146   0.554   2.705   5.214
 8401TIP3    H225147   0.625   2.839   5.206
 8402TIP3   OH225148   8.143   5.190   6.448
 8402TIP3    H125149   8.153   5.198   6.353
 8402TIP3    H225150   8.050   5.202   6.464
 8403TIP3   OH225151   1.000   5.704   0.308
 8403TIP3    H125152   1.023   5.673   0.220
 8403TIP3    H225153   0.915   5.663   0.326
 8404TIP3   OH225154   7.394   3.673   5.138
 8404TIP3    H125155   7.359   3.731   5.205
 8404TIP3    H225156   7.484   3.703   5.124
 8405TIP3   OH225157   7.719   0.434   0.058
 8405TIP3    H125158   7.739   0.516   0.013
 8405TIP3    H225159   7.690   0.461   0.146
 8406TIP3   OH225160   4.570   6.274   0.425
 8406TIP3    H125161   4.552   6.367   0.440
 8406TIP3    H225162   4.642   6.254   0.484
 8407TIP3   OH225163   0.352   4.321   0.971
 8407TIP3    H125164   0.420   4.324   1.039
 8407TIP3    H225165   0.272   4.347   1.016
 8408TIP3   OH225166   0.221   1.128   1.077
 8408TIP3    H125167   0.227   1.033   1.068
 8408TIP3    H225168   0.298   1.153   1.128
 8409TIP3   OH225169   0.293   7.335   0.002
 8409TIP3    H125170   0.252   7.359   0.085
 8409TIP3    H225171   0.366   7.278   0.026
 8410TIP3   OH225172   3.868   1.401   6.377
 8410TIP3    H125173   3.937   1.354   6.330
 8410TIP3    H225174   3.828   1.458   6.311
 8411TIP3   OH225175   2.619   6.603   6.111
 8411TIP3    H125176   2.540   6.641   6.149
 8411TIP3    H225177   2.687   6.621   6.175
 8412TIP3   OH225178   6.785   3.483   2.651
 8412TIP3    H125179   6.694   3.509   2.664
 8412TIP3    H225180   6.821   3.548   2.591
 8413TIP3   OH225181   6.006   3.430   0.656
 8413TIP3    H125182   6.018   3.460   0.566
 8413TIP3    H225183   6.077   3.368   0.670
 8414TIP3   OH225184   5.936   0.594   3.219
 8414TIP3    H125185   5.947   0.612   3.313
 8414TIP3    H225186   5.863   0.532   3.215
 8415TIP3   OH225187   6.014   0.658   3.478
 8415TIP3    H125188   6.088   0.629   3.531
 8415TIP3    H225189   5.938   0.648   3.536
 8416TIP3   OH225190   7.003   2.268   3.013
 8416TIP3    H125191   7.037   2.354   2.988
 8416TIP3    H225192   7.062   2.238   3.083
 8417TIP3   OH225193   8.246   5.065   3.382
 8417TIP3    H125194   8.157   5.079   3.415
 8417TIP3    H225195   8.302   5.104   3.448
 8418TIP3   OH225196   7.608   3.866   4.778
 8418TIP3    H125197   7.627   3.777   4.808
 8418TIP3    H225198   7.673   3.921   4.820
 8419TIP3   OH225199   8.043   0.247   4.140
 8419TIP3    H125200   8.029   0.177   4.076
 8419TIP3    H225201   7.962   0.250   4.190
 8420TIP3   OH225202   6.790   4.505   3.390
 8420TIP3    H125203   6.814   4.595   3.414
 8420TIP3    H225204   6.712   4.487   3.442
 8421TIP3   OH225205   5.574   6.512   6.287
 8421TIP3    H125206   5.545   6.551   6.205
 8421TIP3    H225207   5.495   6.505   6.340
 8422TIP3   OH225208   6.463   5.955   4.693
 8422TIP3    H125209   6.456   5.961   4.788
 8422TIP3    H225210   6.557   5.964   4.676
 8423TIP3   OH225211   1.637   0.564   3.659
 8423TIP3    H125212   1.697   0.509   3.608
 8423TIP3    H225213   1.556   0.566   3.607
 8424TIP3   OH225214   6.819   0.107   2.781
 8424TIP3    H125215   6.874   0.080   2.855
 8424TIP3    H225216   6.881   0.144   2.718
 8425TIP3   OH225217   1.970   7.158   3.743
 8425TIP3    H125218   1.985   7.191   3.832
 8425TIP3    H225219   1.897   7.097   3.751
 8426TIP3   OH225220   2.293   3.794   2.458
 8426TIP3    H125221   2.346   3.788   2.537
 8426TIP3    H225222   2.203   3.786   2.489
 8427TIP3   OH225223   5.936   7.432   6.235
 8427TIP3    H125224   5.868   7.479   6.284
 8427TIP3    H225225   5.934   7.344   6.271
 8428TIP3   OH225226   1.447   6.326   0.097
 8428TIP3    H125227   1.510   6.396   0.115
 8428TIP3    H225228   1.490   6.246   0.127
 8429TIP3   OH225229   5.118   2.135   1.822
 8429TIP3    H125230   5.065   2.150   1.900
 8429TIP3    H225231   5.209   2.138   1.853
 8430TIP3   OH225232   1.611   5.005   1.315
 8430TIP3    H125233   1.553   4.929   1.311
 8430TIP3    H225234   1.593   5.044   1.401
 8431TIP3   OH225235   6.397   0.895   4.713
 8431TIP3    H125236   6.397   0.869   4.621
 8431TIP3    H225237   6.326   0.844   4.752
 8432TIP3   OH225238   6.380   5.493   2.405
 8432TIP3    H125239   6.354   5.419   2.459
 8432TIP3    H225240   6.367   5.570   2.460
 8433TIP3   OH225241   0.346   4.129   4.585
 8433TIP3    H125242   0.321   4.039   4.562
 8433TIP3    H225243   0.272   4.183   4.556
 8434TIP3   OH225244   6.370   0.163   1.306
 8434TIP3    H125245   6.450   0.148   1.356
 8434TIP3    H225246   6.300   0.126   1.360
 8435TIP3   OH225247   3.747   5.544   3.857
 8435TIP3    H125248   3.838   5.544   3.830
 8435TIP3    H225249   3.749   5.515   3.949
 8436TIP3   OH225250   6.933   6.942   3.162
 8436TIP3    H125251   6.849   6.931   3.206
 8436TIP3    H225252   6.980   7.006   3.217
 8437TIP3   OH225253   4.014   5.653   4.190
 8437TIP3    H125254   4.102   5.624   4.169
 8437TIP3    H225255   3.996   5.616   4.276
 8438TIP3   OH225256   8.201   4.733   2.143
 8438TIP3    H125257   8.136   4.796   2.109
 8438TIP3    H225258   8.153   4.682   2.208
 8439TIP3   OH225259   2.546   1.355   6.014
 8439TIP3    H125260   2.510   1.316   5.935
 8439TIP3    H225261   2.641   1.345   6.006
 8440TIP3   OH225262   6.667   4.423   0.814
 8440TIP3    H125263   6.694   4.333   0.792
 8440TIP3    H225264   6.706   4.439   0.900
 8441TIP3   OH225265   2.607   7.627   4.206
 8441TIP3    H125266   2.661   7.602   4.281
 8441TIP3    H225267   2.669   7.660   4.141
 8442TIP3   OH225268   0.829   2.974   0.372
 8442TIP3    H125269   0.818   2.978   0.277
 8442TIP3    H225270   0.765   2.908   0.400
 8443TIP3   OH225271   8.166   3.237   0.957
 8443TIP3    H125272   8.115   3.156   0.952
 8443TIP3    H225273   8.247   3.217   0.910
 8444TIP3   OH225274   3.293   2.113   1.758
 8444TIP3    H125275   3.263   2.179   1.821
 8444TIP3    H225276   3.246   2.134   1.678
 8445TIP3   OH225277   2.459   1.988   0.156
 8445TIP3    H125278   2.406   1.918   0.117
 8445TIP3    H225279   2.418   2.069   0.126
 8446TIP3   OH225280   6.641   3.747   2.682
 8446TIP3    H125281   6.577   3.721   2.748
 8446TIP3    H225282   6.591   3.754   2.601
 8447TIP3   OH225283   6.788   3.534   3.881
 8447TIP3    H125284   6.881   3.514   3.894
 8447TIP3    H225285   6.747   3.449   3.868
 8448TIP3   OH225286   5.396   4.954   5.699
 8448TIP3    H125287   5.350   5.027   5.740
 8448TIP3    H225288   5.483   4.989   5.678
 8449TIP3   OH225289   0.952   5.378   4.653
 8449TIP3    H125290   0.860   5.372   4.675
 8449TIP3    H225291   0.998   5.357   4.734
 8450TIP3   OH225292   2.105   2.843   2.822
 8450TIP3    H125293   2.134   2.771   2.766
 8450TIP3    H225294   2.185   2.884   2.853
 8451TIP3   OH225295   3.686   5.196   5.498
 8451TIP3    H125296   3.620   5.130   5.474
 8451TIP3    H225297   3.637   5.261   5.549
 8452TIP3   OH225298   7.166   6.051   0.910
 8452TIP3    H125299   7.180   6.080   0.820
 8452TIP3    H225300   7.163   5.955   0.903
 8453TIP3   OH225301   0.158   5.917   2.276
 8453TIP3    H125302   0.064   5.938   2.277
 8453TIP3    H225303   0.161   5.823   2.262
 8454TIP3   OH225304   3.561   0.440   6.286
 8454TIP3    H125305   3.559   0.533   6.306
 8454TIP3    H225306   3.550   0.436   6.191
 8455TIP3   OH225307   4.158   2.058   1.131
 8455TIP3    H125308   4.092   2.112   1.088
 8455TIP3    H225309   4.190   2.111   1.204
 8456TIP3   OH225310   0.090   3.029   3.934
 8456TIP3    H125311   0.058   3.090   4.000
 8456TIP3    H225312   0.126   3.085   3.865
 8457TIP3   OH225313   6.753   7.635   6.183
 8457TIP3    H125314   6.779   7.543   6.178
 8457TIP3    H225315   6.775   7.671   6.096
 8458TIP3   OH225316   1.862   6.521   3.971
 8458TIP3    H125317   1.835   6.433   3.994
 8458TIP3    H225318   1.934   6.509   3.909
 8459TIP3   OH225319   8.316   1.327   2.588
 8459TIP3    H125320   8.267   1.367   2.517
 8459TIP3    H225321   8.278   1.366   2.667
 8460TIP3   OH225322   5.938   1.320   5.096
 8460TIP3    H125323   5.870   1.284   5.039
 8460TIP3    H225324   5.895   1.331   5.181
 8461TIP3   OH225325   1.725   0.168   0.888
 8461TIP3    H125326   1.686   0.096   0.838
 8461TIP3    H225327   1.656   0.234   0.893
 8462TIP3   OH225328   5.134   4.008   3.725
 8462TIP3    H125329   5.112   4.100   3.742
 8462TIP3    H225330   5.050   3.963   3.723
 8463TIP3   OH225331   6.326   0.332   6.152
 8463TIP3    H125332   6.382   0.262   6.118
 8463TIP3    H225333   6.382   0.381   6.212
 8464TIP3   OH225334   5.593   0.716   6.719
 8464TIP3    H125335   5.553   0.742   6.802
 8464TIP3    H225336   5.670   0.664   6.744
 8465TIP3   OH225337   4.613   2.703   4.071
 8465TIP3    H125338   4.590   2.695   4.164
 8465TIP3    H225339   4.676   2.775   4.068
 8466TIP3   OH225340   8.191   6.384   2.858
 8466TIP3    H125341   8.255   6.416   2.922
 8466TIP3    H225342   8.127   6.455   2.852
 8467TIP3   OH225343   5.679   1.226   0.423
 8467TIP3    H125344   5.730   1.261   0.496
 8467TIP3    H225345   5.637   1.148   0.458
 8468TIP3   OH225346   3.022   4.368   2.434
 8468TIP3    H125347   2.987   4.450   2.468
 8468TIP3    H225348   2.945   4.313   2.421
 8469TIP3   OH225349   2.152   7.359   6.020
 8469TIP3    H125350   2.217   7.396   6.080
 8469TIP3    H225351   2.116   7.435   5.974
 8470TIP3   OH225352   3.089   4.642   1.321
 8470TIP3    H125353   3.093   4.660   1.227
 8470TIP3    H225354   3.181   4.647   1.350
 8471TIP3   OH225355   7.904   6.246   3.902
 8471TIP3    H125356   7.989   6.207   3.880
 8471TIP3    H225357   7.925   6.335   3.930
 8472TIP3   OH225358   6.900   2.365   1.603
 8472TIP3    H125359   6.811   2.338   1.581
 8472TIP3    H225360   6.945   2.283   1.624
 8473TIP3   OH225361   0.796   3.739   0.189
 8473TIP3    H125362   0.795   3.755   0.283
 8473TIP3    H225363   0.866   3.795   0.155
 8474TIP3   OH225364   2.419   1.867   6.692
 8474TIP3    H125365   2.343   1.810   6.697
 8474TIP3    H225366   2.492   1.814   6.724
 8475TIP3   OH225367   7.245   1.758   1.480
 8475TIP3    H125368   7.185   1.730   1.549
 8475TIP3    H225369   7.323   1.788   1.527
 8476TIP3   OH225370   5.356   6.612   5.892
 8476TIP3    H125371   5.317   6.586   5.975
 8476TIP3    H225372   5.449   6.594   5.901
 8477TIP3   OH225373   7.039   1.444   6.435
 8477TIP3    H125374   7.099   1.418   6.505
 8477TIP3    H225375   7.002   1.361   6.404
 8478TIP3   OH225376   6.840   2.020   5.994
 8478TIP3    H125377   6.849   2.103   5.947
 8478TIP3    H225378   6.822   1.956   5.925
 8479TIP3   OH225379   6.248   5.813   4.595
 8479TIP3    H125380   6.173   5.784   4.647
 8479TIP3    H225381   6.313   5.840   4.660
 8480TIP3   OH225382   3.642   1.745   4.702
 8480TIP3    H125383   3.694   1.683   4.650
 8480TIP3    H225384   3.602   1.802   4.637
 8481TIP3   OH225385   0.871   5.317   3.582
 8481TIP3    H125386   0.875   5.343   3.489
 8481TIP3    H225387   0.832   5.393   3.626
 8482TIP3   OH225388   4.916   1.525   2.872
 8482TIP3    H125389   5.006   1.552   2.852
 8482TIP3    H225390   4.885   1.590   2.935
 8483TIP3   OH225391   0.955   6.206   6.781
 8483TIP3    H125392   1.017   6.230   6.712
 8483TIP3    H225393   0.919   6.122   6.752
 8484TIP3   OH225394   6.589   0.041   0.042
 8484TIP3    H125395   6.561  -0.047   0.068
 8484TIP3    H225396   6.683   0.042   0.058
 8485TIP3   OH225397   3.696   6.988   4.419
 8485TIP3    H125398   3.773   7.017   4.467
 8485TIP3    H225399   3.657   6.921   4.475
 8486TIP3   OH225400   6.567   2.244   3.684
 8486TIP3    H125401   6.471   2.237   3.683
 8486TIP3    H225402   6.597   2.155   3.701
 8487TIP3   OH225403   7.761   3.524   6.192
 8487TIP3    H125404   7.818   3.580   6.245
 8487TIP3    H225405   7.776   3.436   6.225
 8488TIP3   OH225406   0.814   6.418   6.338
 8488TIP3    H125407   0.866   6.361   6.281
 8488TIP3    H225408   0.832   6.506   6.306
 8489TIP3   OH225409   5.436   1.142   0.795
 8489TIP3    H125410   5.408   1.112   0.709
 8489TIP3    H225411   5.475   1.065   0.837
 8490TIP3   OH225412   1.237   0.194   5.489
 8490TIP3    H125413   1.316   0.247   5.491
 8490TIP3    H225414   1.166   0.257   5.473
 8491TIP3   OH225415   3.862   5.075   1.166
 8491TIP3    H125416   3.835   5.010   1.232
 8491TIP3    H225417   3.938   5.035   1.124
 8492TIP3   OH225418   1.403   7.430   3.708
 8492TIP3    H125419   1.462   7.379   3.762
 8492TIP3    H225420   1.325   7.376   3.699
 8493TIP3   OH225421   6.681   1.260   6.440
 8493TIP3    H125422   6.748   1.274   6.507
 8493TIP3    H225423   6.625   1.191   6.475
 8494TIP3   OH225424   3.513   4.591   2.561
 8494TIP3    H125425   3.459   4.532   2.508
 8494TIP3    H225426   3.580   4.534   2.598
 8495TIP3   OH225427   1.275   3.595   5.062
 8495TIP3    H125428   1.213   3.541   5.014
 8495TIP3    H225429   1.236   3.682   5.062
 8496TIP3   OH225430   5.565   4.991   0.539
 8496TIP3    H125431   5.505   4.947   0.599
 8496TIP3    H225432   5.651   4.953   0.559
 8497TIP3   OH225433   4.646   3.232   6.152
 8497TIP3    H125434   4.589   3.159   6.176
 8497TIP3    H225435   4.636   3.241   6.057
 8498TIP3   OH225436   1.698   3.107   2.750
 8498TIP3    H125437   1.707   3.202   2.762
 8498TIP3    H225438   1.765   3.070   2.807
 8499TIP3   OH225439   6.070   7.154   2.318
 8499TIP3    H125440   6.053   7.061   2.334
 8499TIP3    H225441   6.064   7.195   2.404
 8500TIP3   OH225442   3.799   6.707   2.941
 8500TIP3    H125443   3.807   6.721   2.846
 8500TIP3    H225444   3.812   6.793   2.980
 8501TIP3   OH225445   3.615   2.165   4.739
 8501TIP3    H125446   3.587   2.137   4.826
 8501TIP3    H225447   3.539   2.209   4.702
 8502TIP3   OH225448   4.085   3.747   0.353
 8502TIP3    H125449   4.029   3.670   0.368
 8502TIP3    H225450   4.024   3.821   0.354
 8503TIP3   OH225451   6.736   7.150   3.257
 8503TIP3    H125452   6.684   7.108   3.188
 8503TIP3    H225453   6.819   7.173   3.213
 8504TIP3   OH225454   0.354   4.134   3.704
 8504TIP3    H125455   0.292   4.146   3.776
 8504TIP3    H225456   0.362   4.221   3.665
 8505TIP3   OH225457   1.599   4.030   0.305
 8505TIP3    H125458   1.624   3.938   0.294
 8505TIP3    H225459   1.556   4.053   0.222
 8506TIP3   OH225460   0.280   3.977   6.699
 8506TIP3    H125461   0.246   3.923   6.771
 8506TIP3    H225462   0.337   4.041   6.741
 8507TIP3   OH225463   0.606   2.637   2.963
 8507TIP3    H125464   0.549   2.573   3.005
 8507TIP3    H225465   0.624   2.702   3.031
 8508TIP3   OH225466   3.942   5.367   0.605
 8508TIP3    H125467   3.894   5.392   0.684
 8508TIP3    H225468   4.009   5.434   0.594
 8509TIP3   OH225469   1.309   2.929   3.850
 8509TIP3    H125470   1.282   3.007   3.802
 8509TIP3    H225471   1.252   2.928   3.927
 8510TIP3   OH225472   0.140   1.327   0.121
 8510TIP3    H125473   0.235   1.316   0.108
 8510TIP3    H225474   0.132   1.354   0.212
 8511TIP3   OH225475   8.043   5.681   0.023
 8511TIP3    H125476   8.015   5.763   0.063
 8511TIP3    H225477   8.124   5.657   0.069
 8512TIP3   OH225478   7.174   5.618   2.194
 8512TIP3    H125479   7.108   5.686   2.181
 8512TIP3    H225480   7.173   5.568   2.112
 8513TIP3   OH225481   0.902   6.140   4.545
 8513TIP3    H125482   0.833   6.151   4.611
 8513TIP3    H225483   0.861   6.086   4.477
 8514TIP3   OH225484   8.244   1.525   3.231
 8514TIP3    H125485   8.279   1.602   3.185
 8514TIP3    H225486   8.294   1.452   3.196
 8515TIP3   OH225487   8.101   6.311   1.596
 8515TIP3    H125488   8.080   6.383   1.536
 8515TIP3    H225489   8.197   6.311   1.599
 8516TIP3   OH225490   0.060   7.832   3.214
 8516TIP3    H125491   0.058   7.737   3.197
 8516TIP3    H225492   0.104   7.869   3.137
 8517TIP3   OH225493   6.926   5.165   3.956
 8517TIP3    H125494   6.892   5.247   3.918
 8517TIP3    H225495   6.935   5.185   4.049
 8518TIP3   OH225496   4.671   2.584   0.357
 8518TIP3    H125497   4.609   2.573   0.429
 8518TIP3    H225498   4.670   2.500   0.312
 8519TIP3   OH225499   4.169   3.469   4.614
 8519TIP3    H125500   4.110   3.501   4.683
 8519TIP3    H225501   4.130   3.501   4.533
 8520TIP3   OH225502   1.754   7.136   0.434
 8520TIP3    H125503   1.846   7.157   0.449
 8520TIP3    H225504   1.756   7.052   0.388
 8521TIP3   OH225505   6.647   6.925   0.702
 8521TIP3    H125506   6.740   6.927   0.680
 8521TIP3    H225507   6.622   7.017   0.715
 8522TIP3   OH225508   5.161   0.382   0.288
 8522TIP3    H125509   5.136   0.427   0.207
 8522TIP3    H225510   5.081   0.341   0.318
 8523TIP3   OH225511   0.637   2.023   3.128
 8523TIP3    H125512   0.665   2.074   3.051
 8523TIP3    H225513   0.704   2.040   3.194
 8524TIP3   OH225514   5.401   1.151   0.310
 8524TIP3    H125515   5.422   1.111   0.225
 8524TIP3    H225516   5.427   1.085   0.374
 8525TIP3   OH225517   6.729   4.124   3.725
 8525TIP3    H125518   6.641   4.104   3.694
 8525TIP3    H225519   6.784   4.116   3.647
 8526TIP3   OH225520   4.212   4.348   4.387
 8526TIP3    H125521   4.144   4.295   4.428
 8526TIP3    H225522   4.266   4.286   4.339
 8527TIP3   OH225523   5.278   5.231   3.427
 8527TIP3    H125524   5.238   5.205   3.344
 8527TIP3    H225525   5.279   5.327   3.425
 8528TIP3   OH225526   5.493   0.612   1.365
 8528TIP3    H125527   5.428   0.679   1.388
 8528TIP3    H225528   5.574   0.661   1.351
 8529TIP3   OH225529   6.117   1.232   1.572
 8529TIP3    H125530   6.068   1.184   1.505
 8529TIP3    H225531   6.174   1.166   1.612
 8530TIP3   OH225532   6.559   4.429   3.500
 8530TIP3    H125533   6.544   4.343   3.462
 8530TIP3    H225534   6.480   4.479   3.480
 8531TIP3   OH225535   2.487   1.561   4.344
 8531TIP3    H125536   2.550   1.537   4.276
 8531TIP3    H225537   2.497   1.656   4.353
 8532TIP3   OH225538   4.741   5.510   6.557
 8532TIP3    H125539   4.821   5.478   6.598
 8532TIP3    H225540   4.752   5.489   6.464
 8533TIP3   OH225541   4.436   7.097   5.115
 8533TIP3    H125542   4.484   7.179   5.100
 8533TIP3    H225543   4.480   7.033   5.060
 8534TIP3   OH225544   5.536   7.512   3.380
 8534TIP3    H125545   5.480   7.503   3.457
 8534TIP3    H225546   5.625   7.509   3.414
 8535TIP3   OH225547   2.820   1.966   4.964
 8535TIP3    H125548   2.735   1.965   4.920
 8535TIP3    H225549   2.878   1.919   4.904
 8536TIP3   OH225550   8.305   7.590   0.130
 8536TIP3    H125551   8.257   7.525   0.079
 8536TIP3    H225552   8.371   7.539   0.177
 8537TIP3   OH225553   1.273   6.447   6.655
 8537TIP3    H125554   1.184   6.421   6.632
 8537TIP3    H225555   1.301   6.507   6.586
 8538TIP3   OH225556   2.314   7.585   1.828
 8538TIP3    H125557   2.288   7.515   1.887
 8538TIP3    H225558   2.273   7.564   1.744
 8539TIP3   OH225559   5.939   1.431   2.759
 8539TIP3    H125560   5.921   1.381   2.679
 8539TIP3    H225561   5.901   1.378   2.829
 8540TIP3   OH225562   5.128   7.559   4.138
 8540TIP3    H125563   5.079   7.567   4.056
 8540TIP3    H225564   5.112   7.641   4.184
 8541TIP3   OH225565   0.849   2.705   5.038
 8541TIP3    H125566   0.848   2.799   5.019
 8541TIP3    H225567   0.761   2.685   5.069
 8542TIP3   OH225568   5.419   4.847   0.131
 8542TIP3    H125569   5.460   4.881   0.052
 8542TIP3    H225570   5.456   4.898   0.202
 8543TIP3   OH225571   7.018   5.871   5.740
 8543TIP3    H125572   7.018   5.781   5.773
 8543TIP3    H225573   7.005   5.862   5.646
 8544TIP3   OH225574   1.966   3.364   5.353
 8544TIP3    H125575   1.990   3.400   5.439
 8544TIP3    H225576   1.941   3.441   5.302
 8545TIP3   OH225577   2.573   6.249   5.046
 8545TIP3    H125578   2.635   6.311   5.008
 8545TIP3    H225579   2.516   6.302   5.101
 8546TIP3   OH225580   5.395   7.532   4.206
 8546TIP3    H125581   5.440   7.488   4.134
 8546TIP3    H225582   5.310   7.557   4.169
 8547TIP3   OH225583   1.912   5.830   6.598
 8547TIP3    H125584   1.929   5.761   6.534
 8547TIP3    H225585   1.889   5.907   6.546
 8548TIP3   OH225586   6.079   0.380   4.806
 8548TIP3    H125587   6.141   0.444   4.772
 8548TIP3    H225588   6.128   0.298   4.809
 8549TIP3   OH225589   3.872   1.208   1.071
 8549TIP3    H125590   3.859   1.301   1.050
 8549TIP3    H225591   3.896   1.168   0.987
 8550TIP3   OH225592   1.058   1.168   6.381
 8550TIP3    H125593   0.998   1.170   6.457
 8550TIP3    H225594   1.145   1.180   6.419
 8551TIP3   OH225595   1.223   4.672   3.555
 8551TIP3    H125596   1.183   4.736   3.614
 8551TIP3    H225597   1.149   4.636   3.506
 8552TIP3   OH225598   3.401   5.535   4.956
 8552TIP3    H125599   3.371   5.447   4.977
 8552TIP3    H225600   3.419   5.576   5.040
 8553TIP3   OH225601   0.515   6.047   0.512
 8553TIP3    H125602   0.497   6.140   0.523
 8553TIP3    H225603   0.445   6.003   0.560
 8554TIP3   OH225604   1.998   7.761   2.591
 8554TIP3    H125605   2.029   7.812   2.666
 8554TIP3    H225606   2.057   7.686   2.588
 8555TIP3   OH225607   2.192   6.638   1.183
 8555TIP3    H125608   2.276   6.674   1.157
 8555TIP3    H225609   2.127   6.696   1.142
 8556TIP3   OH225610   8.174   0.898   1.345
 8556TIP3    H125611   8.192   0.828   1.283
 8556TIP3    H225612   8.086   0.928   1.323
 8557TIP3   OH225613   4.072   4.002   1.940
 8557TIP3    H125614   4.054   3.908   1.947
 8557TIP3    H225615   4.053   4.037   2.027
 8558TIP3   OH225616   3.328   2.002   6.054
 8558TIP3    H125617   3.357   2.090   6.079
 8558TIP3    H225618   3.246   2.016   6.007
 8559TIP3   OH225619   3.363   5.991   6.138
 8559TIP3    H125620   3.390   6.055   6.072
 8559TIP3    H225621   3.267   5.996   6.137
 8560TIP3   OH225622   4.463   6.351   3.001
 8560TIP3    H125623   4.447   6.277   2.943
 8560TIP3    H225624   4.554   6.340   3.028
 8561TIP3   OH225625   6.046   6.064   5.634
 8561TIP3    H125626   6.039   6.048   5.728
 8561TIP3    H225627   6.123   6.013   5.607
 8562TIP3   OH225628   0.314   2.055   3.651
 8562TIP3    H125629   0.273   2.082   3.733
 8562TIP3    H225630   0.277   1.968   3.634
 8563TIP3   OH225631   7.426   3.950   2.863
 8563TIP3    H125632   7.481   3.959   2.785
 8563TIP3    H225633   7.382   3.866   2.853
 8564TIP3   OH225634   2.329   0.016   2.937
 8564TIP3    H125635   2.420   0.022   2.907
 8564TIP3    H225636   2.335  -0.005   3.030
 8565TIP3   OH225637   4.892   2.363   4.569
 8565TIP3    H125638   4.895   2.267   4.571
 8565TIP3    H225639   4.963   2.390   4.628
 8566TIP3   OH225640   2.678   5.656   4.031
 8566TIP3    H125641   2.622   5.631   3.958
 8566TIP3    H225642   2.617   5.680   4.101
 8567TIP3   OH225643   3.358   1.870   2.910
 8567TIP3    H125644   3.267   1.888   2.891
 8567TIP3    H225645   3.377   1.789   2.862
 8568TIP3   OH225646   5.432   7.016   0.502
 8568TIP3    H125647   5.439   6.982   0.591
 8568TIP3    H225648   5.485   7.095   0.502
 8569TIP3   OH225649   7.272   6.567   6.676
 8569TIP3    H125650   7.306   6.615   6.751
 8569TIP3    H225651   7.188   6.607   6.657
 8570TIP3   OH225652   2.287   5.237   1.433
 8570TIP3    H125653   2.211   5.291   1.413
 8570TIP3    H225654   2.359   5.278   1.386
 8571TIP3   OH225655   6.325   0.651   2.084
 8571TIP3    H125656   6.232   0.665   2.100
 8571TIP3    H225657   6.357   0.735   2.051
 8572TIP3   OH225658   3.454   3.466   3.525
 8572TIP3    H125659   3.464   3.390   3.582
 8572TIP3    H225660   3.361   3.469   3.504
 8573TIP3   OH225661   2.483   2.907   4.232
 8573TIP3    H125662   2.500   2.830   4.286
 8573TIP3    H225663   2.447   2.971   4.293
 8574TIP3   OH225664   1.053   1.655   3.273
 8574TIP3    H125665   1.127   1.699   3.231
 8574TIP3    H225666   1.010   1.724   3.323
 8575TIP3   OH225667   3.384   6.825   1.546
 8575TIP3    H125668   3.458   6.886   1.544
 8575TIP3    H225669   3.370   6.800   1.455
 8576TIP3   OH225670   2.174   4.143   6.613
 8576TIP3    H125671   2.226   4.223   6.608
 8576TIP3    H225672   2.178   4.106   6.525
 8577TIP3   OH225673   0.293   4.885   6.689
 8577TIP3    H125674   0.301   4.931   6.772
 8577TIP3    H225675   0.206   4.845   6.692
 8578TIP3   OH225676   2.012   2.625   3.180
 8578TIP3    H125677   2.101   2.597   3.159
 8578TIP3    H225678   2.024   2.707   3.229
 8579TIP3   OH225679   4.991   6.017   5.969
 8579TIP3    H125680   4.966   5.927   5.989
 8579TIP3    H225681   4.944   6.038   5.889
 8580TIP3   OH225682   2.720   3.486   4.464
 8580TIP3    H125683   2.779   3.467   4.391
 8580TIP3    H225684   2.729   3.411   4.522
 8581TIP3   OH225685   1.335   5.514   0.439
 8581TIP3    H125686   1.361   5.585   0.498
 8581TIP3    H225687   1.383   5.438   0.471
 8582TIP3   OH225688   7.135   1.027   1.142
 8582TIP3    H125689   7.158   0.938   1.113
 8582TIP3    H225690   7.043   1.020   1.167
 8583TIP3   OH225691   4.950   4.745   6.787
 8583TIP3    H125692   4.905   4.744   6.703
 8583TIP3    H225693   4.881   4.731   6.852
 8584TIP3   OH225694   6.254   0.864   3.452
 8584TIP3    H125695   6.321   0.796   3.444
 8584TIP3    H225696   6.194   0.846   3.380
 8585TIP3   OH225697   7.492   5.309   6.593
 8585TIP3    H125698   7.551   5.255   6.645
 8585TIP3    H225699   7.547   5.379   6.558
 8586TIP3   OH225700   7.457   6.621   5.221
 8586TIP3    H125701   7.376   6.623   5.271
 8586TIP3    H225702   7.523   6.593   5.285
 8587TIP3   OH225703   3.361   4.809   4.220
 8587TIP3    H125704   3.361   4.755   4.299
 8587TIP3    H225705   3.388   4.749   4.150
 8588TIP3   OH225706   1.353   0.252   1.842
 8588TIP3    H125707   1.352   0.318   1.912
 8588TIP3    H225708   1.304   0.291   1.770
 8589TIP3   OH225709   7.919   1.091   4.715
 8589TIP3    H125710   7.931   1.127   4.627
 8589TIP3    H225711   7.825   1.075   4.721
 8590TIP3   OH225712   2.683   1.197   6.250
 8590TIP3    H125713   2.699   1.253   6.174
 8590TIP3    H225714   2.613   1.241   6.298
 8591TIP3   OH225715   4.303   7.663   2.475
 8591TIP3    H125716   4.237   7.599   2.504
 8591TIP3    H225717   4.373   7.656   2.540
 8592TIP3   OH225718   2.895   5.404   6.257
 8592TIP3    H125719   2.818   5.365   6.216
 8592TIP3    H225720   2.874   5.405   6.351
 8593TIP3   OH225721   5.405   3.976   3.840
 8593TIP3    H125722   5.446   4.055   3.804
 8593TIP3    H225723   5.316   3.977   3.805
 8594TIP3   OH225724   2.059   7.102   0.539
 8594TIP3    H125725   1.989   7.062   0.591
 8594TIP3    H225726   2.140   7.078   0.584
 8595TIP3   OH225727   5.813   5.423   1.126
 8595TIP3    H125728   5.740   5.446   1.068
 8595TIP3    H225729   5.870   5.369   1.073
 8596TIP3   OH225730   7.294   0.666   0.033
 8596TIP3    H125731   7.358   0.710   0.089
 8596TIP3    H225732   7.344   0.596  -0.010
 8597TIP3   OH225733   1.749   0.240   6.665
 8597TIP3    H125734   1.756   0.280   6.752
 8597TIP3    H225735   1.676   0.178   6.673
 8598TIP3   OH225736   6.321   1.276   5.730
 8598TIP3    H125737   6.398   1.225   5.706
 8598TIP3    H225738   6.259   1.211   5.764
 8599TIP3   OH225739   7.591   1.658   0.642
 8599TIP3    H125740   7.629   1.722   0.702
 8599TIP3    H225741   7.528   1.609   0.695
 8600TIP3   OH225742   4.969   1.982   1.649
 8600TIP3    H125743   4.976   1.888   1.663
 8600TIP3    H225744   5.026   2.021   1.715
 8601TIP3   OH225745   7.591   5.812   4.417
 8601TIP3    H125746   7.678   5.851   4.420
 8601TIP3    H225747   7.544   5.866   4.352
 8602TIP3   OH225748   3.358   1.529   5.358
 8602TIP3    H125749   3.373   1.500   5.448
 8602TIP3    H225750   3.414   1.606   5.348
 8603TIP3   OH225751   5.157   7.749   3.231
 8603TIP3    H125752   5.187   7.659   3.241
 8603TIP3    H225753   5.067   7.740   3.198
 8604TIP3   OH225754   0.224   2.607   0.356
 8604TIP3    H125755   0.160   2.556   0.405
 8604TIP3    H225756   0.282   2.542   0.318
 8605TIP3   OH225757   3.037   4.738   2.313
 8605TIP3    H125758   3.047   4.657   2.263
 8605TIP3    H225759   3.012   4.803   2.247
 8606TIP3   OH225760   0.473   4.221   6.695
 8606TIP3    H125761   0.449   4.235   6.603
 8606TIP3    H225762   0.539   4.151   6.691
 8607TIP3   OH225763   8.023   5.104   1.779
 8607TIP3    H125764   8.046   5.169   1.713
 8607TIP3    H225765   7.969   5.041   1.732
 8608TIP3   OH225766   5.422   3.504   2.649
 8608TIP3    H125767   5.370   3.495   2.569
 8608TIP3    H225768   5.439   3.598   2.655
 8609TIP3   OH225769   1.247   6.054   0.178
 8609TIP3    H125770   1.293   6.116   0.235
 8609TIP3    H225771   1.184   6.012   0.235
 8610TIP3   OH225772   4.856   1.578   4.906
 8610TIP3    H125773   4.902   1.564   4.823
 8610TIP3    H225774   4.922   1.559   4.973
 8611TIP3   OH225775   3.546   0.365   2.295
 8611TIP3    H125776   3.531   0.447   2.248
 8611TIP3    H225777   3.526   0.297   2.230
 8612TIP3   OH225778   2.511   4.077   1.149
 8612TIP3    H125779   2.516   4.052   1.057
 8612TIP3    H225780   2.492   4.171   1.148
 8613TIP3   OH225781   6.452   6.153   3.977
 8613TIP3    H125782   6.474   6.065   4.009
 8613TIP3    H225783   6.401   6.192   4.048
 8614TIP3   OH225784   1.195   0.261   5.872
 8614TIP3    H125785   1.228   0.262   5.962
 8614TIP3    H225786   1.225   0.177   5.837
 8615TIP3   OH225787   1.997   2.412   5.132
 8615TIP3    H125788   2.068   2.422   5.196
 8615TIP3    H225789   1.930   2.362   5.179
 8616TIP3   OH225790   4.730   3.435   6.588
 8616TIP3    H125791   4.663   3.442   6.521
 8616TIP3    H225792   4.804   3.485   6.554
 8617TIP3   OH225793   2.784   7.009   5.353
 8617TIP3    H125794   2.840   7.064   5.299
 8617TIP3    H225795   2.834   6.997   5.434
 8618TIP3   OH225796   5.770   3.726   4.879
 8618TIP3    H125797   5.764   3.789   4.951
 8618TIP3    H225798   5.681   3.693   4.868
 8619TIP3   OH225799   0.077   5.449   4.907
 8619TIP3    H125800  -0.013   5.442   4.937
 8619TIP3    H225801   0.107   5.358   4.902
 8620TIP3   OH225802   0.637   3.995   4.557
 8620TIP3    H125803   0.551   4.013   4.518
 8620TIP3    H225804   0.619   3.988   4.651
 8621TIP3   OH225805   1.669   4.429   1.444
 8621TIP3    H125806   1.659   4.522   1.422
 8621TIP3    H225807   1.582   4.402   1.472
 8622TIP3   OH225808   6.418   1.427   2.851
 8622TIP3    H125809   6.460   1.386   2.927
 8622TIP3    H225810   6.362   1.495   2.888
 8623TIP3   OH225811   5.363   5.485   2.757
 8623TIP3    H125812   5.434   5.519   2.812
 8623TIP3    H225813   5.284   5.500   2.807
 8624TIP3   OH225814   1.466   4.608   2.404
 8624TIP3    H125815   1.484   4.701   2.414
 8624TIP3    H225816   1.409   4.602   2.327
 8625TIP3   OH225817   2.718   7.810   6.549
 8625TIP3    H125818   2.782   7.826   6.617
 8625TIP3    H225819   2.758   7.742   6.493
 8626TIP3   OH225820   6.287   2.594   2.777
 8626TIP3    H125821   6.342   2.529   2.822
 8626TIP3    H225822   6.300   2.576   2.684
 8627TIP3   OH225823   1.035   4.703   1.140
 8627TIP3    H125824   0.968   4.636   1.148
 8627TIP3    H225825   1.112   4.664   1.182
 8628TIP3   OH225826   0.697   3.249   0.160
 8628TIP3    H125827   0.782   3.252   0.203
 8628TIP3    H225828   0.666   3.340   0.161
 8629TIP3   OH225829   2.726   3.172   0.930
 8629TIP3    H125830   2.660   3.213   0.986
 8629TIP3    H225831   2.780   3.244   0.900
 8630TIP3   OH225832   4.535   4.032   4.007
 8630TIP3    H125833   4.603   4.037   4.075
 8630TIP3    H225834   4.575   4.073   3.930
 8631TIP3   OH225835   3.877   5.001   1.879
 8631TIP3    H125836   3.838   5.069   1.934
 8631TIP3    H225837   3.880   5.040   1.792
 8632TIP3   OH225838   4.028   6.431   4.145
 8632TIP3    H125839   4.030   6.474   4.059
 8632TIP3    H225840   3.937   6.441   4.175
 8633TIP3   OH225841   4.480   2.919   4.765
 8633TIP3    H125842   4.403   2.958   4.723
 8633TIP3    H225843   4.471   2.942   4.857
 8634TIP3   OH225844   7.213   0.111   2.168
 8634TIP3    H125845   7.259   0.095   2.251
 8634TIP3    H225846   7.164   0.030   2.152
 8635TIP3   OH225847   5.552   2.783   4.117
 8635TIP3    H125848   5.567   2.803   4.024
 8635TIP3    H225849   5.497   2.854   4.148
 8636TIP3   OH225850   5.546   2.768   6.406
 8636TIP3    H125851   5.552   2.727   6.493
 8636TIP3    H225852   5.576   2.858   6.420
 8637TIP3   OH225853   5.194   0.312   4.670
 8637TIP3    H125854   5.243   0.332   4.590
 8637TIP3    H225855   5.254   0.332   4.741
 8638TIP3   OH225856   5.748   1.052   2.833
 8638TIP3    H125857   5.755   1.123   2.896
 8638TIP3    H225858   5.657   1.054   2.804
 8639TIP3   OH225859   3.695   1.044   2.842
 8639TIP3    H125860   3.650   0.960   2.844
 8639TIP3    H225861   3.744   1.047   2.924
 8640TIP3   OH225862   2.772   4.095   0.741
 8640TIP3    H125863   2.832   4.088   0.815
 8640TIP3    H225864   2.768   4.007   0.705
 8641TIP3   OH225865   6.421   6.059   2.134
 8641TIP3    H125866   6.514   6.053   2.157
 8641TIP3    H225867   6.417   6.034   2.041
 8642TIP3   OH225868   3.251   7.305   0.178
 8642TIP3    H125869   3.278   7.219   0.207
 8642TIP3    H225870   3.332   7.355   0.168
 8643TIP3   OH225871   2.789   6.999   2.463
 8643TIP3    H125872   2.756   7.062   2.399
 8643TIP3    H225873   2.864   6.958   2.420
 8644TIP3   OH225874   7.099   5.580   1.417
 8644TIP3    H125875   7.079   5.672   1.433
 8644TIP3    H225876   7.098   5.540   1.504
 8645TIP3   OH225877   4.211   3.411   6.741
 8645TIP3    H125878   4.154   3.344   6.780
 8645TIP3    H225879   4.180   3.493   6.778
 8646TIP3   OH225880   6.523   5.362   4.096
 8646TIP3    H125881   6.591   5.306   4.134
 8646TIP3    H225882   6.504   5.322   4.011
 8647TIP3   OH225883   1.079   7.095   4.292
 8647TIP3    H125884   1.113   7.011   4.261
 8647TIP3    H225885   1.147   7.158   4.269
 8648TIP3   OH225886   7.761   1.455   6.153
 8648TIP3    H125887   7.687   1.401   6.180
 8648TIP3    H225888   7.741   1.482   6.064
 8649TIP3   OH225889   1.012   7.358   0.367
 8649TIP3    H125890   1.066   7.306   0.308
 8649TIP3    H225891   0.985   7.434   0.315
 8650TIP3   OH225892   1.251   6.834   6.242
 8650TIP3    H125893   1.333   6.846   6.291
 8650TIP3    H225894   1.268   6.876   6.158
 8651TIP3   OH225895   4.877   0.078   3.913
 8651TIP3    H125896   4.915   0.116   3.834
 8651TIP3    H225897   4.785   0.064   3.891
 8652TIP3   OH225898   0.696   4.115   4.290
 8652TIP3    H125899   0.679   4.082   4.378
 8652TIP3    H225900   0.618   4.166   4.267
 8653TIP3   OH225901   6.970   0.380   0.290
 8653TIP3    H125902   7.035   0.433   0.335
 8653TIP3    H225903   6.935   0.321   0.358
 8654TIP3   OH225904   7.131   4.849   3.090
 8654TIP3    H125905   7.148   4.756   3.104
 8654TIP3    H225906   7.209   4.893   3.124
 8655TIP3   OH225907   5.983   0.314   0.698
 8655TIP3    H125908   5.993   0.406   0.673
 8655TIP3    H225909   6.041   0.267   0.639
 8656TIP3   OH225910   4.513   1.562   6.530
 8656TIP3    H125911   4.426   1.558   6.491
 8656TIP3    H225912   4.541   1.653   6.518
 8657TIP3   OH225913   1.326   5.070   2.631
 8657TIP3    H125914   1.285   4.986   2.651
 8657TIP3    H225915   1.358   5.060   2.541
 8658TIP3   OH225916   8.157   1.867   3.431
 8658TIP3    H125917   8.173   1.775   3.455
 8658TIP3    H225918   8.244   1.903   3.413
 8659TIP3   OH225919   7.466   4.183   6.778
 8659TIP3    H125920   7.522   4.260   6.762
 8659TIP3    H225921   7.393   4.194   6.718
 8660TIP3   OH225922   2.776   3.790   0.701
 8660TIP3    H125923   2.809   3.711   0.658
 8660TIP3    H225924   2.852   3.846   0.709
 8661TIP3   OH225925   4.420   3.902   2.266
 8661TIP3    H125926   4.367   3.840   2.216
 8661TIP3    H225927   4.410   3.985   2.219
 8662TIP3   OH225928   1.145   7.073   5.711
 8662TIP3    H125929   1.050   7.068   5.694
 8662TIP3    H225930   1.183   7.096   5.627
 8663TIP3   OH225931   5.068   5.961   0.430
 8663TIP3    H125932   5.019   5.959   0.512
 8663TIP3    H225933   5.069   5.870   0.401
 8664TIP3   OH225934   4.903   0.318   2.506
 8664TIP3    H125935   4.937   0.328   2.595
 8664TIP3    H225936   4.860   0.232   2.506
 8665TIP3   OH225937   3.765   1.470   5.939
 8665TIP3    H125938   3.783   1.536   5.872
 8665TIP3    H225939   3.845   1.465   5.990
 8666TIP3   OH225940   6.453   3.441   4.866
 8666TIP3    H125941   6.475   3.493   4.789
 8666TIP3    H225942   6.534   3.436   4.916
 8667TIP3   OH225943   4.838   0.357   4.982
 8667TIP3    H125944   4.872   0.402   4.904
 8667TIP3    H225945   4.743   0.354   4.968
 8668TIP3   OH225946   3.646   1.525   5.590
 8668TIP3    H125947   3.667   1.521   5.497
 8668TIP3    H225948   3.699   1.596   5.624
 8669TIP3   OH225949   3.922   5.029   0.765
 8669TIP3    H125950   3.970   5.026   0.847
 8669TIP3    H225951   3.872   4.947   0.764
 8670TIP3   OH225952   0.851   5.453   5.029
 8670TIP3    H125953   0.876   5.361   5.022
 8670TIP3    H225954   0.806   5.472   4.947
 8671TIP3   OH225955   0.380   0.342   2.289
 8671TIP3    H125956   0.301   0.348   2.236
 8671TIP3    H225957   0.431   0.271   2.249
 8672TIP3   OH225958   0.540   7.774   3.863
 8672TIP3    H125959   0.448   7.775   3.835
 8672TIP3    H225960   0.579   7.702   3.813
 8673TIP3   OH225961   0.644   3.107   2.738
 8673TIP3    H125962   0.639   3.192   2.695
 8673TIP3    H225963   0.721   3.065   2.700
 8674TIP3   OH225964   1.649   6.499   0.153
 8674TIP3    H125965   1.644   6.582   0.105
 8674TIP3    H225966   1.739   6.469   0.139
 8675TIP3   OH225967   6.039   1.244   3.716
 8675TIP3    H125968   6.017   1.158   3.680
 8675TIP3    H225969   5.960   1.271   3.763
 8676TIP3   OH225970   1.426   2.031   5.273
 8676TIP3    H125971   1.361   2.016   5.205
 8676TIP3    H225972   1.498   2.075   5.228
 8677TIP3   OH225973   7.859   7.007   5.350
 8677TIP3    H125974   7.797   6.934   5.348
 8677TIP3    H225975   7.807   7.081   5.384
 8678TIP3   OH225976   4.439   2.852   5.737
 8678TIP3    H125977   4.452   2.913   5.664
 8678TIP3    H225978   4.527   2.835   5.770
 8679TIP3   OH225979   5.705   5.802   2.214
 8679TIP3    H125980   5.717   5.811   2.309
 8679TIP3    H225981   5.789   5.768   2.182
 8680TIP3   OH225982   1.061   7.806   6.280
 8680TIP3    H125983   1.013   7.739   6.230
 8680TIP3    H225984   1.152   7.796   6.252
 8681TIP3   OH225985   4.246   1.454   2.174
 8681TIP3    H125986   4.259   1.373   2.223
 8681TIP3    H225987   4.282   1.436   2.087
 8682TIP3   OH225988   3.755   7.024   6.445
 8682TIP3    H125989   3.733   7.041   6.354
 8682TIP3    H225990   3.721   7.100   6.492
 8683TIP3   OH225991   4.782   5.580   1.243
 8683TIP3    H125992   4.708   5.548   1.294
 8683TIP3    H225993   4.858   5.539   1.283
 8684TIP3   OH225994   2.395   6.366   3.808
 8684TIP3    H125995   2.472   6.354   3.863
 8684TIP3    H225996   2.389   6.285   3.758
 8685TIP3   OH225997   7.857   3.307   6.319
 8685TIP3    H125998   7.869   3.234   6.258
 8685TIP3    H225999   7.909   3.283   6.396
 8686TIP3   OH226000   4.502   5.442   4.279
 8686TIP3    H126001   4.554   5.419   4.201
 8686TIP3    H226002   4.529   5.531   4.300
 8687TIP3   OH226003   1.979   5.415   6.391
 8687TIP3    H126004   1.884   5.408   6.394
 8687TIP3    H226005   1.999   5.450   6.305
 8688TIP3   OH226006   3.813   6.464   2.709
 8688TIP3    H126007   3.739   6.404   2.712
 8688TIP3    H226008   3.881   6.415   2.663
 8689TIP3   OH226009   6.302   3.293   5.630
 8689TIP3    H126010   6.293   3.388   5.627
 8689TIP3    H226011   6.384   3.275   5.583
 8690TIP3   OH226012   0.549   5.158   0.372
 8690TIP3    H126013   0.519   5.171   0.462
 8690TIP3    H226014   0.544   5.245   0.332
 8691TIP3   OH226015   2.444   3.436   0.534
 8691TIP3    H126016   2.502   3.481   0.596
 8691TIP3    H226017   2.398   3.507   0.489
 8692TIP3   OH226018   2.135   5.586   3.620
 8692TIP3    H126019   2.098   5.498   3.619
 8692TIP3    H226020   2.211   5.580   3.678
 8693TIP3   OH226021   4.571   6.911   4.972
 8693TIP3    H126022   4.632   6.968   4.925
 8693TIP3    H226023   4.539   6.850   4.905
 8694TIP3   OH226024   2.186   0.874   6.058
 8694TIP3    H126025   2.199   0.914   5.973
 8694TIP3    H226026   2.274   0.873   6.097
 8695TIP3   OH226027   0.489   5.457   2.259
 8695TIP3    H126028   0.437   5.380   2.239
 8695TIP3    H226029   0.553   5.427   2.323
 8696TIP3   OH226030   5.859   0.075   5.319
 8696TIP3    H126031   5.807   0.124   5.255
 8696TIP3    H226032   5.794   0.028   5.372
 8697TIP3   OH226033   3.404   7.404   2.539
 8697TIP3    H126034   3.486   7.403   2.488
 8697TIP3    H226035   3.403   7.491   2.580
 8698TIP3   OH226036   5.183   4.476   3.103
 8698TIP3    H126037   5.091   4.468   3.127
 8698TIP3    H226038   5.199   4.405   3.041
 8699TIP3   OH226039   8.284   6.812   6.427
 8699TIP3    H126040   8.214   6.807   6.361
 8699TIP3    H226041   8.350   6.868   6.387
 8700TIP3   OH226042   2.501   2.125   3.735
 8700TIP3    H126043   2.531   2.054   3.679
 8700TIP3    H226044   2.525   2.205   3.688
 8701TIP3   OH226045   4.412   7.492   5.756
 8701TIP3    H126046   4.337   7.456   5.803
 8701TIP3    H226047   4.382   7.576   5.722
 8702TIP3   OH226048   6.235   6.001   1.375
 8702TIP3    H126049   6.233   6.009   1.279
 8702TIP3    H226050   6.329   6.000   1.396
 8703TIP3   OH226051   5.891   1.738   6.150
 8703TIP3    H126052   5.861   1.703   6.066
 8703TIP3    H226053   5.867   1.670   6.214
 8704TIP3   OH226054   6.547   5.739   2.669
 8704TIP3    H126055   6.478   5.680   2.699
 8704TIP3    H226056   6.627   5.706   2.711
 8705TIP3   OH226057   5.408   0.069   3.145
 8705TIP3    H126058   5.387  -0.024   3.142
 8705TIP3    H226059   5.499   0.072   3.173
 8706TIP3   OH226060   3.411   4.343   4.482
 8706TIP3    H126061   3.426   4.371   4.391
 8706TIP3    H226062   3.384   4.252   4.474
 8707TIP3   OH226063   1.073   7.727   6.543
 8707TIP3    H126064   1.077   7.772   6.458
 8707TIP3    H226065   1.149   7.669   6.544
 8708TIP3   OH226066   4.618   7.087   1.663
 8708TIP3    H126067   4.539   7.110   1.712
 8708TIP3    H226068   4.612   7.138   1.582
 8709TIP3   OH226069   1.557   2.727   1.772
 8709TIP3    H126070   1.497   2.785   1.725
 8709TIP3    H226071   1.525   2.639   1.755
 8710TIP3   OH226072   6.777   5.432   3.854
 8710TIP3    H126073   6.683   5.414   3.842
 8710TIP3    H226074   6.790   5.428   3.949
 8711TIP3   OH226075   3.669   7.779   3.841
 8711TIP3    H126076   3.747   7.731   3.813
 8711TIP3    H226077   3.681   7.867   3.803
 8712TIP3   OH226078   7.769   7.587   6.334
 8712TIP3    H126079   7.849   7.623   6.295
 8712TIP3    H226080   7.796   7.558   6.421
 8713TIP3   OH226081   1.486   3.422   6.116
 8713TIP3    H126082   1.548   3.354   6.090
 8713TIP3    H226083   1.428   3.432   6.040
 8714TIP3   OH226084   5.269   7.797   3.597
 8714TIP3    H126085   5.342   7.811   3.536
 8714TIP3    H226086   5.196   7.845   3.557
 8715TIP3   OH226087   4.310   3.411   4.958
 8715TIP3    H126088   4.287   3.503   4.941
 8715TIP3    H226089   4.402   3.404   4.932
 8716TIP3   OH226090   6.044   0.478   0.127
 8716TIP3    H126091   6.093   0.545   0.078
 8716TIP3    H226092   6.042   0.403   0.068
 8717TIP3   OH226093   4.365   5.795   0.356
 8717TIP3    H126094   4.434   5.827   0.298
 8717TIP3    H226095   4.361   5.860   0.427
 8718TIP3   OH226096   6.092   1.213   1.957
 8718TIP3    H126097   6.079   1.129   1.913
 8718TIP3    H226098   6.183   1.236   1.938
 8719TIP3   OH226099   4.853   2.510   2.260
 8719TIP3    H126100   4.929   2.535   2.207
 8719TIP3    H226101   4.861   2.562   2.340
 8720TIP3   OH226102   6.336   4.052   0.678
 8720TIP3    H126103   6.430   4.035   0.673
 8720TIP3    H226104   6.304   4.040   0.589
 8721TIP3   OH226105   6.205   4.260   2.039
 8721TIP3    H126106   6.137   4.206   2.080
 8721TIP3    H226107   6.192   4.347   2.077
 8722TIP3   OH226108   7.159   4.026   2.223
 8722TIP3    H126109   7.154   4.114   2.185
 8722TIP3    H226110   7.234   3.986   2.179
 8723TIP3   OH226111   7.490   0.857   2.547
 8723TIP3    H126112   7.516   0.816   2.630
 8723TIP3    H226113   7.501   0.950   2.562
 8724TIP3   OH226114   0.327   0.675   1.297
 8724TIP3    H126115   0.392   0.663   1.228
 8724TIP3    H226116   0.301   0.586   1.321
 8725TIP3   OH226117   6.840   4.173   0.064
 8725TIP3    H126118   6.788   4.180  -0.016
 8725TIP3    H226119   6.905   4.105   0.044
 8726TIP3   OH226120   7.262   4.582   3.553
 8726TIP3    H126121   7.316   4.503   3.562
 8726TIP3    H226122   7.301   4.629   3.479
 8727TIP3   OH226123   6.260   4.012   5.839
 8727TIP3    H126124   6.221   4.072   5.775
 8727TIP3    H226125   6.353   4.009   5.814
 8728TIP3   OH226126   7.137   6.761   3.562
 8728TIP3    H126127   7.077   6.722   3.626
 8728TIP3    H226128   7.145   6.852   3.591
 8729TIP3   OH226129   3.189   7.068  -0.028
 8729TIP3    H126130   3.101   7.057   0.008
 8729TIP3    H226131   3.239   6.995   0.007
 8730TIP3   OH226132   3.645   1.925   3.704
 8730TIP3    H126133   3.722   1.928   3.646
 8730TIP3    H226134   3.681   1.939   3.791
 8731TIP3   OH226135   3.397   2.221   4.467
 8731TIP3    H126136   3.429   2.297   4.515
 8731TIP3    H226137   3.414   2.241   4.375
 8732TIP3   OH226138   1.966   0.203   3.111
 8732TIP3    H126139   2.026   0.132   3.089
 8732TIP3    H226140   1.913   0.215   3.032
 8733TIP3   OH226141   0.840   1.582   1.079
 8733TIP3    H126142   0.890   1.631   1.144
 8733TIP3    H226143   0.873   1.492   1.087
 8734TIP3   OH226144   3.563   1.206   5.454
 8734TIP3    H126145   3.470   1.220   5.473
 8734TIP3    H226146   3.609   1.237   5.532
 8735TIP3   OH226147   0.553   0.864   2.699
 8735TIP3    H126148   0.470   0.847   2.744
 8735TIP3    H226149   0.566   0.788   2.643
 8736TIP3   OH226150   1.104   1.306   5.707
 8736TIP3    H126151   1.160   1.253   5.650
 8736TIP3    H226152   1.065   1.371   5.647
 8737TIP3   OH226153   0.307   4.914   5.134
 8737TIP3    H126154   0.291   4.905   5.040
 8737TIP3    H226155   0.221   4.902   5.174
 8738TIP3   OH226156   4.718   0.434   3.730
 8738TIP3    H126157   4.713   0.379   3.652
 8738TIP3    H226158   4.741   0.521   3.698
 8739TIP3   OH226159   1.438   0.957   5.836
 8739TIP3    H126160   1.378   1.008   5.890
 8739TIP3    H226161   1.396   0.953   5.750
 8740TIP3   OH226162   7.487   4.255   0.042
 8740TIP3    H126163   7.398   4.227   0.019
 8740TIP3    H226164   7.496   4.234   0.135
 8741TIP3   OH226165   0.059   6.575   5.815
 8741TIP3    H126166   0.024   6.514   5.879
 8741TIP3    H226167   0.153   6.557   5.814
 8742TIP3   OH226168   7.683   7.476   3.708
 8742TIP3    H126169   7.721   7.558   3.675
 8742TIP3    H226170   7.753   7.437   3.761
 8743TIP3   OH226171   5.257   6.640   4.933
 8743TIP3    H126172   5.286   6.661   5.022
 8743TIP3    H226173   5.201   6.714   4.909
 8744TIP3   OH226174   7.057   5.850   2.494
 8744TIP3    H126175   7.117   5.908   2.448
 8744TIP3    H226176   7.114   5.792   2.544
 8745TIP3   OH226177   8.085   1.346   4.305
 8745TIP3    H126178   8.149   1.348   4.234
 8745TIP3    H226179   8.009   1.392   4.271
 8746TIP3   OH226180   5.859   0.577   6.694
 8746TIP3    H126181   5.864   0.543   6.605
 8746TIP3    H226182   5.873   0.500   6.750
 8747TIP3   OH226183   4.542   0.385   6.019
 8747TIP3    H126184   4.522   0.473   5.989
 8747TIP3    H226185   4.503   0.380   6.106
 8748TIP3   OH226186   0.514   3.200   0.348
 8748TIP3    H126187   0.581   3.201   0.279
 8748TIP3    H226188   0.510   3.290   0.379
 8749TIP3   OH226189   0.891   5.369   0.982
 8749TIP3    H126190   0.973   5.395   1.025
 8749TIP3    H226191   0.837   5.448   0.985
 8750TIP3   OH226192   0.076   6.960   6.014
 8750TIP3    H126193   0.013   6.892   5.989
 8750TIP3    H226194   0.049   6.986   6.102
 8751TIP3   OH226195   2.506   0.083   3.413
 8751TIP3    H126196   2.587   0.120   3.380
 8751TIP3    H226197   2.530   0.042   3.496
 8752TIP3   OH226198   6.055   6.152   0.650
 8752TIP3    H126199   6.040   6.076   0.594
 8752TIP3    H226200   6.094   6.217   0.592
 8753TIP3   OH226201   3.010   1.587   1.915
 8753TIP3    H126202   3.069   1.583   1.990
 8753TIP3    H226203   3.007   1.680   1.892
 8754TIP3   OH226204   1.066   7.399   3.086
 8754TIP3    H126205   1.114   7.421   3.166
 8754TIP3    H226206   1.124   7.340   3.039
 8755TIP3   OH226207   5.791   1.379   0.967
 8755TIP3    H126208   5.794   1.362   1.061
 8755TIP3    H226209   5.768   1.295   0.928
 8756TIP3   OH226210   3.362   0.315   4.727
 8756TIP3    H126211   3.409   0.399   4.721
 8756TIP3    H226212   3.271   0.339   4.713
 8757TIP3   OH226213   2.737   2.965   3.910
 8757TIP3    H126214   2.821   2.985   3.869
 8757TIP3    H226215   2.760   2.921   3.992
 8758TIP3   OH226216   0.568   2.730   5.905
 8758TIP3    H126217   0.570   2.764   5.995
 8758TIP3    H226218   0.650   2.760   5.867
 8759TIP3   OH226219   7.180   2.489   1.552
 8759TIP3    H126220   7.093   2.492   1.592
 8759TIP3    H226221   7.240   2.512   1.623
 8760TIP3   OH226222   0.607   6.989   4.173
 8760TIP3    H126223   0.681   7.045   4.199
 8760TIP3    H226224   0.570   6.958   4.255
 8761TIP3   OH226225   1.791   2.130   5.584
 8761TIP3    H126226   1.872   2.125   5.634
 8761TIP3    H226227   1.722   2.119   5.649
 8762TIP3   OH226228   5.867   7.283   4.917
 8762TIP3    H126229   5.925   7.360   4.911
 8762TIP3    H226230   5.832   7.273   4.828
 8763TIP3   OH226231   2.643   7.789   5.379
 8763TIP3    H126232   2.737   7.767   5.379
 8763TIP3    H226233   2.637   7.869   5.327
 8764TIP3   OH226234   6.774   5.654   0.014
 8764TIP3    H126235   6.725   5.618  -0.060
 8764TIP3    H226236   6.716   5.642   0.089
 8765TIP3   OH226237   5.943   0.599   5.437
 8765TIP3    H126238   5.997   0.564   5.366
 8765TIP3    H226239   5.956   0.694   5.432
 8766TIP3   OH226240   5.312   6.690   5.205
 8766TIP3    H126241   5.246   6.681   5.274
 8766TIP3    H226242   5.371   6.616   5.219
 8767TIP3   OH226243   4.236   7.553   1.438
 8767TIP3    H126244   4.214   7.626   1.381
 8767TIP3    H226245   4.161   7.543   1.496
 8768TIP3   OH226246   1.239   6.430   4.796
 8768TIP3    H126247   1.218   6.371   4.868
 8768TIP3    H226248   1.163   6.426   4.738
 8769TIP3   OH226249   1.476   0.992   4.336
 8769TIP3    H126250   1.406   1.028   4.282
 8769TIP3    H226251   1.498   1.063   4.397
 8770TIP3   OH226252   8.316   6.083   3.061
 8770TIP3    H126253   8.286   5.993   3.046
 8770TIP3    H226254   8.242   6.138   3.036
 8771TIP3   OH226255   2.692   3.089   2.753
 8771TIP3    H126256   2.704   2.995   2.768
 8771TIP3    H226257   2.702   3.100   2.658
 8772TIP3   OH226258   0.744   0.923   5.875
 8772TIP3    H126259   0.813   0.981   5.842
 8772TIP3    H226260   0.747   0.933   5.970
 8773TIP3   OH226261   1.033   2.296   4.217
 8773TIP3    H126262   1.098   2.283   4.285
 8773TIP3    H226263   1.036   2.390   4.197
 8774TIP3   OH226264   4.998   6.512   4.791
 8774TIP3    H126265   4.959   6.496   4.878
 8774TIP3    H226266   5.083   6.467   4.794
 8775TIP3   OH226267   7.758   2.956   5.513
 8775TIP3    H126268   7.812   3.017   5.563
 8775TIP3    H226269   7.684   3.009   5.482
 8776TIP3   OH226270   0.106   0.831   3.114
 8776TIP3    H126271   0.095   0.790   3.200
 8776TIP3    H226272   0.186   0.882   3.122
 8777TIP3   OH226273   0.194   6.203   3.968
 8777TIP3    H126274   0.138   6.213   3.891
 8777TIP3    H226275   0.136   6.168   4.035
 8778TIP3   OH226276   7.929   3.351   5.251
 8778TIP3    H126277   8.005   3.405   5.230
 8778TIP3    H226278   7.904   3.379   5.339
 8779TIP3   OH226279   2.911   4.990   1.897
 8779TIP3    H126280   2.970   5.065   1.889
 8779TIP3    H226281   2.842   5.008   1.833
 8780TIP3   OH226282   6.154   4.716   3.131
 8780TIP3    H126283   6.077   4.664   3.113
 8780TIP3    H226284   6.204   4.716   3.049
 8781TIP3   OH226285   4.059   6.068   2.694
 8781TIP3    H126286   4.054   5.995   2.756
 8781TIP3    H226287   4.111   6.035   2.622
 8782TIP3   OH226288   8.090   1.941   1.520
 8782TIP3    H126289   8.148   1.868   1.541
 8782TIP3    H226290   8.070   1.981   1.605
 8783TIP3   OH226291   3.653   3.956   6.088
 8783TIP3    H126292   3.652   3.964   6.184
 8783TIP3    H226293   3.560   3.956   6.063
 8784TIP3   OH226294   7.394   5.970   1.029
 8784TIP3    H126295   7.408   6.016   1.112
 8784TIP3    H226296   7.313   6.006   0.994
 8785TIP3   OH226297   4.805   5.227   4.814
 8785TIP3    H126298   4.844   5.152   4.769
 8785TIP3    H226299   4.833   5.303   4.763
 8786TIP3   OH226300   2.556   0.539   0.375
 8786TIP3    H126301   2.618   0.479   0.334
 8786TIP3    H226302   2.490   0.482   0.415
 8787TIP3   OH226303   5.724   3.371   4.861
 8787TIP3    H126304   5.689   3.291   4.900
 8787TIP3    H226305   5.691   3.442   4.916
 8788TIP3   OH226306   0.072   0.984   3.841
 8788TIP3    H126307   0.165   0.996   3.858
 8788TIP3    H226308   0.063   0.893   3.815
 8789TIP3   OH226309   2.091   1.984   0.179
 8789TIP3    H126310   2.101   1.894   0.208
 8789TIP3    H226311   2.066   2.032   0.258
 8790TIP3   OH226312   4.292   3.016   4.005
 8790TIP3    H126313   4.304   2.946   3.941
 8790TIP3    H226314   4.378   3.023   4.048
 8791TIP3   OH226315   1.530   1.927   0.772
 8791TIP3    H126316   1.524   1.866   0.698
 8791TIP3    H226317   1.491   2.008   0.738
 8792TIP3   OH226318   6.288   2.466   1.297
 8792TIP3    H126319   6.344   2.501   1.366
 8792TIP3    H226320   6.338   2.393   1.261
 8793TIP3   OH226321   1.163   3.351   0.530
 8793TIP3    H126322   1.203   3.385   0.610
 8793TIP3    H226323   1.090   3.411   0.512
 8794TIP3   OH226324   2.476   1.335   0.931
 8794TIP3    H126325   2.565   1.346   0.962
 8794TIP3    H226326   2.435   1.275   0.994
 8795TIP3   OH226327   5.015   5.332   4.501
 8795TIP3    H126328   4.972   5.418   4.501
 8795TIP3    H226329   5.042   5.320   4.409
 8796TIP3   OH226330   4.641   4.599   0.431
 8796TIP3    H126331   4.643   4.694   0.421
 8796TIP3    H226332   4.606   4.568   0.348
 8797TIP3   OH226333   3.515   6.051   3.842
 8797TIP3    H126334   3.498   6.019   3.930
 8797TIP3    H226335   3.561   5.979   3.798
 8798TIP3   OH226336   1.046   2.355   3.023
 8798TIP3    H126337   1.124   2.398   2.987
 8798TIP3    H226338   0.973   2.399   2.980
 8799TIP3   OH226339   4.596   4.975   5.977
 8799TIP3    H126340   4.607   5.065   5.946
 8799TIP3    H226341   4.670   4.927   5.940
 8800TIP3   OH226342   0.548   1.967   0.945
 8800TIP3    H126343   0.570   2.003   1.031
 8800TIP3    H226344   0.555   1.873   0.955
 8801TIP3   OH226345   7.133   2.661   2.489
 8801TIP3    H126346   7.065   2.601   2.519
 8801TIP3    H226347   7.157   2.712   2.566
 8802TIP3   OH226348   0.087   2.185   4.793
 8802TIP3    H126349   0.020   2.237   4.749
 8802TIP3    H226350   0.128   2.245   4.855
 8803TIP3   OH226351   3.607   2.244   2.323
 8803TIP3    H126352   3.554   2.197   2.387
 8803TIP3    H226353   3.570   2.221   2.239
 8804TIP3   OH226354   3.812   7.391   6.343
 8804TIP3    H126355   3.788   7.310   6.388
 8804TIP3    H226356   3.743   7.404   6.278
 8805TIP3   OH226357   4.582   1.963   4.243
 8805TIP3    H126358   4.617   1.999   4.324
 8805TIP3    H226359   4.593   1.868   4.252
 8806TIP3   OH226360   4.701   7.511   0.481
 8806TIP3    H126361   4.646   7.434   0.496
 8806TIP3    H226362   4.752   7.489   0.403
 8807TIP3   OH226363   6.672   0.520   2.184
 8807TIP3    H126364   6.748   0.579   2.187
 8807TIP3    H226365   6.671   0.487   2.094
 8808TIP3   OH226366   0.869   5.610   6.287
 8808TIP3    H126367   0.924   5.582   6.213
 8808TIP3    H226368   0.879   5.540   6.351
 8809TIP3   OH226369   1.213   0.254   4.038
 8809TIP3    H126370   1.177   0.173   4.001
 8809TIP3    H226371   1.143   0.318   4.029
 8810TIP3   OH226372   6.302   6.470   4.371
 8810TIP3    H126373   6.287   6.509   4.457
 8810TIP3    H226374   6.391   6.436   4.375
 8811TIP3   OH226375   2.967   6.189   1.675
 8811TIP3    H126376   2.902   6.255   1.701
 8811TIP3    H226377   2.920   6.106   1.680
 8812TIP3   OH226378   7.872   4.372   6.161
 8812TIP3    H126379   7.777   4.369   6.151
 8812TIP3    H226380   7.902   4.287   6.130
 8813TIP3   OH226381   2.331   2.842   1.743
 8813TIP3    H126382   2.411   2.892   1.727
 8813TIP3    H226383   2.296   2.879   1.824
 8814TIP3   OH226384   2.193   3.904   3.682
 8814TIP3    H126385   2.274   3.917   3.730
 8814TIP3    H226386   2.216   3.842   3.612
 8815TIP3   OH226387   4.205   3.726   3.130
 8815TIP3    H126388   4.209   3.822   3.128
 8815TIP3    H226389   4.151   3.705   3.206
 8816TIP3   OH226390   6.151   0.026   6.078
 8816TIP3    H126391   6.066  -0.018   6.073
 8816TIP3    H226392   6.136   0.101   6.136
 8817TIP3   OH226393   3.106   6.895   3.088
 8817TIP3    H126394   3.159   6.879   3.009
 8817TIP3    H226395   3.079   6.808   3.117
 8818TIP3   OH226396   3.445   1.066   6.528
 8818TIP3    H126397   3.449   1.156   6.560
 8818TIP3    H226398   3.536   1.043   6.512
 8819TIP3   OH226399   4.689   2.442   6.468
 8819TIP3    H126400   4.761   2.379   6.471
 8819TIP3    H226401   4.660   2.450   6.558
 8820TIP3   OH226402   1.720   7.196   3.477
 8820TIP3    H126403   1.781   7.213   3.406
 8820TIP3    H226404   1.741   7.261   3.543
 8821TIP3   OH226405   5.105   3.405   0.197
 8821TIP3    H126406   5.135   3.494   0.181
 8821TIP3    H226407   5.148   3.380   0.279
 8822TIP3   OH226408   2.161   2.558   4.690
 8822TIP3    H126409   2.226   2.601   4.634
 8822TIP3    H226410   2.158   2.613   4.769
 8823TIP3   OH226411   2.121   0.451   2.581
 8823TIP3    H126412   2.188   0.499   2.533
 8823TIP3    H226413   2.047   0.444   2.520
 8824TIP3   OH226414   2.420   3.038   5.578
 8824TIP3    H126415   2.377   2.986   5.511
 8824TIP3    H226416   2.369   3.022   5.658
 8825TIP3   OH226417   7.502   0.188   0.831
 8825TIP3    H126418   7.537   0.235   0.907
 8825TIP3    H226419   7.579   0.147   0.792
 8826TIP3   OH226420   5.196   1.660   5.481
 8826TIP3    H126421   5.162   1.636   5.567
 8826TIP3    H226422   5.187   1.755   5.478
 8827TIP3   OH226423   7.744   4.309   0.427
 8827TIP3    H126424   7.710   4.355   0.350
 8827TIP3    H226425   7.839   4.309   0.414
 8828TIP3   OH226426   2.895   5.056   6.594
 8828TIP3    H126427   2.902   5.011   6.678
 8828TIP3    H226428   2.963   5.123   6.596
 8829TIP3   OH226429   5.207   4.793   1.506
 8829TIP3    H126430   5.297   4.764   1.487
 8829TIP3    H226431   5.157   4.768   1.429
 8830TIP3   OH226432   1.005   6.570   3.929
 8830TIP3    H126433   1.001   6.604   3.840
 8830TIP3    H226434   0.943   6.624   3.978
 8831TIP3   OH226435   7.512   1.587   3.893
 8831TIP3    H126436   7.551   1.500   3.903
 8831TIP3    H226437   7.424   1.570   3.858
 8832TIP3   OH226438   5.454   7.533   6.423
 8832TIP3    H126439   5.386   7.470   6.399
 8832TIP3    H226440   5.424   7.616   6.387
 8833TIP3   OH226441   7.954   4.201   5.041
 8833TIP3    H126442   7.960   4.278   4.986
 8833TIP3    H226443   7.899   4.228   5.114
 8834TIP3   OH226444   8.053   2.056   2.662
 8834TIP3    H126445   8.038   2.148   2.684
 8834TIP3    H226446   8.032   2.009   2.742
 8835TIP3   OH226447   8.286   1.209   1.928
 8835TIP3    H126448   8.294   1.265   1.850
 8835TIP3    H226449   8.220   1.253   1.982
 8836TIP3   OH226450   6.100   7.387   6.009
 8836TIP3    H126451   6.060   7.417   5.928
 8836TIP3    H226452   6.038   7.414   6.077
 8837TIP3   OH226453   2.766   0.658   0.831
 8837TIP3    H126454   2.816   0.580   0.856
 8837TIP3    H226455   2.831   0.726   0.817
 8838TIP3   OH226456   4.256   4.788   4.297
 8838TIP3    H126457   4.274   4.841   4.219
 8838TIP3    H226458   4.173   4.746   4.279
 8839TIP3   OH226459   2.968   4.323   4.034
 8839TIP3    H126460   3.030   4.251   4.022
 8839TIP3    H226461   3.021   4.394   4.072
 8840TIP3   OH226462   4.568   3.434   0.096
 8840TIP3    H126463   4.517   3.402   0.171
 8840TIP3    H226464   4.658   3.436   0.128
 8841TIP3   OH226465   6.109   2.977   6.016
 8841TIP3    H126466   6.042   3.028   6.061
 8841TIP3    H226467   6.174   3.042   5.989
 8842TIP3   OH226468   1.508   3.942   1.090
 8842TIP3    H126469   1.537   4.032   1.107
 8842TIP3    H226470   1.483   3.942   0.997
 8843TIP3   OH226471   7.101   2.321   4.836
 8843TIP3    H126472   7.190   2.354   4.820
 8843TIP3    H226473   7.052   2.398   4.864
 8844TIP3   OH226474   8.056   1.640   1.459
 8844TIP3    H126475   8.004   1.603   1.388
 8844TIP3    H226476   8.114   1.704   1.416
 8845TIP3   OH226477   4.969   3.292   4.495
 8845TIP3    H126478   4.955   3.292   4.401
 8845TIP3    H226479   4.883   3.273   4.533
 8846TIP3   OH226480   6.085   3.963   3.761
 8846TIP3    H126481   6.027   3.907   3.709
 8846TIP3    H226482   6.115   4.030   3.700
 8847TIP3   OH226483   3.056   7.492   1.076
 8847TIP3    H126484   3.031   7.454   1.161
 8847TIP3    H226485   3.057   7.586   1.091
 8848TIP3   OH226486   5.221   3.106   5.471
 8848TIP3    H126487   5.182   3.193   5.478
 8848TIP3    H226488   5.156   3.047   5.508
 8849TIP3   OH226489   0.960   1.417   3.354
 8849TIP3    H126490   0.983   1.362   3.279
 8849TIP3    H226491   0.996   1.503   3.333
 8850TIP3   OH226492   5.110   7.107   6.319
 8850TIP3    H126493   5.107   7.110   6.223
 8850TIP3    H226494   5.118   7.198   6.346
 8851TIP3   OH226495   5.456   1.852   3.173
 8851TIP3    H126496   5.435   1.768   3.215
 8851TIP3    H226497   5.545   1.872   3.202
 8852TIP3   OH226498   6.021   3.262   5.006
 8852TIP3    H126499   5.966   3.207   4.950
 8852TIP3    H226500   5.961   3.326   5.044
 8853TIP3   OH226501   5.610   1.032   5.624
 8853TIP3    H126502   5.684   1.034   5.686
 8853TIP3    H226503   5.651   1.040   5.538
 8854TIP3   OH226504   5.325   3.447   5.632
 8854TIP3    H126505   5.370   3.363   5.621
 8854TIP3    H226506   5.317   3.481   5.543
 8855TIP3   OH226507   7.776   4.039   6.269
 8855TIP3    H126508   7.716   4.008   6.336
 8855TIP3    H226509   7.722   4.049   6.191
 8856TIP3   OH226510   3.780   5.126   4.336
 8856TIP3    H126511   3.787   5.161   4.247
 8856TIP3    H226512   3.725   5.189   4.382
 8857TIP3   OH226513   7.289   7.597   5.274
 8857TIP3    H126514   7.253   7.681   5.303
 8857TIP3    H226515   7.297   7.545   5.354
 8858TIP3   OH226516   5.104   0.800   0.816
 8858TIP3    H126517   5.163   0.744   0.767
 8858TIP3    H226518   5.081   0.749   0.894
 8859TIP3   OH226519   2.977   4.724   4.847
 8859TIP3    H126520   2.972   4.820   4.845
 8859TIP3    H226521   2.956   4.698   4.757
 8860TIP3   OH226522   5.187   6.388   3.906
 8860TIP3    H126523   5.149   6.422   3.988
 8860TIP3    H226524   5.218   6.301   3.929
 8861TIP3   OH226525   3.892   2.776   2.049
 8861TIP3    H126526   3.978   2.737   2.061
 8861TIP3    H226527   3.896   2.858   2.098
 8862TIP3   OH226528   3.689   7.291   4.658
 8862TIP3    H126529   3.735   7.283   4.741
 8862TIP3    H226530   3.598   7.271   4.679
 8863TIP3   OH226531   5.873   5.330   0.877
 8863TIP3    H126532   5.910   5.243   0.894
 8863TIP3    H226533   5.780   5.314   0.861
 8864TIP3   OH226534   4.612   3.675   1.291
 8864TIP3    H126535   4.607   3.630   1.207
 8864TIP3    H226536   4.642   3.608   1.352
 8865TIP3   OH226537   7.602   4.786   5.639
 8865TIP3    H126538   7.628   4.836   5.561
 8865TIP3    H226539   7.669   4.718   5.646
 8866TIP3   OH226540   1.720   5.332   3.569
 8866TIP3    H126541   1.645   5.391   3.579
 8866TIP3    H226542   1.709   5.268   3.639
 8867TIP3   OH226543   1.952   2.484   4.234
 8867TIP3    H126544   1.878   2.424   4.224
 8867TIP3    H226545   1.998   2.480   4.150
 8868TIP3   OH226546   0.521   5.447   1.344
 8868TIP3    H126547   0.514   5.424   1.251
 8868TIP3    H226548   0.604   5.496   1.350
 8869TIP3   OH226549   1.250   4.148   5.006
 8869TIP3    H126550   1.302   4.175   5.082
 8869TIP3    H226551   1.220   4.231   4.968
 8870TIP3   OH226552   7.796   7.428   5.664
 8870TIP3    H126553   7.779   7.498   5.601
 8870TIP3    H226554   7.891   7.417   5.663
 8871TIP3   OH226555   5.697   3.018   4.482
 8871TIP3    H126556   5.708   2.985   4.393
 8871TIP3    H226557   5.735   3.106   4.479
 8872TIP3   OH226558   4.388   0.736   5.994
 8872TIP3    H126559   4.344   0.819   5.973
 8872TIP3    H226560   4.467   0.737   5.941
 8873TIP3   OH226561   2.784   5.395   0.591
 8873TIP3    H126562   2.688   5.388   0.595
 8873TIP3    H226563   2.802   5.485   0.615
 8874TIP3   OH226564   0.728   5.317   6.696
 8874TIP3    H126565   0.770   5.239   6.732
 8874TIP3    H226566   0.640   5.316   6.735
 8875TIP3   OH226567   4.715   3.946   2.746
 8875TIP3    H126568   4.752   3.980   2.665
 8875TIP3    H226569   4.632   3.907   2.720
 8876TIP3   OH226570   2.303   5.801   0.677
 8876TIP3    H126571   2.239   5.743   0.637
 8876TIP3    H226572   2.260   5.835   0.756
 8877TIP3   OH226573   0.997   4.599   3.412
 8877TIP3    H126574   0.906   4.609   3.384
 8877TIP3    H226575   1.019   4.508   3.391
 8878TIP3   OH226576   5.929   1.881   0.947
 8878TIP3    H126577   5.887   1.903   1.030
 8878TIP3    H226578   6.021   1.905   0.959
 8879TIP3   OH226579   4.740   7.493   4.597
 8879TIP3    H126580   4.758   7.399   4.598
 8879TIP3    H226581   4.709   7.510   4.508
 8880TIP3   OH226582   2.422   0.746   2.619
 8880TIP3    H126583   2.427   0.841   2.633
 8880TIP3    H226584   2.351   0.717   2.675
 8881TIP3   OH226585   7.673   0.651   2.232
 8881TIP3    H126586   7.683   0.663   2.137
 8881TIP3    H226587   7.578   0.655   2.246
 8882TIP3   OH226588   0.538   6.492   2.885
 8882TIP3    H126589   0.557   6.504   2.978
 8882TIP3    H226590   0.531   6.581   2.850
 8883TIP3   OH226591   8.283   3.643   0.870
 8883TIP3    H126592   8.327   3.726   0.892
 8883TIP3    H226593   8.212   3.636   0.934
 8884TIP3   OH226594   3.537   1.325   5.205
 8884TIP3    H126595   3.565   1.292   5.290
 8884TIP3    H226596   3.455   1.371   5.223
 8885TIP3   OH226597   6.624   3.797   0.423
 8885TIP3    H126598   6.627   3.850   0.503
 8885TIP3    H226599   6.669   3.850   0.357
 8886TIP3   OH226600   4.243   6.921   1.948
 8886TIP3    H126601   4.272   6.853   2.008
 8886TIP3    H226602   4.283   6.899   1.864
 8887TIP3   OH226603   4.521   1.747   3.996
 8887TIP3    H126604   4.459   1.687   3.952
 8887TIP3    H226605   4.578   1.689   4.046
 8888TIP3   OH226606   3.679   4.313   4.994
 8888TIP3    H126607   3.657   4.393   4.946
 8888TIP3    H226608   3.758   4.280   4.950
 8889TIP3   OH226609   4.736   5.235   6.703
 8889TIP3    H126610   4.767   5.159   6.751
 8889TIP3    H226611   4.695   5.290   6.770
 8890TIP3   OH226612   7.194   1.058   4.958
 8890TIP3    H126613   7.275   1.083   5.003
 8890TIP3    H226614   7.128   1.120   4.992
 8891TIP3   OH226615   2.210   0.740   1.596
 8891TIP3    H126616   2.144   0.803   1.568
 8891TIP3    H226617   2.230   0.689   1.517
 8892TIP3   OH226618   5.322   4.277   3.521
 8892TIP3    H126619   5.228   4.265   3.507
 8892TIP3    H226620   5.333   4.372   3.531
 8893TIP3   OH226621   4.761   6.777   0.987
 8893TIP3    H126622   4.804   6.812   1.065
 8893TIP3    H226623   4.810   6.816   0.914
 8894TIP3   OH226624   6.647   0.459   4.185
 8894TIP3    H126625   6.646   0.502   4.270
 8894TIP3    H226626   6.634   0.366   4.205
 8895TIP3   OH226627   2.981   4.639   0.359
 8895TIP3    H126628   3.039   4.588   0.416
 8895TIP3    H226629   3.027   4.644   0.276
 8896TIP3   OH226630   7.284   3.102   1.686
 8896TIP3    H126631   7.215   3.084   1.749
 8896TIP3    H226632   7.258   3.183   1.643
 8897TIP3   OH226633   7.352   1.255   6.468
 8897TIP3    H126634   7.280   1.262   6.530
 8897TIP3    H226635   7.325   1.185   6.408
 8898TIP3   OH226636   7.448   7.087   4.039
 8898TIP3    H126637   7.464   7.069   3.946
 8898TIP3    H226638   7.392   7.016   4.069
 8899TIP3   OH226639   5.642   3.410   0.378
 8899TIP3    H126640   5.611   3.428   0.466
 8899TIP3    H226641   5.737   3.403   0.387
 8900TIP3   OH226642   1.845   2.214   5.257
 8900TIP3    H126643   1.761   2.242   5.294
 8900TIP3    H226644   1.872   2.140   5.311
 8901TIP3   OH226645   1.505   5.632   3.114
 8901TIP3    H126646   1.495   5.705   3.053
 8901TIP3    H226647   1.596   5.636   3.142
 8902TIP3   OH226648   1.586   1.272   3.058
 8902TIP3    H126649   1.669   1.270   3.106
 8902TIP3    H226650   1.549   1.358   3.075
 8903TIP3   OH226651   3.154   1.009   4.577
 8903TIP3    H126652   3.118   1.081   4.629
 8903TIP3    H226653   3.226   1.049   4.528
 8904TIP3   OH226654   2.971   7.246   2.150
 8904TIP3    H126655   3.039   7.194   2.192
 8904TIP3    H226656   2.889   7.212   2.185
 8905TIP3   OH226657   7.338   7.144   1.873
 8905TIP3    H126658   7.244   7.152   1.862
 8905TIP3    H226659   7.349   7.066   1.928
 8906TIP3   OH226660   6.229   0.093   1.819
 8906TIP3    H126661   6.266   0.114   1.905
 8906TIP3    H226662   6.190   0.006   1.830
 8907TIP3   OH226663   2.169   2.445   4.393
 8907TIP3    H126664   2.177   2.538   4.412
 8907TIP3    H226665   2.102   2.440   4.325
 8908TIP3   OH226666   2.170   0.418   1.962
 8908TIP3    H126667   2.176   0.329   1.927
 8908TIP3    H226668   2.208   0.473   1.894
 8909TIP3   OH226669   2.309   7.244   6.741
 8909TIP3    H126670   2.270   7.188   6.808
 8909TIP3    H226671   2.333   7.324   6.788
 8910TIP3   OH226672   3.172   5.242   6.688
 8910TIP3    H126673   3.182   5.336   6.677
 8910TIP3    H226674   3.164   5.230   6.783
 8911TIP3   OH226675   1.342   4.246   5.255
 8911TIP3    H126676   1.324   4.339   5.237
 8911TIP3    H226677   1.273   4.220   5.316
 8912TIP3   OH226678   4.815   6.684   1.669
 8912TIP3    H126679   4.887   6.637   1.710
 8912TIP3    H226680   4.811   6.767   1.715
 8913TIP3   OH226681   7.401   1.107   5.157
 8913TIP3    H126682   7.492   1.079   5.150
 8913TIP3    H226683   7.405   1.202   5.166
 8914TIP3   OH226684   7.864   5.398   6.142
 8914TIP3    H126685   7.883   5.471   6.201
 8914TIP3    H226686   7.822   5.333   6.198
 8915TIP3   OH226687   4.181   6.384   3.569
 8915TIP3    H126688   4.265   6.427   3.584
 8915TIP3    H226689   4.201   6.317   3.503
 8916TIP3   OH226690   6.475   7.464   5.845
 8916TIP3    H126691   6.430   7.422   5.772
 8916TIP3    H226692   6.547   7.404   5.867
 8917TIP3   OH226693   0.664   7.200   6.437
 8917TIP3    H126694   0.627   7.113   6.453
 8917TIP3    H226695   0.591   7.251   6.402
 8918TIP3   OH226696   7.810   1.148   4.196
 8918TIP3    H126697   7.865   1.206   4.143
 8918TIP3    H226698   7.857   1.138   4.279
 8919TIP3   OH226699   6.391   7.246   0.741
 8919TIP3    H126700   6.350   7.329   0.765
 8919TIP3    H226701   6.474   7.246   0.789
 8920TIP3   OH226702   7.683   3.133   4.081
 8920TIP3    H126703   7.681   3.111   3.988
 8920TIP3    H226704   7.736   3.212   4.086
 8921TIP3   OH226705   6.986   3.901   2.382
 8921TIP3    H126706   7.063   3.932   2.335
 8921TIP3    H226707   6.925   3.874   2.313
 8922TIP3   OH226708   5.083   6.821   3.964
 8922TIP3    H126709   5.069   6.778   3.880
 8922TIP3    H226710   5.023   6.895   3.964
 8923TIP3   OH226711   0.630   0.243   3.744
 8923TIP3    H126712   0.715   0.284   3.730
 8923TIP3    H226713   0.582   0.259   3.662
 8924TIP3   OH226714   2.985   5.543   4.773
 8924TIP3    H126715   3.032   5.533   4.856
 8924TIP3    H226716   2.909   5.596   4.795
 8925TIP3   OH226717   1.547   2.026   3.042
 8925TIP3    H126718   1.589   2.014   2.956
 8925TIP3    H226719   1.541   1.938   3.078
 8926TIP3   OH226720   6.911   6.594   1.217
 8926TIP3    H126721   6.976   6.638   1.162
 8926TIP3    H226722   6.855   6.665   1.249
 8927TIP3   OH226723   4.259   7.221   0.913
 8927TIP3    H126724   4.340   7.171   0.920
 8927TIP3    H226725   4.262   7.258   0.825
 8928TIP3   OH226726   4.601   2.386   1.865
 8928TIP3    H126727   4.535   2.428   1.810
 8928TIP3    H226728   4.645   2.459   1.910
 8929TIP3   OH226729   4.261   0.904   1.467
 8929TIP3    H126730   4.307   0.876   1.547
 8929TIP3    H226731   4.177   0.937   1.498
 8930TIP3   OH226732   5.008   0.175   1.975
 8930TIP3    H126733   5.090   0.222   1.989
 8930TIP3    H226734   4.965   0.223   1.904
 8931TIP3   OH226735   5.568   2.402   5.676
 8931TIP3    H126736   5.657   2.436   5.680
 8931TIP3    H226737   5.531   2.421   5.763
 8932TIP3   OH226738   4.396   0.204   3.678
 8932TIP3    H126739   4.377   0.153   3.599
 8932TIP3    H226740   4.442   0.282   3.645
 8933TIP3   OH226741   6.856   6.303   0.564
 8933TIP3    H126742   6.817   6.304   0.651
 8933TIP3    H226743   6.871   6.211   0.545
 8934TIP3   OH226744   1.459   3.963   0.560
 8934TIP3    H126745   1.554   3.967   0.553
 8934TIP3    H226746   1.436   3.879   0.521
 8935TIP3   OH226747   8.134   6.057   5.425
 8935TIP3    H126748   8.164   6.079   5.337
 8935TIP3    H226749   8.145   6.138   5.475
 8936TIP3   OH226750   7.202   4.400   0.179
 8936TIP3    H126751   7.283   4.398   0.229
 8936TIP3    H226752   7.143   4.342   0.225
 8937TIP3   OH226753   8.133   4.922   5.957
 8937TIP3    H126754   8.207   4.860   5.957
 8937TIP3    H226755   8.056   4.867   5.944
 8938TIP3   OH226756   0.882   2.265   4.889
 8938TIP3    H126757   0.840   2.204   4.950
 8938TIP3    H226758   0.812   2.324   4.862
 8939TIP3   OH226759   8.129   2.470   1.557
 8939TIP3    H126760   8.152   2.560   1.582
 8939TIP3    H226761   8.045   2.479   1.511
 8940TIP3   OH226762   6.552   2.635   2.873
 8940TIP3    H126763   6.501   2.583   2.935
 8940TIP3    H226764   6.638   2.643   2.914
 8941TIP3   OH226765   5.680   5.475   0.661
 8941TIP3    H126766   5.681   5.458   0.567
 8941TIP3    H226767   5.747   5.416   0.697
 8942TIP3   OH226768   0.993   6.617   3.422
 8942TIP3    H126769   0.914   6.602   3.369
 8942TIP3    H226770   0.975   6.572   3.504
 8943TIP3   OH226771   4.593   0.378   2.818
 8943TIP3    H126772   4.572   0.419   2.735
 8943TIP3    H226773   4.553   0.291   2.813
 8944TIP3   OH226774   0.624   3.932   2.224
 8944TIP3    H126775   0.711   3.964   2.201
 8944TIP3    H226776   0.572   3.945   2.144
 8945TIP3   OH226777   6.033   3.057   0.528
 8945TIP3    H126778   6.038   3.026   0.618
 8945TIP3    H226779   6.125   3.069   0.502
 8946TIP3   OH226780   0.069   3.704   0.513
 8946TIP3    H126781  -0.005   3.646   0.495
 8946TIP3    H226782   0.114   3.663   0.587
 8947TIP3   OH226783   5.196   3.074   2.479
 8947TIP3    H126784   5.160   3.135   2.415
 8947TIP3    H226785   5.252   3.129   2.535
 8948TIP3   OH226786   1.566   1.857   6.420
 8948TIP3    H126787   1.600   1.928   6.476
 8948TIP3    H226788   1.576   1.778   6.474
 8949TIP3   OH226789   4.553   1.603   2.974
 8949TIP3    H126790   4.628   1.624   3.029
 8949TIP3    H226791   4.509   1.532   3.020
 8950TIP3   OH226792   1.145   0.689   4.650
 8950TIP3    H126793   1.109   0.688   4.561
 8950TIP3    H226794   1.240   0.683   4.638
 8951TIP3   OH226795   7.125   0.722   2.946
 8951TIP3    H126796   7.096   0.760   2.862
 8951TIP3    H226797   7.043   0.708   2.994
 8952TIP3   OH226798   7.168   6.421   6.071
 8952TIP3    H126799   7.089   6.386   6.111
 8952TIP3    H226800   7.224   6.344   6.057
 8953TIP3   OH226801   8.266   3.767   4.217
 8953TIP3    H126802   8.340   3.724   4.174
 8953TIP3    H226803   8.295   3.858   4.228
 8954TIP3   OH226804   4.106   0.243   0.554
 8954TIP3    H126805   4.068   0.261   0.469
 8954TIP3    H226806   4.187   0.195   0.535
 8955TIP3   OH226807   3.346   4.228   4.084
 8955TIP3    H126808   3.344   4.155   4.021
 8955TIP3    H226809   3.294   4.196   4.158
 8956TIP3   OH226810   4.394   5.765   5.897
 8956TIP3    H126811   4.465   5.758   5.833
 8956TIP3    H226812   4.317   5.730   5.852
 8957TIP3   OH226813   0.975   5.891   5.570
 8957TIP3    H126814   1.022   5.958   5.618
 8957TIP3    H226815   0.932   5.838   5.638
 8958TIP3   OH226816   7.135   2.044   5.271
 8958TIP3    H126817   7.188   1.967   5.250
 8958TIP3    H226818   7.088   2.019   5.351
 8959TIP3   OH226819   6.122   4.018   1.114
 8959TIP3    H126820   6.143   3.993   1.204
 8959TIP3    H226821   6.031   4.047   1.118
 8960TIP3   OH226822   4.378   3.086   6.291
 8960TIP3    H126823   4.290   3.049   6.281
 8960TIP3    H226824   4.435   3.010   6.293
 8961TIP3   OH226825   4.149   6.489   2.389
 8961TIP3    H126826   4.083   6.445   2.443
 8961TIP3    H226827   4.174   6.567   2.439
 8962TIP3   OH226828   5.684   5.978   6.612
 8962TIP3    H126829   5.627   5.907   6.583
 8962TIP3    H226830   5.755   5.980   6.548
 8963TIP3   OH226831   7.982   1.482   3.242
 8963TIP3    H126832   7.978   1.501   3.336
 8963TIP3    H226833   8.075   1.486   3.221
 8964TIP3   OH226834   4.916   0.538   5.259
 8964TIP3    H126835   4.979   0.608   5.273
 8964TIP3    H226836   4.968   0.458   5.265
 8965TIP3   OH226837   1.901   0.786   3.091
 8965TIP3    H126838   1.859   0.716   3.041
 8965TIP3    H226839   1.854   0.788   3.174
 8966TIP3   OH226840   1.804   4.891   3.666
 8966TIP3    H126841   1.878   4.939   3.705
 8966TIP3    H226842   1.802   4.921   3.575
 8967TIP3   OH226843   7.438   2.001   0.166
 8967TIP3    H126844   7.414   1.959   0.248
 8967TIP3    H226845   7.354   2.033   0.131
 8968TIP3   OH226846   2.794   0.244   6.058
 8968TIP3    H126847   2.790   0.279   5.969
 8968TIP3    H226848   2.874   0.191   6.058
 8969TIP3   OH226849   0.194   5.306   3.019
 8969TIP3    H126850   0.179   5.218   3.054
 8969TIP3    H226851   0.207   5.292   2.925
 8970TIP3   OH226852   6.526   6.238   2.727
 8970TIP3    H126853   6.511   6.149   2.758
 8970TIP3    H226854   6.447   6.286   2.751
 8971TIP3   OH226855   2.837   4.731   1.463
 8971TIP3    H126856   2.809   4.645   1.495
 8971TIP3    H226857   2.913   4.712   1.407
 8972TIP3   OH226858   3.175   0.759   4.084
 8972TIP3    H126859   3.248   0.766   4.023
 8972TIP3    H226860   3.147   0.668   4.078
 8973TIP3   OH226861   0.624   4.032   5.284
 8973TIP3    H126862   0.535   4.031   5.249
 8973TIP3    H226863   0.649   3.940   5.289
 8974TIP3   OH226864   6.204   4.624   0.624
 8974TIP3    H126865   6.213   4.530   0.609
 8974TIP3    H226866   6.217   4.635   0.719
 8975TIP3   OH226867   4.834   3.846   3.326
 8975TIP3    H126868   4.821   3.751   3.316
 8975TIP3    H226869   4.841   3.878   3.236
 8976TIP3   OH226870   2.673   2.586   0.045
 8976TIP3    H126871   2.582   2.616   0.050
 8976TIP3    H226872   2.673   2.505   0.097
 8977TIP3   OH226873   1.743   3.757   4.859
 8977TIP3    H126874   1.706   3.795   4.779
 8977TIP3    H226875   1.666   3.736   4.913
 8978TIP3   OH226876   3.081   0.731   5.397
 8978TIP3    H126877   3.066   0.649   5.351
 8978TIP3    H226878   3.164   0.718   5.443
 8979TIP3   OH226879   4.459   6.902   4.597
 8979TIP3    H126880   4.553   6.909   4.580
 8979TIP3    H226881   4.420   6.883   4.512
 8980TIP3   OH226882   3.181   6.489   6.130
 8980TIP3    H126883   3.267   6.479   6.088
 8980TIP3    H226884   3.127   6.532   6.064
 8981TIP3   OH226885   5.996   4.682   0.485
 8981TIP3    H126886   6.041   4.696   0.402
 8981TIP3    H226887   6.066   4.656   0.546
 8982TIP3   OH226888   4.575   2.523   4.468
 8982TIP3    H126889   4.540   2.455   4.525
 8982TIP3    H226890   4.565   2.604   4.518
 8983TIP3   OH226891   0.652   0.477   4.828
 8983TIP3    H126892   0.599   0.523   4.762
 8983TIP3    H226893   0.686   0.401   4.783
 8984TIP3   OH226894   1.381   3.941   2.012
 8984TIP3    H126895   1.390   3.974   1.922
 8984TIP3    H226896   1.456   3.978   2.058
 8985TIP3   OH226897   0.625   5.878   3.847
 8985TIP3    H126898   0.713   5.877   3.809
 8985TIP3    H226899   0.571   5.833   3.781
 8986TIP3   OH226900   8.003   6.459   0.261
 8986TIP3    H126901   7.936   6.463   0.330
 8986TIP3    H226902   7.983   6.379   0.213
 8987TIP3   OH226903   2.538   5.029   4.731
 8987TIP3    H126904   2.513   5.111   4.775
 8987TIP3    H226905   2.456   4.991   4.703
 8988TIP3   OH226906   6.421   3.804   5.491
 8988TIP3    H126907   6.493   3.858   5.522
 8988TIP3    H226908   6.345   3.862   5.494
 8989TIP3   OH226909   2.547   4.488   6.370
 8989TIP3    H126910   2.520   4.496   6.279
 8989TIP3    H226911   2.562   4.577   6.399
 8990TIP3   OH226912   8.210   7.400   1.864
 8990TIP3    H126913   8.138   7.353   1.823
 8990TIP3    H226914   8.210   7.370   1.955
 8991TIP3   OH226915   6.932   0.444   1.815
 8991TIP3    H126916   7.004   0.502   1.790
 8991TIP3    H226917   6.931   0.377   1.746
 8992TIP3   OH226918   4.828   4.303   6.611
 8992TIP3    H126919   4.807   4.248   6.686
 8992TIP3    H226920   4.805   4.392   6.638
 8993TIP3   OH226921   4.158   1.868   4.956
 8993TIP3    H126922   4.086   1.921   4.989
 8993TIP3    H226923   4.162   1.889   4.862
 8994TIP3   OH226924   0.069   6.802   0.069
 8994TIP3    H126925   0.125   6.879   0.076
 8994TIP3    H226926   0.023   6.814  -0.014
 8995TIP3   OH226927   5.477   7.743   4.506
 8995TIP3    H126928   5.537   7.816   4.521
 8995TIP3    H226929   5.446   7.719   4.593
 8996TIP3   OH226930   7.960   6.241   1.363
 8996TIP3    H126931   7.987   6.195   1.443
 8996TIP3    H226932   7.881   6.196   1.335
 8997TIP3   OH226933   3.724   5.255   0.199
 8997TIP3    H126934   3.773   5.289   0.124
 8997TIP3    H226935   3.738   5.320   0.268
 8998TIP3   OH226936   8.274   2.856   4.387
 8998TIP3    H126937   8.220   2.869   4.464
 8998TIP3    H226938   8.252   2.929   4.329
 8999TIP3   OH226939   0.988   3.121   5.338
 8999TIP3    H126940   1.080   3.110   5.315
 8999TIP3    H226941   0.980   3.079   5.424
 9000TIP3   OH226942   3.996   4.952   3.973
 9000TIP3    H126943   3.959   4.878   4.022
 9000TIP3    H226944   4.074   4.976   4.022
 9001TIP3   OH226945   5.400   1.909   4.293
 9001TIP3    H126946   5.493   1.930   4.300
 9001TIP3    H226947   5.376   1.940   4.206
 9002TIP3   OH226948   3.896   0.213   1.587
 9002TIP3    H126949   3.954   0.290   1.589
 9002TIP3    H226950   3.841   0.222   1.664
 9003TIP3   OH226951   0.743   5.267   6.174
 9003TIP3    H126952   0.819   5.326   6.177
 9003TIP3    H226953   0.684   5.309   6.111
 9004TIP3   OH226954   3.663   0.662   2.033
 9004TIP3    H126955   3.613   0.708   2.100
 9004TIP3    H226956   3.617   0.682   1.951
 9005TIP3   OH226957   8.246   0.478   0.365
 9005TIP3    H126958   8.286   0.428   0.294
 9005TIP3    H226959   8.252   0.569   0.336
 9006TIP3   OH226960   4.973   7.590   3.472
 9006TIP3    H126961   4.910   7.588   3.400
 9006TIP3    H226962   4.992   7.683   3.484
 9007TIP3   OH226963   2.194   1.735   6.613
 9007TIP3    H126964   2.139   1.657   6.603
 9007TIP3    H226965   2.132   1.806   6.630
 9008TIP3   OH226966   7.924   3.250   4.623
 9008TIP3    H126967   8.016   3.252   4.595
 9008TIP3    H226968   7.900   3.157   4.621
 9009TIP3   OH226969   3.734   4.100   3.006
 9009TIP3    H126970   3.708   4.152   3.081
 9009TIP3    H226971   3.654   4.053   2.980
 9010TIP3   OH226972   6.935   0.814   2.085
 9010TIP3    H126973   6.930   0.718   2.078
 9010TIP3    H226974   6.849   0.841   2.116
 9011TIP3   OH226975   6.047   5.662   5.461
 9011TIP3    H126976   5.969   5.684   5.410
 9011TIP3    H226977   6.119   5.708   5.416
 9012TIP3   OH226978   4.802   5.333   5.057
 9012TIP3    H126979   4.710   5.331   5.084
 9012TIP3    H226980   4.800   5.303   4.966
 9013TIP3   OH226981   1.598   0.665   2.215
 9013TIP3    H126982   1.599   0.758   2.235
 9013TIP3    H226983   1.655   0.626   2.282
 9014TIP3   OH226984   6.380   0.471   4.331
 9014TIP3    H126985   6.326   0.394   4.351
 9014TIP3    H226986   6.321   0.531   4.287
 9015TIP3   OH226987   0.738   5.907   0.413
 9015TIP3    H126988   0.779   5.970   0.353
 9015TIP3    H226989   0.651   5.943   0.429
 9016TIP3   OH226990   3.438   4.213   2.311
 9016TIP3    H126991   3.364   4.174   2.265
 9016TIP3    H226992   3.460   4.148   2.378
 9017TIP3   OH226993   5.293   5.181   2.687
 9017TIP3    H126994   5.359   5.156   2.752
 9017TIP3    H226995   5.328   5.262   2.648
 9018TIP3   OH226996   6.544   6.446   0.540
 9018TIP3    H126997   6.605   6.507   0.584
 9018TIP3    H226998   6.493   6.408   0.611
 9019TIP3   OH226999   3.168   2.875   0.055
 9019TIP3    H127000   3.127   2.898   0.139
 9019TIP3    H227001   3.244   2.934   0.049
 9020TIP3   OH227002   6.819   6.391   6.674
 9020TIP3    H127003   6.888   6.408   6.737
 9020TIP3    H227004   6.861   6.400   6.588
 9021TIP3   OH227005   7.751   4.993   3.283
 9021TIP3    H127006   7.828   4.953   3.324
 9021TIP3    H227007   7.689   5.006   3.355
 9022TIP3   OH227008   7.197   7.610   0.101
 9022TIP3    H127009   7.102   7.603   0.092
 9022TIP3    H227010   7.210   7.669   0.175
 9023TIP3   OH227011   0.924   4.128   6.606
 9023TIP3    H127012   1.000   4.182   6.625
 9023TIP3    H227013   0.942   4.044   6.648
 9024TIP3   OH227014   4.263   1.692   4.343
 9024TIP3    H127015   4.308   1.607   4.339
 9024TIP3    H227016   4.228   1.704   4.255
 9025TIP3   OH227017   4.920   5.924   0.896
 9025TIP3    H127018   4.983   5.900   0.827
 9025TIP3    H227019   4.936   5.861   0.966
 9026TIP3   OH227020   8.018   2.249   3.498
 9026TIP3    H127021   8.106   2.211   3.496
 9026TIP3    H227022   7.966   2.193   3.441
 9027TIP3   OH227023   1.226   0.529   0.302
 9027TIP3    H127024   1.214   0.565   0.214
 9027TIP3    H227025   1.215   0.604   0.361
 9028TIP3   OH227026   6.735   3.671   5.323
 9028TIP3    H127027   6.782   3.706   5.247
 9028TIP3    H227028   6.676   3.605   5.286
 9029TIP3   OH227029   1.811   3.852   1.354
 9029TIP3    H127030   1.791   3.945   1.357
 9029TIP3    H227031   1.800   3.827   1.262
 9030TIP3   OH227032   7.499   4.850   4.284
 9030TIP3    H127033   7.430   4.814   4.229
 9030TIP3    H227034   7.537   4.774   4.328
 9031TIP3   OH227035   2.016  -0.011   1.449
 9031TIP3    H127036   2.078  -0.037   1.516
 9031TIP3    H227037   1.969   0.063   1.486
 9032TIP3   OH227038   4.683   4.778   6.317
 9032TIP3    H127039   4.592   4.749   6.309
 9032TIP3    H227040   4.682   4.868   6.285
 9033TIP3   OH227041   7.222   5.632   6.262
 9033TIP3    H127042   7.252   5.672   6.181
 9033TIP3    H227043   7.247   5.693   6.331
 9034TIP3   OH227044   5.794   0.753   4.162
 9034TIP3    H127045   5.850   0.829   4.150
 9034TIP3    H227046   5.717   0.786   4.209
 9035TIP3   OH227047   0.934   0.108   5.291
 9035TIP3    H127048   0.979   0.160   5.358
 9035TIP3    H227049   0.917   0.024   5.333
 9036TIP3   OH227050   3.883   0.831   5.380
 9036TIP3    H127051   3.889   0.885   5.300
 9036TIP3    H227052   3.820   0.877   5.435
 9037TIP3   OH227053   3.089   4.600   0.120
 9037TIP3    H127054   3.166   4.543   0.117
 9037TIP3    H227055   3.098   4.655   0.042
 9038TIP3   OH227056   2.786   1.247   6.516
 9038TIP3    H127057   2.803   1.334   6.480
 9038TIP3    H227058   2.760   1.194   6.441
 9039TIP3   OH227059   3.925   2.090   3.604
 9039TIP3    H127060   3.964   2.133   3.528
 9039TIP3    H227061   4.000   2.061   3.656
 9040TIP3   OH227062   4.258   5.867   5.481
 9040TIP3    H127063   4.209   5.848   5.561
 9040TIP3    H227064   4.333   5.919   5.511
 9041TIP3   OH227065   3.379   0.397   3.557
 9041TIP3    H127066   3.317   0.469   3.542
 9041TIP3    H227067   3.339   0.346   3.627
 9042TIP3   OH227068   5.395   2.068   3.011
 9042TIP3    H127069   5.330   2.053   2.943
 9042TIP3    H227070   5.397   1.986   3.061
 9043TIP3   OH227071   4.924   4.492   3.409
 9043TIP3    H127072   4.904   4.526   3.496
 9043TIP3    H227073   4.838   4.481   3.368
 9044TIP3   OH227074   6.828   0.676   5.499
 9044TIP3    H127075   6.832   0.591   5.543
 9044TIP3    H227076   6.736   0.701   5.506
 9045TIP3   OH227077   8.005   6.829   3.399
 9045TIP3    H127078   8.042   6.912   3.369
 9045TIP3    H227079   8.064   6.801   3.469
 9046TIP3   OH227080   3.943   7.749   6.269
 9046TIP3    H127081   3.969   7.840   6.252
 9046TIP3    H227082   3.913   7.717   6.184
 9047TIP3   OH227083   1.158   3.023   1.491
 9047TIP3    H127084   1.130   2.931   1.495
 9047TIP3    H227085   1.123   3.055   1.408
 9048TIP3   OH227086   7.979   5.844   0.283
 9048TIP3    H127087   8.021   5.898   0.350
 9048TIP3    H227088   7.971   5.758   0.323
 9049TIP3   OH227089   4.358   0.393   0.761
 9049TIP3    H127090   4.415   0.405   0.837
 9049TIP3    H227091   4.317   0.308   0.776
 9050TIP3   OH227092   0.154   4.688   6.395
 9050TIP3    H127093   0.225   4.631   6.369
 9050TIP3    H227094   0.078   4.658   6.345
 9051TIP3   OH227095   1.030   5.861   4.449
 9051TIP3    H127096   1.096   5.909   4.399
 9051TIP3    H227097   0.949   5.872   4.400
 9052TIP3   OH227098   5.069   7.330   6.649
 9052TIP3    H127099   5.150   7.357   6.692
 9052TIP3    H227100   5.005   7.327   6.720
 9053TIP3   OH227101   4.316   5.282   0.374
 9053TIP3    H127102   4.400   5.238   0.364
 9053TIP3    H227103   4.322   5.328   0.458
 9054TIP3   OH227104   4.468   6.137   5.188
 9054TIP3    H127105   4.524   6.083   5.130
 9054TIP3    H227106   4.392   6.082   5.205
 9055TIP3   OH227107   6.736   1.042   1.604
 9055TIP3    H127108   6.828   1.053   1.580
 9055TIP3    H227109   6.723   0.947   1.605
 9056TIP3   OH227110   5.982   3.726   4.648
 9056TIP3    H127111   5.957   3.816   4.668
 9056TIP3    H227112   5.955   3.676   4.725
 9057TIP3   OH227113   4.242   2.673   0.771
 9057TIP3    H127114   4.304   2.674   0.843
 9057TIP3    H227115   4.173   2.613   0.799
 9058TIP3   OH227116   0.100   0.673   5.680
 9058TIP3    H127117   0.143   0.757   5.693
 9058TIP3    H227118   0.009   0.696   5.658
 9059TIP3   OH227119   4.165   5.696   5.736
 9059TIP3    H127120   4.120   5.628   5.685
 9059TIP3    H227121   4.097   5.732   5.793
 9060TIP3   OH227122   5.288   4.317   4.571
 9060TIP3    H127123   5.194   4.302   4.561
 9060TIP3    H227124   5.299   4.410   4.552
 9061TIP3   OH227125   8.256   1.007   5.853
 9061TIP3    H127126   8.327   0.979   5.796
 9061TIP3    H227127   8.178   0.969   5.814
 9062TIP3   OH227128   4.592   4.127   1.905
 9062TIP3    H127129   4.500   4.114   1.883
 9062TIP3    H227130   4.640   4.097   1.828
 9063TIP3   OH227131   4.904   1.607   3.868
 9063TIP3    H127132   4.899   1.573   3.958
 9063TIP3    H227133   4.848   1.548   3.817
 9064TIP3   OH227134   4.967   2.337   4.200
 9064TIP3    H127135   4.878   2.370   4.212
 9064TIP3    H227136   4.964   2.247   4.230
 9065TIP3   OH227137   2.581   7.147   3.007
 9065TIP3    H127138   2.620   7.070   3.048
 9065TIP3    H227139   2.573   7.211   3.078
 9066TIP3   OH227140   1.072   7.819   4.867
 9066TIP3    H127141   1.083   7.762   4.791
 9066TIP3    H227142   1.003   7.777   4.919
 9067TIP3   OH227143   3.384   6.176   3.609
 9067TIP3    H127144   3.303   6.132   3.637
 9067TIP3    H227145   3.451   6.143   3.669
 9068TIP3   OH227146   3.545   6.368   4.671
 9068TIP3    H127147   3.551   6.280   4.633
 9068TIP3    H227148   3.514   6.353   4.760
 9069TIP3   OH227149   6.660   4.389   5.445
 9069TIP3    H127150   6.636   4.398   5.353
 9069TIP3    H227151   6.691   4.475   5.471
 9070TIP3   OH227152   0.856   6.139   2.200
 9070TIP3    H127153   0.937   6.089   2.208
 9070TIP3    H227154   0.876   6.223   2.243
 9071TIP3   OH227155   4.987   2.804   4.278
 9071TIP3    H127156   4.948   2.728   4.323
 9071TIP3    H227157   5.000   2.869   4.347
 9072TIP3   OH227158   2.910   5.425   2.745
 9072TIP3    H127159   2.822   5.460   2.763
 9072TIP3    H227160   2.948   5.411   2.832
 9073TIP3   OH227161   6.680   1.562   1.624
 9073TIP3    H127162   6.670   1.516   1.540
 9073TIP3    H227163   6.596   1.605   1.638
 9074TIP3   OH227164   1.595   3.637   0.873
 9074TIP3    H127165   1.589   3.603   0.962
 9074TIP3    H227166   1.537   3.580   0.822
 9075TIP3   OH227167   6.170   7.004   4.223
 9075TIP3    H127168   6.104   7.041   4.165
 9075TIP3    H227169   6.120   6.947   4.282
 9076TIP3   OH227170   2.420   1.752   0.503
 9076TIP3    H127171   2.448   1.722   0.416
 9076TIP3    H227172   2.489   1.811   0.532
 9077TIP3   OH227173   6.544   0.616   4.618
 9077TIP3    H127174   6.631   0.577   4.614
 9077TIP3    H227175   6.485   0.541   4.628
 9078TIP3   OH227176   0.296   5.024   3.484
 9078TIP3    H127177   0.322   5.096   3.427
 9078TIP3    H227178   0.338   4.947   3.447
 9079TIP3   OH227179   1.551   1.332   3.516
 9079TIP3    H127180   1.491   1.281   3.571
 9079TIP3    H227181   1.503   1.413   3.497
 9080TIP3   OH227182   2.367   0.032   0.178
 9080TIP3    H127183   2.316   0.110   0.156
 9080TIP3    H227184   2.447   0.040   0.127
 9081TIP3   OH227185   5.966   7.584   5.008
 9081TIP3    H127186   5.997   7.633   4.932
 9081TIP3    H227187   6.042   7.575   5.064
 9082TIP3   OH227188   1.095   6.063   3.262
 9082TIP3    H127189   1.173   6.092   3.309
 9082TIP3    H227190   1.076   6.134   3.200
 9083TIP3   OH227191   0.182   7.532   2.078
 9083TIP3    H127192   0.273   7.546   2.050
 9083TIP3    H227193   0.139   7.617   2.063
 9084TIP3   OH227194   6.470   2.964   6.105
 9084TIP3    H127195   6.431   2.975   6.192
 9084TIP3    H227196   6.520   2.882   6.112
 9085TIP3   OH227197   3.545   0.812   4.068
 9085TIP3    H127198   3.581   0.887   4.021
 9085TIP3    H227199   3.469   0.786   4.017
 9086TIP3   OH227200   1.407   4.367   1.596
 9086TIP3    H127201   1.348   4.441   1.609
 9086TIP3    H227202   1.351   4.297   1.563
 9087TIP3   OH227203   0.651   6.893   4.923
 9087TIP3    H127204   0.657   6.806   4.963
 9087TIP3    H227205   0.620   6.950   4.994
 9088TIP3   OH227206   7.499   1.131   2.557
 9088TIP3    H127207   7.444   1.177   2.493
 9088TIP3    H227208   7.573   1.190   2.571
 9089TIP3   OH227209   0.421   1.299   0.197
 9089TIP3    H127210   0.480   1.226   0.209
 9089TIP3    H227211   0.390   1.321   0.285
 9090TIP3   OH227212   8.100   0.528   5.841
 9090TIP3    H127213   8.058   0.474   5.909
 9090TIP3    H227214   8.190   0.536   5.870
 9091TIP3   OH227215   1.533   6.926   1.775
 9091TIP3    H127216   1.474   6.851   1.772
 9091TIP3    H227217   1.587   6.912   1.853
 9092TIP3   OH227218   3.784   3.484   0.626
 9092TIP3    H127219   3.788   3.480   0.722
 9092TIP3    H227220   3.772   3.576   0.606
 9093TIP3   OH227221   8.048   2.969   5.403
 9093TIP3    H127222   8.007   2.965   5.490
 9093TIP3    H227223   8.004   2.900   5.353
 9094TIP3   OH227224   0.567   0.299   5.793
 9094TIP3    H127225   0.646   0.245   5.787
 9094TIP3    H227226   0.498   0.245   5.754
 9095TIP3   OH227227   5.400   7.507   2.187
 9095TIP3    H127228   5.439   7.551   2.111
 9095TIP3    H227229   5.473   7.466   2.232
 9096TIP3   OH227230   6.150   6.086   0.146
 9096TIP3    H127231   6.113   6.072   0.058
 9096TIP3    H227232   6.209   6.160   0.136
 9097TIP3   OH227233   6.322   1.064   1.631
 9097TIP3    H127234   6.354   0.986   1.587
 9097TIP3    H227235   6.395   1.092   1.686
 9098TIP3   OH227236   1.468   2.360   3.262
 9098TIP3    H127237   1.416   2.344   3.184
 9098TIP3    H227238   1.543   2.302   3.254
 9099TIP3   OH227239   5.924   4.314   2.334
 9099TIP3    H127240   5.950   4.226   2.306
 9099TIP3    H227241   6.006   4.354   2.365
 9100TIP3   OH227242   4.737   6.110   2.072
 9100TIP3    H127243   4.734   6.018   2.098
 9100TIP3    H227244   4.763   6.156   2.152
 9101TIP3   OH227245   1.105   2.005   1.299
 9101TIP3    H127246   1.071   1.917   1.319
 9101TIP3    H227247   1.192   2.006   1.338
 9102TIP3   OH227248   2.565   0.509   0.709
 9102TIP3    H127249   2.519   0.557   0.640
 9102TIP3    H227250   2.647   0.557   0.721
 9103TIP3   OH227251   5.000   1.785   6.697
 9103TIP3    H127252   4.987   1.814   6.607
 9103TIP3    H227253   5.086   1.819   6.721
 9104TIP3   OH227254   6.887   5.050   3.560
 9104TIP3    H127255   6.981   5.052   3.576
 9104TIP3    H227256   6.877   5.073   3.468
 9105TIP3   OH227257   5.639   6.727   6.454
 9105TIP3    H127258   5.701   6.790   6.417
 9105TIP3    H227259   5.631   6.658   6.388
 9106TIP3   OH227260   0.417   3.793   5.775
 9106TIP3    H127261   0.418   3.876   5.726
 9106TIP3    H227262   0.481   3.806   5.845
 9107TIP3   OH227263   2.366   3.643   0.379
 9107TIP3    H127264   2.313   3.695   0.319
 9107TIP3    H227265   2.446   3.695   0.390
 9108TIP3   OH227266   7.801   4.932   3.977
 9108TIP3    H127267   7.777   4.980   3.897
 9108TIP3    H227268   7.814   4.842   3.946
 9109TIP3   OH227269   6.420   6.939   2.568
 9109TIP3    H127270   6.453   6.852   2.589
 9109TIP3    H227271   6.441   6.992   2.646
 9110TIP3   OH227272   8.256   6.526   2.173
 9110TIP3    H127273   8.208   6.601   2.139
 9110TIP3    H227274   8.196   6.452   2.163
 9111TIP3   OH227275   8.024   6.184   5.723
 9111TIP3    H127276   8.018   6.089   5.730
 9111TIP3    H227277   8.118   6.202   5.725
 9112TIP3   OH227278   1.856   3.009   5.173
 9112TIP3    H127279   1.938   3.050   5.201
 9112TIP3    H227280   1.822   3.069   5.106
 9113TIP3   OH227281   5.832   0.496   0.990
 9113TIP3    H127282   5.922   0.519   0.969
 9113TIP3    H227283   5.814   0.417   0.940
 9114TIP3   OH227284   3.875   6.563   0.748
 9114TIP3    H127285   3.937   6.530   0.813
 9114TIP3    H227286   3.808   6.610   0.798
 9115TIP3   OH227287   6.201   0.688   4.236
 9115TIP3    H127288   6.139   0.634   4.285
 9115TIP3    H227289   6.158   0.773   4.230
 9116TIP3   OH227290   0.517  -0.004   3.843
 9116TIP3    H127291   0.579  -0.067   3.805
 9116TIP3    H227292   0.545   0.081   3.807
 9117TIP3   OH227293   6.372   1.283   1.945
 9117TIP3    H127294   6.429   1.354   1.975
 9117TIP3    H227295   6.421   1.242   1.874
 9118TIP3   OH227296   1.045   4.580   1.450
 9118TIP3    H127297   1.035   4.506   1.390
 9118TIP3    H227298   1.090   4.544   1.526
 9119TIP3   OH227299   3.903   4.953   1.440
 9119TIP3    H127300   3.925   5.027   1.496
 9119TIP3    H227301   3.932   4.876   1.488
 9120TIP3   OH227302   5.182   2.541   2.433
 9120TIP3    H127303   5.101   2.512   2.474
 9120TIP3    H227304   5.243   2.468   2.442
 9121TIP3   OH227305   6.442   4.314   6.210
 9121TIP3    H127306   6.386   4.270   6.275
 9121TIP3    H227307   6.389   4.388   6.180
 9122TIP3   OH227308   4.775   4.014   4.765
 9122TIP3    H127309   4.730   4.021   4.849
 9122TIP3    H227310   4.743   3.931   4.728
 9123TIP3   OH227311   7.241   3.208   0.694
 9123TIP3    H127312   7.298   3.264   0.747
 9123TIP3    H227313   7.176   3.174   0.756
 9124TIP3   OH227314   2.048   1.379   4.942
 9124TIP3    H127315   2.094   1.460   4.964
 9124TIP3    H227316   1.959   1.392   4.975
 9125TIP3   OH227317   0.135   4.363   4.572
 9125TIP3    H127318   0.211   4.411   4.539
 9125TIP3    H227319   0.083   4.430   4.616
 9126TIP3   OH227320   5.534   5.557   4.610
 9126TIP3    H127321   5.467   5.525   4.670
 9126TIP3    H227322   5.513   5.516   4.526
 9127TIP3   OH227323   4.436   4.102   4.630
 9127TIP3    H127324   4.501   4.171   4.646
 9127TIP3    H227325   4.460   4.065   4.546
 9128TIP3   OH227326   1.694   1.022   0.630
 9128TIP3    H127327   1.764   1.087   0.634
 9128TIP3    H227328   1.710   0.965   0.706
 9129TIP3   OH227329   8.085   3.501   4.108
 9129TIP3    H127330   8.152   3.552   4.062
 9129TIP3    H227331   8.027   3.469   4.038
 9130TIP3   OH227332   5.005   4.071   2.281
 9130TIP3    H127333   5.088   4.113   2.305
 9130TIP3    H227334   4.944   4.143   2.268
 9131TIP3   OH227335   6.080   6.945   6.378
 9131TIP3    H127336   6.069   6.997   6.298
 9131TIP3    H227337   5.991   6.931   6.411
 9132TIP3   OH227338   3.040   1.334   6.232
 9132TIP3    H127339   3.070   1.402   6.172
 9132TIP3    H227340   3.007   1.265   6.175
 9133TIP3   OH227341   3.305   1.348   6.352
 9133TIP3    H127342   3.354   1.306   6.281
 9133TIP3    H227343   3.214   1.344   6.323
 9134TIP3   OH227344   8.253   6.872   5.022
 9134TIP3    H127345   8.196   6.922   5.079
 9134TIP3    H227346   8.304   6.938   4.975
 9135TIP3   OH227347   4.031   6.687   5.700
 9135TIP3    H127348   3.989   6.631   5.634
 9135TIP3    H227349   3.989   6.662   5.782
 9136TIP3   OH227350   0.313   5.046   3.757
 9136TIP3    H127351   0.270   5.038   3.671
 9136TIP3    H227352   0.405   5.063   3.736
 9137TIP3   OH227353   5.392   5.607   0.454
 9137TIP3    H127354   5.402   5.527   0.402
 9137TIP3    H227355   5.328   5.659   0.406
 9138TIP3   OH227356   2.649   2.271   4.634
 9138TIP3    H127357   2.572   2.295   4.686
 9138TIP3    H227358   2.658   2.177   4.646
 9139TIP3   OH227359   3.090   5.569   5.006
 9139TIP3    H127360   3.024   5.599   5.068
 9139TIP3    H227361   3.173   5.572   5.055
 9140TIP3   OH227362   0.601   5.077   3.758
 9140TIP3    H127363   0.682   5.050   3.802
 9140TIP3    H227364   0.585   5.166   3.791
 9141TIP3   OH227365   1.185   5.237   1.626
 9141TIP3    H127366   1.098   5.222   1.589
 9141TIP3    H227367   1.178   5.205   1.716
 9142TIP3   OH227368   8.094   5.771   6.514
 9142TIP3    H127369   8.070   5.763   6.421
 9142TIP3    H227370   8.013   5.751   6.561
 9143TIP3   OH227371   1.937   4.010   3.074
 9143TIP3    H127372   2.016   4.043   3.032
 9143TIP3    H227373   1.968   3.974   3.158
 9144TIP3   OH227374   3.084   0.862   2.469
 9144TIP3    H127375   3.116   0.860   2.559
 9144TIP3    H227376   3.089   0.771   2.439
 9145TIP3   OH227377   2.975   4.995   1.425
 9145TIP3    H127378   2.918   4.922   1.448
 9145TIP3    H227379   2.915   5.064   1.395
 9146TIP3   OH227380   2.378   3.813   4.035
 9146TIP3    H127381   2.312   3.757   4.076
 9146TIP3    H227382   2.402   3.876   4.103
 9147TIP3   OH227383   3.575   1.039   5.227
 9147TIP3    H127384   3.516   1.098   5.180
 9147TIP3    H227385   3.599   1.087   5.306
 9148TIP3   OH227386   5.889   2.714   5.838
 9148TIP3    H127387   5.847   2.751   5.760
 9148TIP3    H227388   5.971   2.761   5.846
 9149TIP3   OH227389   4.698   1.709   4.348
 9149TIP3    H127390   4.793   1.721   4.341
 9149TIP3    H227391   4.687   1.637   4.409
 9150TIP3   OH227392   8.054   5.567   5.217
 9150TIP3    H127393   8.103   5.635   5.264
 9150TIP3    H227394   7.966   5.604   5.207
 9151TIP3   OH227395   6.211   3.251   0.680
 9151TIP3    H127396   6.226   3.159   0.657
 9151TIP3    H227397   6.295   3.280   0.717
 9152TIP3   OH227398   6.650   4.198   6.469
 9152TIP3    H127399   6.621   4.289   6.477
 9152TIP3    H227400   6.681   4.190   6.379
 9153TIP3   OH227401   2.612   2.102   2.680
 9153TIP3    H127402   2.524   2.066   2.677
 9153TIP3    H227403   2.656   2.050   2.748
 9154TIP3   OH227404   3.618   3.610   3.012
 9154TIP3    H127405   3.700   3.637   3.052
 9154TIP3    H227406   3.553   3.672   3.047
 9155TIP3   OH227407   0.974   2.121   2.194
 9155TIP3    H127408   1.069   2.129   2.201
 9155TIP3    H227409   0.941   2.168   2.270
 9156TIP3   OH227410   6.113   6.887   2.400
 9156TIP3    H127411   6.206   6.891   2.378
 9156TIP3    H227412   6.078   6.821   2.341
 9157TIP3   OH227413   1.463   2.686   1.101
 9157TIP3    H127414   1.527   2.752   1.127
 9157TIP3    H227415   1.503   2.602   1.126
 9158TIP3   OH227416   6.105   0.878   6.035
 9158TIP3    H127417   6.060   0.796   6.015
 9158TIP3    H227418   6.163   0.856   6.108
 9159TIP3   OH227419   3.396   5.837   6.372
 9159TIP3    H127420   3.305   5.810   6.382
 9159TIP3    H227421   3.397   5.885   6.289
 9160TIP3   OH227422   0.751   2.785   3.908
 9160TIP3    H127423   0.727   2.762   3.998
 9160TIP3    H227424   0.835   2.742   3.893
 9161TIP3   OH227425   4.688   5.753   2.876
 9161TIP3    H127426   4.643   5.672   2.899
 9161TIP3    H227427   4.628   5.823   2.902
 9162TIP3   OH227428   7.663   5.358   4.294
 9162TIP3    H127429   7.612   5.287   4.333
 9162TIP3    H227430   7.723   5.386   4.362
 9163TIP3   OH227431   5.959   5.700   5.735
 9163TIP3    H127432   6.044   5.732   5.766
 9163TIP3    H227433   5.976   5.676   5.644
 9164TIP3   OH227434   7.403   0.752   2.318
 9164TIP3    H127435   7.436   0.809   2.388
 9164TIP3    H227436   7.415   0.803   2.238
 9165TIP3   OH227437   6.200   7.469   2.793
 9165TIP3    H127438   6.134   7.440   2.857
 9165TIP3    H227439   6.172   7.558   2.769
 9166TIP3   OH227440   7.951   3.957   0.467
 9166TIP3    H127441   7.885   3.954   0.537
 9166TIP3    H227442   7.973   3.865   0.451
 9167TIP3   OH227443   5.455   3.508   4.818
 9167TIP3    H127444   5.421   3.497   4.907
 9167TIP3    H227445   5.473   3.419   4.788
 9168TIP3   OH227446   5.268   1.334   0.867
 9168TIP3    H127447   5.325   1.270   0.824
 9168TIP3    H227448   5.198   1.283   0.905
 9169TIP3   OH227449   6.492   0.538   1.231
 9169TIP3    H127450   6.431   0.506   1.298
 9169TIP3    H227451   6.514   0.627   1.259
 9170TIP3   OH227452   3.945   0.149   5.825
 9170TIP3    H127453   3.944   0.143   5.729
 9170TIP3    H227454   3.922   0.062   5.855
 9171TIP3   OH227455   2.712   2.737   1.138
 9171TIP3    H127456   2.763   2.660   1.115
 9171TIP3    H227457   2.669   2.714   1.221
 9172TIP3   OH227458   6.521   1.016   6.252
 9172TIP3    H127459   6.605   0.980   6.282
 9172TIP3    H227460   6.461   0.942   6.255
 9173TIP3   OH227461   6.936   1.446   3.762
 9173TIP3    H127462   6.951   1.415   3.851
 9173TIP3    H227463   6.892   1.373   3.718
 9174TIP3   OH227464   7.136   3.477   2.739
 9174TIP3    H127465   7.094   3.412   2.683
 9174TIP3    H227466   7.075   3.488   2.813
 9175TIP3   OH227467   2.628   2.895   4.514
 9175TIP3    H127468   2.565   2.896   4.442
 9175TIP3    H227469   2.641   2.987   4.536
 9176TIP3   OH227470   2.217   2.531   1.045
 9176TIP3    H127471   2.210   2.457   1.105
 9176TIP3    H227472   2.142   2.587   1.067
 9177TIP3   OH227473   3.357   1.040   5.013
 9177TIP3    H127474   3.300   0.980   5.061
 9177TIP3    H227475   3.309   1.123   5.015
 9178TIP3   OH227476   7.108   3.912   6.655
 9178TIP3    H127477   7.026   3.909   6.606
 9178TIP3    H227478   7.084   3.886   6.744
 9179TIP3   OH227479   0.149   4.526   1.902
 9179TIP3    H127480   0.214   4.479   1.851
 9179TIP3    H227481   0.106   4.584   1.840
 9180TIP3   OH227482   1.359   0.813   0.790
 9180TIP3    H127483   1.377   0.906   0.775
 9180TIP3    H227484   1.265   0.805   0.778
 9181TIP3   OH227485   5.255   0.607   3.727
 9181TIP3    H127486   5.204   0.538   3.685
 9181TIP3    H227487   5.196   0.643   3.794
 9182TIP3   OH227488   5.682   2.598   3.499
 9182TIP3    H127489   5.694   2.678   3.551
 9182TIP3    H227490   5.675   2.528   3.563
 9183TIP3   OH227491   6.471   5.859   1.002
 9183TIP3    H127492   6.550   5.913   1.012
 9183TIP3    H227493   6.498   5.788   0.945
 9184TIP3   OH227494   1.607   1.470   4.019
 9184TIP3    H127495   1.588   1.545   4.076
 9184TIP3    H227496   1.681   1.427   4.060
 9185TIP3   OH227497   5.058   0.751   6.236
 9185TIP3    H127498   5.142   0.746   6.281
 9185TIP3    H227499   5.005   0.812   6.288
 9186TIP3   OH227500   4.156   0.273   3.074
 9186TIP3    H127501   4.115   0.241   2.993
 9186TIP3    H227502   4.099   0.344   3.103
 9187TIP3   OH227503   2.592   6.829   4.069
 9187TIP3    H127504   2.568   6.854   3.980
 9187TIP3    H227505   2.512   6.791   4.106
 9188TIP3   OH227506   0.791   0.535   6.736
 9188TIP3    H127507   0.820   0.544   6.827
 9188TIP3    H227508   0.869   0.506   6.689
 9189TIP3   OH227509   8.100   7.501   0.819
 9189TIP3    H127510   8.169   7.533   0.761
 9189TIP3    H227511   8.020   7.542   0.786
 9190TIP3   OH227512   1.681   1.206   1.035
 9190TIP3    H127513   1.699   1.257   0.955
 9190TIP3    H227514   1.693   1.268   1.106
 9191TIP3   OH227515   4.426   7.015   1.006
 9191TIP3    H127516   4.504   7.034   1.058
 9191TIP3    H227517   4.445   6.930   0.964
 9192TIP3   OH227518   4.710   2.434   3.175
 9192TIP3    H127519   4.732   2.455   3.266
 9192TIP3    H227520   4.705   2.519   3.132
 9193TIP3   OH227521   4.016   3.167   3.021
 9193TIP3    H127522   4.101   3.205   3.042
 9193TIP3    H227523   4.037   3.086   2.974
 9194TIP3   OH227524   4.820   1.716   0.435
 9194TIP3    H127525   4.805   1.634   0.483
 9194TIP3    H227526   4.773   1.783   0.486
 9195TIP3   OH227527   7.695   7.761   6.093
 9195TIP3    H127528   7.782   7.726   6.112
 9195TIP3    H227529   7.640   7.725   6.162
 9196TIP3   OH227530   0.136   1.246   3.419
 9196TIP3    H127531   0.120   1.325   3.472
 9196TIP3    H227532   0.183   1.187   3.478
 9197TIP3   OH227533   2.894   5.825   0.889
 9197TIP3    H127534   2.978   5.869   0.888
 9197TIP3    H227535   2.849   5.859   0.966
 9198TIP3   OH227536   2.244   4.422   3.917
 9198TIP3    H127537   2.242   4.514   3.946
 9198TIP3    H227538   2.325   4.415   3.866
 9199TIP3   OH227539   1.668   6.749   3.427
 9199TIP3    H127540   1.756   6.783   3.443
 9199TIP3    H227541   1.611   6.825   3.434
 9200TIP3   OH227542   1.650   0.704   3.906
 9200TIP3    H127543   1.582   0.661   3.959
 9200TIP3    H227544   1.653   0.652   3.826
 9201TIP3   OH227545   3.076   5.735   1.539
 9201TIP3    H127546   3.030   5.818   1.552
 9201TIP3    H227547   3.008   5.675   1.507
 9202TIP3   OH227548   0.185   5.055   2.849
 9202TIP3    H127549   0.092   5.033   2.846
 9202TIP3    H227550   0.211   5.038   2.940
 9203TIP3   OH227551   1.617   0.895   4.626
 9203TIP3    H127552   1.690   0.835   4.608
 9203TIP3    H227553   1.559   0.844   4.684
 9204TIP3   OH227554   0.994   6.999   0.480
 9204TIP3    H127555   1.074   7.045   0.507
 9204TIP3    H227556   0.993   6.919   0.533
 9205TIP3   OH227557   0.587   1.583   5.996
 9205TIP3    H127558   0.682   1.595   6.004
 9205TIP3    H227559   0.576   1.488   5.987
 9206TIP3   OH227560   3.392   2.724   6.086
 9206TIP3    H127561   3.341   2.646   6.108
 9206TIP3    H227562   3.409   2.766   6.170
 9207TIP3   OH227563   2.000   2.284   3.072
 9207TIP3    H127564   1.925   2.326   3.030
 9207TIP3    H227565   2.071   2.291   3.009
 9208TIP3   OH227566   2.124   4.830   3.089
 9208TIP3    H127567   2.139   4.837   2.995
 9208TIP3    H227568   2.049   4.888   3.106
 9209TIP3   OH227569   3.367   7.259   5.813
 9209TIP3    H127570   3.418   7.305   5.746
 9209TIP3    H227571   3.349   7.326   5.879
 9210TIP3   OH227572   6.865   2.610   2.602
 9210TIP3    H127573   6.849   2.625   2.695
 9210TIP3    H227574   6.787   2.643   2.558
 9211TIP3   OH227575   0.195   0.428   1.609
 9211TIP3    H127576   0.211   0.446   1.702
 9211TIP3    H227577   0.257   0.358   1.588
 9212TIP3   OH227578   4.043   1.929   3.223
 9212TIP3    H127579   3.982   1.934   3.150
 9212TIP3    H227580   4.105   2.001   3.208
 9213TIP3   OH227581   5.538   2.421  -0.012
 9213TIP3    H127582   5.448   2.403   0.015
 9213TIP3    H227583   5.573   2.478   0.057
 9214TIP3   OH227584   4.721   7.293   5.417
 9214TIP3    H127585   4.763   7.269   5.334
 9214TIP3    H227586   4.716   7.389   5.414
 9215TIP3   OH227587   1.242   3.407   1.534
 9215TIP3    H127588   1.313   3.364   1.486
 9215TIP3    H227589   1.240   3.361   1.618
 9216TIP3   OH227590   5.827   5.809   2.473
 9216TIP3    H127591   5.898   5.871   2.489
 9216TIP3    H227592   5.867   5.723   2.487
 9217TIP3   OH227593   4.883   5.895   5.476
 9217TIP3    H127594   4.846   5.874   5.390
 9217TIP3    H227595   4.883   5.812   5.523
 9218TIP3   OH227596   6.939   3.331   2.178
 9218TIP3    H127597   6.961   3.250   2.226
 9218TIP3    H227598   6.857   3.361   2.218
 9219TIP3   OH227599   1.953   4.809   3.953
 9219TIP3    H127600   1.971   4.896   3.987
 9219TIP3    H227601   2.027   4.790   3.895
 9220TIP3   OH227602   6.935   6.912   5.365
 9220TIP3    H127603   6.878   6.875   5.433
 9220TIP3    H227604   7.023   6.907   5.403
 9221TIP3   OH227605   0.988   2.235   2.441
 9221TIP3    H127606   1.029   2.267   2.521
 9221TIP3    H227607   0.916   2.296   2.425
 9222TIP3   OH227608   2.542   4.959   0.479
 9222TIP3    H127609   2.500   4.891   0.425
 9222TIP3    H227610   2.608   4.911   0.530
 9223TIP3   OH227611   5.418   4.421   6.260
 9223TIP3    H127612   5.323   4.413   6.273
 9223TIP3    H227613   5.429   4.434   6.166
 9224TIP3   OH227614   7.037   3.007   1.452
 9224TIP3    H127615   7.030   3.045   1.540
 9224TIP3    H227616   7.130   2.988   1.441
 9225TIP3   OH227617   4.069   0.940   6.676
 9225TIP3    H127618   4.158   0.939   6.711
 9225TIP3    H227619   4.081   0.931   6.581
 9226TIP3   OH227620   4.358   4.972   0.421
 9226TIP3    H127621   4.416   4.975   0.497
 9226TIP3    H227622   4.371   4.885   0.383
 9227TIP3   OH227623   7.980   2.584   4.198
 9227TIP3    H127624   7.922   2.528   4.250
 9227TIP3    H227625   7.923   2.625   4.134
 9228TIP3   OH227626   4.465   6.723   4.044
 9228TIP3    H127627   4.516   6.677   3.977
 9228TIP3    H227628   4.436   6.803   4.001
 9229TIP3   OH227629   7.000   4.203   0.995
 9229TIP3    H127630   7.039   4.243   1.073
 9229TIP3    H227631   7.065   4.218   0.926
 9230TIP3   OH227632   3.952   6.019   0.299
 9230TIP3    H127633   4.023   5.976   0.252
 9230TIP3    H227634   3.976   6.112   0.300
 9231TIP3   OH227635   5.228   2.786   0.951
 9231TIP3    H127636   5.172   2.721   0.992
 9231TIP3    H227637   5.216   2.865   1.003
 9232TIP3   OH227638   1.859   6.978   4.875
 9232TIP3    H127639   1.851   6.911   4.807
 9232TIP3    H227640   1.947   7.013   4.865
 9233TIP3   OH227641   6.412   0.389   0.595
 9233TIP3    H127642   6.362   0.428   0.523
 9233TIP3    H227643   6.408   0.454   0.665
 9234TIP3   OH227644   4.518   0.194   1.855
 9234TIP3    H127645   4.500   0.103   1.878
 9234TIP3    H227646   4.464   0.245   1.915
 9235TIP3   OH227647   7.154   3.772   6.237
 9235TIP3    H127648   7.161   3.677   6.241
 9235TIP3    H227649   7.245   3.803   6.243
 9236TIP3   OH227650   7.442   7.805   2.861
 9236TIP3    H127651   7.452   7.715   2.830
 9236TIP3    H227652   7.347   7.821   2.858
 9237TIP3   OH227653   2.133   1.039   6.596
 9237TIP3    H127654   2.184   0.961   6.575
 9237TIP3    H227655   2.044   1.020   6.565
 9238TIP3   OH227656   6.751   6.784   3.416
 9238TIP3    H127657   6.717   6.738   3.492
 9238TIP3    H227658   6.805   6.719   3.370
 9239TIP3   OH227659   7.644   1.632   6.370
 9239TIP3    H127660   7.626   1.654   6.461
 9239TIP3    H227661   7.638   1.716   6.323
 9240TIP3   OH227662   7.031   2.833   5.291
 9240TIP3    H127663   7.046   2.748   5.333
 9240TIP3    H227664   6.944   2.860   5.321
 9241TIP3   OH227665   2.990   2.395   2.296
 9241TIP3    H127666   2.960   2.402   2.387
 9241TIP3    H227667   2.996   2.485   2.265
 9242TIP3   OH227668   3.004   0.649   0.061
 9242TIP3    H127669   2.943   0.714   0.025
 9242TIP3    H227670   3.051   0.695   0.130
 9243TIP3   OH227671   4.200   0.771   2.023
 9243TIP3    H127672   4.147   0.764   2.102
 9243TIP3    H227673   4.287   0.797   2.054
 9244TIP3   OH227674   4.314   5.908   1.816
 9244TIP3    H127675   4.291   5.835   1.873
 9244TIP3    H227676   4.410   5.908   1.814
 9245TIP3   OH227677   6.541   5.807   5.190
 9245TIP3    H127678   6.624   5.767   5.162
 9245TIP3    H227679   6.568   5.883   5.242
 9246TIP3   OH227680   3.597   4.364   1.043
 9246TIP3    H127681   3.571   4.436   1.100
 9246TIP3    H227682   3.530   4.361   0.975
 9247TIP3   OH227683   1.932   6.319   6.633
 9247TIP3    H127684   1.913   6.288   6.721
 9247TIP3    H227685   1.977   6.403   6.646
 9248TIP3   OH227686   7.995   0.245   5.088
 9248TIP3    H127687   8.043   0.169   5.055
 9248TIP3    H227688   7.991   0.232   5.182
 9249TIP3   OH227689   6.736   1.963   3.504
 9249TIP3    H127690   6.800   1.943   3.436
 9249TIP3    H227691   6.665   2.008   3.458
 9250TIP3   OH227692   3.397   7.258   2.213
 9250TIP3    H127693   3.389   7.290   2.123
 9250TIP3    H227694   3.463   7.316   2.253
 9251TIP3   OH227695   5.303   5.186   5.788
 9251TIP3    H127696   5.334   5.216   5.874
 9251TIP3    H227697   5.214   5.220   5.781
 9252TIP3   OH227698   0.888   3.750   3.546
 9252TIP3    H127699   0.973   3.745   3.502
 9252TIP3    H227700   0.888   3.678   3.609
 9253TIP3   OH227701   6.624   4.016   4.456
 9253TIP3    H127702   6.640   4.067   4.376
 9253TIP3    H227703   6.543   4.052   4.491
 9254TIP3   OH227704   4.776   7.524   2.136
 9254TIP3    H127705   4.849   7.466   2.116
 9254TIP3    H227706   4.764   7.576   2.056
 9255TIP3   OH227707   7.393   3.466   4.037
 9255TIP3    H127708   7.416   3.374   4.023
 9255TIP3    H227709   7.350   3.467   4.122
 9256TIP3   OH227710   5.083   3.093   1.903
 9256TIP3    H127711   5.139   3.067   1.830
 9256TIP3    H227712   5.144   3.113   1.974
 9257TIP3   OH227713   1.924   5.241   2.463
 9257TIP3    H127714   1.854   5.284   2.414
 9257TIP3    H227715   1.918   5.149   2.440
 9258TIP3   OH227716   1.775   0.828   0.801
 9258TIP3    H127717   1.775   0.838   0.896
 9258TIP3    H227718   1.819   0.744   0.786
 9259TIP3   OH227719   8.156   2.163   2.111
 9259TIP3    H127720   8.110   2.241   2.081
 9259TIP3    H227721   8.183   2.183   2.200
 9260TIP3   OH227722   3.116   3.690   5.359
 9260TIP3    H127723   3.200   3.733   5.346
 9260TIP3    H227724   3.113   3.669   5.453
 9261TIP3   OH227725   0.404   6.117   3.770
 9261TIP3    H127726   0.381   6.025   3.760
 9261TIP3    H227727   0.326   6.157   3.810
 9262TIP3   OH227728   5.234   5.939   5.820
 9262TIP3    H127729   5.203   5.861   5.773
 9262TIP3    H227730   5.160   5.967   5.873
 9263TIP3   OH227731   2.591   3.547   4.777
 9263TIP3    H127732   2.668   3.524   4.726
 9263TIP3    H227733   2.603   3.503   4.861
 9264TIP3   OH227734   7.906   1.845   2.557
 9264TIP3    H127735   7.955   1.923   2.583
 9264TIP3    H227736   7.874   1.808   2.639
 9265TIP3   OH227737   2.037   6.943   4.011
 9265TIP3    H127738   2.032   6.912   3.920
 9265TIP3    H227739   1.995   6.874   4.062
 9266TIP3   OH227740   3.183   1.702   1.069
 9266TIP3    H127741   3.234   1.699   0.988
 9266TIP3    H227742   3.242   1.739   1.134
 9267TIP3   OH227743   3.290   3.388   4.300
 9267TIP3    H127744   3.280   3.384   4.205
 9267TIP3    H227745   3.361   3.326   4.319
 9268TIP3   OH227746   2.135   5.729   4.005
 9268TIP3    H127747   2.114   5.754   4.095
 9268TIP3    H227748   2.178   5.806   3.969
 9269TIP3   OH227749   2.502   5.365   0.672
 9269TIP3    H127750   2.538   5.285   0.710
 9269TIP3    H227751   2.433   5.335   0.613
 9270TIP3   OH227752   3.304   4.608   1.943
 9270TIP3    H127753   3.284   4.578   2.032
 9270TIP3    H227754   3.316   4.527   1.893
 9271TIP3   OH227755   0.911   6.723   3.114
 9271TIP3    H127756   0.887   6.784   3.044
 9271TIP3    H227757   0.919   6.639   3.070
 9272TIP3   OH227758   3.875   1.558   4.559
 9272TIP3    H127759   3.933   1.634   4.559
 9272TIP3    H227760   3.908   1.502   4.488
 9273TIP3   OH227761   6.073   4.309   3.065
 9273TIP3    H127762   6.110   4.251   3.132
 9273TIP3    H227763   6.143   4.320   3.001
 9274TIP3   OH227764   7.126   4.926   2.594
 9274TIP3    H127765   7.122   4.867   2.518
 9274TIP3    H227766   7.047   4.980   2.587
 9275TIP3   OH227767   2.835   5.986   0.262
 9275TIP3    H127768   2.801   6.064   0.306
 9275TIP3    H227769   2.903   5.954   0.320
 9276TIP3   OH227770   3.876   1.692   2.319
 9276TIP3    H127771   3.874   1.641   2.399
 9276TIP3    H227772   3.860   1.782   2.348
 9277TIP3   OH227773   7.790   3.324   4.399
 9277TIP3    H127774   7.828   3.292   4.481
 9277TIP3    H227775   7.710   3.369   4.425
 9278TIP3   OH227776   5.875   5.321   6.543
 9278TIP3    H127777   5.932   5.310   6.467
 9278TIP3    H227778   5.904   5.403   6.583
 9279TIP3   OH227779   0.252   1.540   5.499
 9279TIP3    H127780   0.200   1.523   5.421
 9279TIP3    H227781   0.310   1.612   5.474
 9280TIP3   OH227782   1.190   0.341   2.811
 9280TIP3    H127783   1.111   0.391   2.787
 9280TIP3    H227784   1.262   0.400   2.791
 9281TIP3   OH227785   1.826   5.905   2.766
 9281TIP3    H127786   1.843   5.996   2.742
 9281TIP3    H227787   1.735   5.890   2.740
 9282TIP3   OH227788   7.598   1.299   5.418
 9282TIP3    H127789   7.670   1.247   5.383
 9282TIP3    H227790   7.611   1.296   5.513
 9283TIP3   OH227791   6.586   2.409   5.350
 9283TIP3    H127792   6.641   2.390   5.275
 9283TIP3    H227793   6.503   2.367   5.331
 9284TIP3   OH227794   3.676   6.238   2.476
 9284TIP3    H127795   3.658   6.223   2.569
 9284TIP3    H227796   3.713   6.155   2.446
 9285TIP3   OH227797   3.408   6.454   1.503
 9285TIP3    H127798   3.355   6.426   1.429
 9285TIP3    H227799   3.460   6.527   1.468
 9286TIP3   OH227800   7.415   6.403   1.272
 9286TIP3    H127801   7.499   6.429   1.311
 9286TIP3    H227802   7.435   6.396   1.178
 9287TIP3   OH227803   2.806   7.371   6.198
 9287TIP3    H127804   2.720   7.328   6.197
 9287TIP3    H227805   2.793   7.452   6.149
 9288TIP3   OH227806   7.197   6.401   5.379
 9288TIP3    H127807   7.134   6.466   5.411
 9288TIP3    H227808   7.257   6.389   5.452
 9289TIP3   OH227809   0.665   6.825   1.916
 9289TIP3    H127810   0.727   6.816   1.843
 9289TIP3    H227811   0.579   6.827   1.875
 9290TIP3   OH227812   4.277   1.000   5.932
 9290TIP3    H127813   4.225   0.959   5.864
 9290TIP3    H227814   4.213   1.024   6.000
 9291TIP3   OH227815   6.772   1.697   0.694
 9291TIP3    H127816   6.795   1.753   0.769
 9291TIP3    H227817   6.677   1.690   0.699
 9292TIP3   OH227818   7.445   1.495   4.482
 9292TIP3    H127819   7.482   1.574   4.520
 9292TIP3    H227820   7.509   1.467   4.416
 9293TIP3   OH227821   5.367   0.668   0.697
 9293TIP3    H127822   5.411   0.592   0.734
 9293TIP3    H227823   5.411   0.743   0.738
 9294TIP3   OH227824   4.591   2.106   4.481
 9294TIP3    H127825   4.542   2.159   4.418
 9294TIP3    H227826   4.524   2.054   4.525
 9295TIP3   OH227827   1.417   0.101   1.013
 9295TIP3    H127828   1.383   0.188   0.994
 9295TIP3    H227829   1.419   0.057   0.928
 9296TIP3   OH227830   6.191   5.712   1.986
 9296TIP3    H127831   6.220   5.673   1.903
 9296TIP3    H227832   6.267   5.705   2.043
 9297TIP3   OH227833   0.487   0.872   5.718
 9297TIP3    H127834   0.508   0.939   5.654
 9297TIP3    H227835   0.548   0.887   5.790
 9298TIP3   OH227836   3.540   2.035   1.616
 9298TIP3    H127837   3.515   2.011   1.527
 9298TIP3    H227838   3.461   2.073   1.654
 9299TIP3   OH227839   1.192   6.481   4.165
 9299TIP3    H127840   1.167   6.507   4.076
 9299TIP3    H227841   1.120   6.427   4.196
 9300TIP3   OH227842   4.157   5.449   6.154
 9300TIP3    H127843   4.230   5.437   6.094
 9300TIP3    H227844   4.170   5.537   6.189
 9301TIP3   OH227845   6.719   2.708   5.379
 9301TIP3    H127846   6.636   2.744   5.349
 9301TIP3    H227847   6.727   2.738   5.469
 9302TIP3   OH227848   1.142   6.761   1.295
 9302TIP3    H127849   1.149   6.666   1.288
 9302TIP3    H227850   1.180   6.794   1.214
 9303TIP3   OH227851   7.467   0.339   6.581
 9303TIP3    H127852   7.443   0.403   6.648
 9303TIP3    H227853   7.559   0.359   6.560
 9304TIP3   OH227854   2.259   6.851   5.533
 9304TIP3    H127855   2.324   6.871   5.465
 9304TIP3    H227856   2.299   6.779   5.583
 9305TIP3   OH227857   3.953   7.224   0.572
 9305TIP3    H127858   3.964   7.234   0.667
 9305TIP3    H227859   3.988   7.138   0.553
 9306TIP3   OH227860   3.185   6.587   0.942
 9306TIP3    H127861   3.103   6.611   0.899
 9306TIP3    H227862   3.170   6.608   1.034
 9307TIP3   OH227863   3.834   6.003   6.411
 9307TIP3    H127864   3.748   6.043   6.420
 9307TIP3    H227865   3.866   6.035   6.326
 9308TIP3   OH227866   3.130   7.690   2.509
 9308TIP3    H127867   3.112   7.616   2.567
 9308TIP3    H227868   3.046   7.710   2.469
 9309TIP3   OH227869   4.469   3.041   5.019
 9309TIP3    H127870   4.431   3.036   5.107
 9309TIP3    H227871   4.399   3.077   4.965
 9310TIP3   OH227872   0.446   4.803   3.397
 9310TIP3    H127873   0.497   4.790   3.477
 9310TIP3    H227874   0.511   4.808   3.327
 9311TIP3   OH227875   2.753   2.818   1.776
 9311TIP3    H127876   2.718   2.886   1.834
 9311TIP3    H227877   2.841   2.849   1.753
 9312TIP3   OH227878   6.522   7.764   4.232
 9312TIP3    H127879   6.572   7.779   4.151
 9312TIP3    H227880   6.458   7.696   4.209
 9313TIP3   OH227881   7.393   2.706   1.170
 9313TIP3    H127882   7.391   2.648   1.246
 9313TIP3    H227883   7.478   2.750   1.176
 9314TIP3   OH227884   5.762   0.788   0.222
 9314TIP3    H127885   5.794   0.699   0.238
 9314TIP3    H227886   5.791   0.838   0.298
 9315TIP3   OH227887   0.305   2.848   0.234
 9315TIP3    H127888   0.264   2.769   0.271
 9315TIP3    H227889   0.394   2.820   0.212
 9316TIP3   OH227890   3.795   5.834   0.383
 9316TIP3    H127891   3.834   5.820   0.469
 9316TIP3    H227892   3.856   5.891   0.338
 9317TIP3   OH227893   5.233   5.753   4.754
 9317TIP3    H127894   5.213   5.673   4.803
 9317TIP3    H227895   5.327   5.765   4.766
 9318TIP3   OH227896   0.320   3.658   2.380
 9318TIP3    H127897   0.258   3.623   2.444
 9318TIP3    H227898   0.268   3.720   2.329
 9319TIP3   OH227899   0.762   2.461   6.115
 9319TIP3    H127900   0.841   2.413   6.140
 9319TIP3    H227901   0.704   2.452   6.191
 9320TIP3   OH227902   0.247   1.266   1.702
 9320TIP3    H127903   0.261   1.325   1.776
 9320TIP3    H227904   0.159   1.288   1.670
 9321TIP3   OH227905   2.728   2.493   4.910
 9321TIP3    H127906   2.639   2.458   4.910
 9321TIP3    H227907   2.724   2.569   4.967
 9322TIP3   OH227908   4.100   4.189   2.693
 9322TIP3    H127909   4.167   4.123   2.675
 9322TIP3    H227910   4.030   4.140   2.737
 9323TIP3   OH227911   4.971   0.164   3.663
 9323TIP3    H127912   5.050   0.129   3.622
 9323TIP3    H227913   4.898   0.121   3.618
 9324TIP3   OH227914   0.103   2.083   4.353
 9324TIP3    H127915   0.014   2.110   4.328
 9324TIP3    H227916   0.150   2.165   4.365
 9325TIP3   OH227917   7.053   3.295   2.559
 9325TIP3    H127918   7.132   3.286   2.506
 9325TIP3    H227919   6.981   3.275   2.499
 9326TIP3   OH227920   3.453   3.582   4.451
 9326TIP3    H127921   3.481   3.597   4.360
 9326TIP3    H227922   3.399   3.503   4.445
 9327TIP3   OH227923   4.018   1.700   0.820
 9327TIP3    H127924   3.950   1.721   0.885
 9327TIP3    H227925   4.098   1.691   0.871
 9328TIP3   OH227926   2.314   6.989   2.892
 9328TIP3    H127927   2.276   6.958   2.810
 9328TIP3    H227928   2.386   6.928   2.909
 9329TIP3   OH227929   4.739   0.908   6.613
 9329TIP3    H127930   4.733   0.968   6.687
 9329TIP3    H227931   4.781   0.830   6.648
 9330TIP3   OH227932   3.627   0.108   0.133
 9330TIP3    H127933   3.682   0.093   0.056
 9330TIP3    H227934   3.690   0.123   0.204
 9331TIP3   OH227935   5.341   1.043   6.120
 9331TIP3    H127936   5.269   0.996   6.077
 9331TIP3    H227937   5.413   0.980   6.124
 9332TIP3   OH227938   0.074   6.252   2.678
 9332TIP3    H127939   0.001   6.278   2.733
 9332TIP3    H227940   0.130   6.330   2.674
 9333TIP3   OH227941   1.520   0.378   5.183
 9333TIP3    H127942   1.610   0.405   5.168
 9333TIP3    H227943   1.527   0.309   5.249
 9334TIP3   OH227944   6.585   4.370   5.961
 9334TIP3    H127945   6.524   4.337   6.027
 9334TIP3    H227946   6.657   4.307   5.962
 9335TIP3   OH227947   3.164   7.655   5.449
 9335TIP3    H127948   3.211   7.592   5.503
 9335TIP3    H227949   3.223   7.730   5.444
 9336TIP3   OH227950   0.209   2.337   0.216
 9336TIP3    H127951   0.275   2.401   0.188
 9336TIP3    H227952   0.192   2.284   0.138
 9337TIP3   OH227953   5.649   4.575   3.381
 9337TIP3    H127954   5.718   4.511   3.364
 9337TIP3    H227955   5.666   4.646   3.319
 9338TIP3   OH227956   0.747   4.861   5.430
 9338TIP3    H127957   0.673   4.840   5.486
 9338TIP3    H227958   0.754   4.956   5.432
 9339TIP3   OH227959   6.266   3.143   5.870
 9339TIP3    H127960   6.280   3.171   5.779
 9339TIP3    H227961   6.348   3.164   5.914
 9340TIP3   OH227962   1.026   3.996   1.623
 9340TIP3    H127963   1.091   4.027   1.687
 9340TIP3    H227964   1.068   4.009   1.538
 9341TIP3   OH227965   4.028   7.665   4.789
 9341TIP3    H127966   4.085   7.628   4.856
 9341TIP3    H227967   4.020   7.595   4.723
 9342TIP3   OH227968   7.349   2.406   3.592
 9342TIP3    H127969   7.262   2.445   3.582
 9342TIP3    H227970   7.358   2.348   3.516
 9343TIP3   OH227971   6.966   0.911   5.733
 9343TIP3    H127972   6.957   0.855   5.656
 9343TIP3    H227973   6.955   1.000   5.699
 9344TIP3   OH227974   0.331   4.747   0.158
 9344TIP3    H127975   0.290   4.816   0.210
 9344TIP3    H227976   0.332   4.670   0.216
 9345TIP3   OH227977   5.683   1.737   1.160
 9345TIP3    H127978   5.645   1.824   1.170
 9345TIP3    H227979   5.701   1.729   1.066
 9346TIP3   OH227980   2.260   4.024   4.891
 9346TIP3    H127981   2.318   4.036   4.816
 9346TIP3    H227982   2.277   3.935   4.921
 9347TIP3   OH227983   0.896   1.906   4.333
 9347TIP3    H127984   0.847   1.974   4.380
 9347TIP3    H227985   0.872   1.919   4.241
 9348TIP3   OH227986   2.502   5.795   3.483
 9348TIP3    H127987   2.533   5.798   3.393
 9348TIP3    H227988   2.532   5.877   3.522
 9349TIP3   OH227989   1.203   2.328   0.634
 9349TIP3    H127990   1.256   2.401   0.666
 9349TIP3    H227991   1.113   2.353   0.655
 9350TIP3   OH227992   0.928   1.558   2.404
 9350TIP3    H127993   0.848   1.588   2.360
 9350TIP3    H227994   0.904   1.473   2.440
 9351TIP3   OH227995   5.477   0.413   3.663
 9351TIP3    H127996   5.423   0.480   3.705
 9351TIP3    H227997   5.441   0.405   3.575
 9352TIP3   OH227998   1.889   4.350   6.733
 9352TIP3    H127999   1.873   4.287   6.662
 9352TIP3    H228000   1.980   4.377   6.721
 9353TIP3   OH228001   0.991   3.963   3.203
 9353TIP3    H128002   0.946   4.027   3.258
 9353TIP3    H228003   0.990   4.002   3.115
 9354TIP3   OH228004   7.267   3.246   6.559
 9354TIP3    H128005   7.305   3.283   6.639
 9354TIP3    H228006   7.330   3.267   6.490
 9355TIP3   OH228007   8.231   0.672   4.826
 9355TIP3    H128008   8.150   0.637   4.861
 9355TIP3    H228009   8.295   0.602   4.836
 9356TIP3   OH228010   2.440   1.022   3.159
 9356TIP3    H128011   2.363   1.075   3.137
 9356TIP3    H228012   2.513   1.066   3.116
 9357TIP3   OH228013   1.815   3.470   3.630
 9357TIP3    H128014   1.881   3.529   3.667
 9357TIP3    H228015   1.853   3.441   3.547
 9358TIP3   OH228016   0.515   7.765   2.638
 9358TIP3    H128017   0.450   7.747   2.706
 9358TIP3    H228018   0.499   7.698   2.571
 9359TIP3   OH228019   7.621   5.179   4.980
 9359TIP3    H128020   7.606   5.190   5.074
 9359TIP3    H228021   7.640   5.086   4.970
 9360TIP3   OH228022   5.770   0.396   2.485
 9360TIP3    H128023   5.730   0.352   2.410
 9360TIP3    H228024   5.863   0.375   2.478
 9361TIP3   OH228025   1.410   3.653   6.328
 9361TIP3    H128026   1.366   3.581   6.283
 9361TIP3    H228027   1.352   3.728   6.315
 9362TIP3   OH228028   3.462   2.458   0.388
 9362TIP3    H128029   3.411   2.538   0.405
 9362TIP3    H228030   3.505   2.475   0.304
 9363TIP3   OH228031   7.809   3.720   0.177
 9363TIP3    H128032   7.786   3.813   0.165
 9363TIP3    H228033   7.755   3.692   0.251
 9364TIP3   OH228034   1.832   2.207   4.567
 9364TIP3    H128035   1.822   2.230   4.475
 9364TIP3    H228036   1.894   2.134   4.567
 9365TIP3   OH228037   6.336   2.714   4.167
 9365TIP3    H128038   6.245   2.724   4.141
 9365TIP3    H228039   6.378   2.796   4.142
 9366TIP3   OH228040   4.854   6.225   2.307
 9366TIP3    H128041   4.933   6.173   2.294
 9366TIP3    H228042   4.791   6.165   2.347
 9367TIP3   OH228043   5.647   3.959   0.471
 9367TIP3    H128044   5.567   3.994   0.511
 9367TIP3    H228045   5.700   4.036   0.451
 9368TIP3   OH228046   7.056   5.119   4.996
 9368TIP3    H128047   7.025   5.057   4.931
 9368TIP3    H228048   7.129   5.164   4.953
 9369TIP3   OH228049   3.205   2.577   6.193
 9369TIP3    H128050   3.167   2.539   6.272
 9369TIP3    H228051   3.189   2.512   6.125
 9370TIP3   OH228052   0.661   4.558   6.052
 9370TIP3    H128053   0.700   4.486   6.002
 9370TIP3    H228054   0.569   4.558   6.026
 9371TIP3   OH228055   5.753   4.490   3.897
 9371TIP3    H128056   5.771   4.406   3.939
 9371TIP3    H228057   5.742   4.469   3.804
 9372TIP3   OH228058   0.896   3.353   6.535
 9372TIP3    H128059   0.856   3.324   6.618
 9372TIP3    H228060   0.916   3.272   6.488
 9373TIP3   OH228061   0.868   6.587   5.733
 9373TIP3    H128062   0.928   6.512   5.731
 9373TIP3    H228063   0.790   6.555   5.778
 9374TIP3   OH228064   6.659   0.829   2.162
 9374TIP3    H128065   6.654   0.781   2.080
 9374TIP3    H228066   6.622   0.915   2.142
 9375TIP3   OH228067   6.630   4.156   4.234
 9375TIP3    H128068   6.657   4.137   4.144
 9375TIP3    H228069   6.536   4.175   4.228
 9376TIP3   OH228070   6.310   3.060   1.023
 9376TIP3    H128071   6.244   3.043   0.955
 9376TIP3    H228072   6.392   3.030   0.985
 9377TIP3   OH228073   1.359   0.657   5.973
 9377TIP3    H128074   1.423   0.623   5.910
 9377TIP3    H228075   1.408   0.718   6.027
 9378TIP3   OH228076   1.606   3.873   2.960
 9378TIP3    H128077   1.609   3.808   3.030
 9378TIP3    H228078   1.597   3.821   2.880
 9379TIP3   OH228079   7.025   5.943   1.867
 9379TIP3    H128080   6.978   5.873   1.821
 9379TIP3    H228081   7.102   5.961   1.813
 9380TIP3   OH228082   4.929   4.574   2.706
 9380TIP3    H128083   4.849   4.618   2.678
 9380TIP3    H228084   4.997   4.610   2.650
 9381TIP3   OH228085   7.724   5.832   5.720
 9381TIP3    H128086   7.720   5.895   5.648
 9381TIP3    H228087   7.653   5.771   5.701
 9382TIP3   OH228088   4.261   1.378   5.239
 9382TIP3    H128089   4.256   1.467   5.204
 9382TIP3    H228090   4.324   1.333   5.183
 9383TIP3   OH228091   6.157   2.045   5.229
 9383TIP3    H128092   6.076   2.026   5.276
 9383TIP3    H228093   6.129   2.063   5.139
 9384TIP3   OH228094   4.613   3.242   3.839
 9384TIP3    H128095   4.577   3.301   3.904
 9384TIP3    H228096   4.666   3.298   3.782
 9385TIP3   OH228097   5.660   0.010   4.346
 9385TIP3    H128098   5.669   0.068   4.421
 9385TIP3    H228099   5.598   0.055   4.288
 9386TIP3   OH228100   5.444   2.899   4.431
 9386TIP3    H128101   5.502   2.961   4.474
 9386TIP3    H228102   5.382   2.954   4.383
 9387TIP3   OH228103   8.167   3.224   2.320
 9387TIP3    H128104   8.232   3.293   2.333
 9387TIP3    H228105   8.085   3.271   2.304
 9388TIP3   OH228106   4.577   0.432   0.249
 9388TIP3    H128107   4.498   0.445   0.302
 9388TIP3    H228108   4.568   0.344   0.214
 9389TIP3   OH228109   1.779   1.822   0.809
 9389TIP3    H128110   1.700   1.876   0.801
 9389TIP3    H228111   1.812   1.840   0.897
 9390TIP3   OH228112   4.172   0.697   3.146
 9390TIP3    H128113   4.123   0.723   3.068
 9390TIP3    H228114   4.111   0.642   3.195
 9391TIP3   OH228115   2.215   2.368   6.595
 9391TIP3    H128116   2.158   2.296   6.621
 9391TIP3    H228117   2.245   2.345   6.507
 9392TIP3   OH228118   7.726   1.665   2.446
 9392TIP3    H128119   7.638   1.700   2.461
 9392TIP3    H228120   7.784   1.724   2.495
 9393TIP3   OH228121   3.044   7.254   4.442
 9393TIP3    H128122   3.040   7.266   4.536
 9393TIP3    H228123   3.105   7.182   4.429
 9394TIP3   OH228124   1.484   1.561   3.098
 9394TIP3    H128125   1.423   1.599   3.162
 9394TIP3    H228126   1.531   1.636   3.062
 9395TIP3   OH228127   6.905   4.524   4.181
 9395TIP3    H128128   6.990   4.479   4.174
 9395TIP3    H228129   6.895   4.543   4.274
 9396TIP3   OH228130   6.430   1.985   3.769
 9396TIP3    H128131   6.385   1.902   3.784
 9396TIP3    H228132   6.428   2.029   3.854
 9397TIP3   OH228133   0.582   0.335   3.993
 9397TIP3    H128134   0.486   0.332   3.996
 9397TIP3    H228135   0.605   0.291   3.911
 9398TIP3   OH228136   7.345   1.132   4.464
 9398TIP3    H128137   7.250   1.132   4.459
 9398TIP3    H228138   7.364   1.150   4.557
 9399TIP3   OH228139   8.131   7.799   0.435
 9399TIP3    H128140   8.060   7.863   0.440
 9399TIP3    H228141   8.203   7.845   0.393
 9400TIP3   OH228142   5.112   2.290   2.614
 9400TIP3    H128143   5.044   2.322   2.673
 9400TIP3    H228144   5.192   2.291   2.666
 9401TIP3   OH228145   3.618   6.303   0.985
 9401TIP3    H128146   3.606   6.398   0.979
 9401TIP3    H228147   3.528   6.269   0.982
 9402TIP3   OH228148   7.052   5.650   3.490
 9402TIP3    H128149   7.144   5.677   3.490
 9402TIP3    H228150   7.039   5.611   3.403
 9403TIP3   OH228151   3.411   7.230   3.183
 9403TIP3    H128152   3.488   7.175   3.193
 9403TIP3    H228153   3.446   7.316   3.160
 9404TIP3   OH228154   7.319   4.964   0.541
 9404TIP3    H128155   7.294   5.048   0.579
 9404TIP3    H228156   7.336   4.907   0.617
 9405TIP3   OH228157   6.180   3.309   2.009
 9405TIP3    H128158   6.196   3.376   1.943
 9405TIP3    H228159   6.168   3.357   2.090
 9406TIP3   OH228160   0.232   4.125   0.136
 9406TIP3    H128161   0.153   4.176   0.117
 9406TIP3    H228162   0.302   4.169   0.089
 9407TIP3   OH228163   1.353   2.527   2.227
 9407TIP3    H128164   1.436   2.505   2.268
 9407TIP3    H228165   1.286   2.496   2.288
 9408TIP3   OH228166   0.595   2.353   2.031
 9408TIP3    H128167   0.615   2.321   1.942
 9408TIP3    H228168   0.501   2.368   2.030
 9409TIP3   OH228169   6.417   4.354   3.112
 9409TIP3    H128170   6.378   4.359   3.024
 9409TIP3    H228171   6.499   4.403   3.104
 9410TIP3   OH228172   3.456   4.669   5.581
 9410TIP3    H128173   3.380   4.727   5.585
 9410TIP3    H228174   3.433   4.603   5.515
 9411TIP3   OH228175   4.675   2.727   5.795
 9411TIP3    H128176   4.751   2.669   5.789
 9411TIP3    H228177   4.604   2.677   5.753
 9412TIP3   OH228178   6.928   0.833   5.195
 9412TIP3    H128179   6.935   0.922   5.228
 9412TIP3    H228180   6.837   0.808   5.211
 9413TIP3   OH228181   0.065   3.778   2.667
 9413TIP3    H128182   0.044   3.779   2.760
 9413TIP3    H228183   0.053   3.687   2.640
 9414TIP3   OH228184   4.007   6.864   2.633
 9414TIP3    H128185   3.969   6.914   2.705
 9414TIP3    H228186   3.942   6.798   2.613
 9415TIP3   OH228187   6.851   5.284   1.491
 9415TIP3    H128188   6.840   5.206   1.546
 9415TIP3    H228189   6.934   5.322   1.521
 9416TIP3   OH228190   1.286   4.826   5.059
 9416TIP3    H128191   1.330   4.895   5.108
 9416TIP3    H228192   1.350   4.754   5.056
 9417TIP3   OH228193   0.334   5.283   2.752
 9417TIP3    H128194   0.390   5.221   2.704
 9417TIP3    H228195   0.373   5.287   2.839
 9418TIP3   OH228196   5.233   0.120   2.405
 9418TIP3    H128197   5.286   0.160   2.474
 9418TIP3    H228198   5.296   0.073   2.350
 9419TIP3   OH228199   0.299   3.921   2.237
 9419TIP3    H128200   0.227   3.961   2.286
 9419TIP3    H228201   0.315   3.982   2.165
 9420TIP3   OH228202   4.294   1.297   6.662
 9420TIP3    H128203   4.227   1.342   6.713
 9420TIP3    H228204   4.330   1.232   6.722
 9421TIP3   OH228205   1.347   0.698   2.148
 9421TIP3    H128206   1.437   0.679   2.174
 9421TIP3    H228207   1.341   0.667   2.057
 9422TIP3   OH228208   2.537   1.001   4.672
 9422TIP3    H128209   2.528   1.072   4.736
 9422TIP3    H228210   2.616   1.023   4.623
 9423TIP3   OH228211   2.309   3.484   4.334
 9423TIP3    H128212   2.344   3.530   4.410
 9423TIP3    H228213   2.373   3.501   4.264
 9424TIP3   OH228214   1.490   3.813   1.568
 9424TIP3    H128215   1.557   3.747   1.586
 9424TIP3    H228216   1.475   3.807   1.474
 9425TIP3   OH228217   2.918   4.154   6.668
 9425TIP3    H128218   2.835   4.130   6.709
 9425TIP3    H228219   2.955   4.070   6.639
 9426TIP3   OH228220   7.683   1.857   0.269
 9426TIP3    H128221   7.713   1.829   0.183
 9426TIP3    H228222   7.590   1.876   0.258
 9427TIP3   OH228223   0.851   3.284   1.278
 9427TIP3    H128224   0.758   3.309   1.285
 9427TIP3    H228225   0.890   3.319   1.358
 9428TIP3   OH228226   2.687   1.618   4.146
 9428TIP3    H128227   2.733   1.535   4.132
 9428TIP3    H228228   2.756   1.684   4.148
 9429TIP3   OH228229   3.226   3.003   5.399
 9429TIP3    H128230   3.258   2.913   5.405
 9429TIP3    H228231   3.135   2.998   5.428
 9430TIP3   OH228232   1.978   6.176   1.688
 9430TIP3    H128233   2.018   6.144   1.769
 9430TIP3    H228234   2.036   6.246   1.659
 9431TIP3   OH228235   0.724   0.318   1.922
 9431TIP3    H128236   0.747   0.375   1.996
 9431TIP3    H228237   0.709   0.232   1.962
 9432TIP3   OH228238   3.599   1.565   6.682
 9432TIP3    H128239   3.618   1.477   6.648
 9432TIP3    H228240   3.561   1.611   6.607
 9433TIP3   OH228241   0.392   6.950   6.189
 9433TIP3    H128242   0.342   6.874   6.158
 9433TIP3    H228243   0.412   6.930   6.280
 9434TIP3   OH228244   3.334   1.513   4.654
 9434TIP3    H128245   3.401   1.477   4.596
 9434TIP3    H228246   3.252   1.479   4.619
 9435TIP3   OH228247   2.096   0.445   3.013
 9435TIP3    H128248   2.191   0.448   3.002
 9435TIP3    H228249   2.081   0.376   3.077
 9436TIP3   OH228250   6.732   4.863   6.405
 9436TIP3    H128251   6.793   4.793   6.381
 9436TIP3    H228252   6.664   4.859   6.338
 9437TIP3   OH228253   2.254   3.239   6.256
 9437TIP3    H128254   2.212   3.163   6.216
 9437TIP3    H228255   2.232   3.233   6.348
 9438TIP3   OH228256   5.901   3.761   2.660
 9438TIP3    H128257   5.918   3.793   2.571
 9438TIP3    H228258   5.838   3.690   2.648
 9439TIP3   OH228259   4.017   4.144   3.086
 9439TIP3    H128260   3.929   4.137   3.050
 9439TIP3    H228261   4.006   4.121   3.179
 9440TIP3   OH228262   5.232   7.630   6.131
 9440TIP3    H128263   5.323   7.602   6.136
 9440TIP3    H228264   5.236   7.725   6.144
 9441TIP3   OH228265   4.437   6.123   2.103
 9441TIP3    H128266   4.445   6.214   2.132
 9441TIP3    H228267   4.454   6.127   2.009
 9442TIP3   OH228268   7.795   2.462   4.353
 9442TIP3    H128269   7.791   2.386   4.411
 9442TIP3    H228270   7.783   2.537   4.411
 9443TIP3   OH228271   5.054   2.415   4.767
 9443TIP3    H128272   5.107   2.362   4.826
 9443TIP3    H228273   5.077   2.506   4.788
 9444TIP3   OH228274   6.202   0.699   5.060
 9444TIP3    H128275   6.168   0.778   5.101
 9444TIP3    H228276   6.133   0.634   5.073
 9445TIP3   OH228277   5.791   6.352   6.417
 9445TIP3    H128278   5.753   6.355   6.504
 9445TIP3    H228279   5.745   6.420   6.368
 9446TIP3   OH228280   4.066   7.626   5.266
 9446TIP3    H128281   3.989   7.570   5.259
 9446TIP3    H228282   4.057   7.689   5.195
 9447TIP3   OH228283   0.018   4.562   4.383
 9447TIP3    H128284  -0.011   4.645   4.344
 9447TIP3    H228285   0.051   4.586   4.470
 9448TIP3   OH228286   7.765   2.268   4.594
 9448TIP3    H128287   7.761   2.205   4.666
 9448TIP3    H228288   7.708   2.340   4.621
 9449TIP3   OH228289   7.348   4.089   1.211
 9449TIP3    H128290   7.336   4.003   1.170
 9449TIP3    H228291   7.359   4.070   1.304
 9450TIP3   OH228292   0.197   4.174   3.920
 9450TIP3    H128293   0.252   4.231   3.974
 9450TIP3    H228294   0.109   4.183   3.957
 9451TIP3   OH228295   2.446   3.766   1.465
 9451TIP3    H128296   2.507   3.721   1.522
 9451TIP3    H228297   2.363   3.766   1.513
 9452TIP3   OH228298   1.539   4.748   1.611
 9452TIP3    H128299   1.527   4.814   1.680
 9452TIP3    H228300   1.459   4.696   1.614
 9453TIP3   OH228301   3.444   3.847   1.792
 9453TIP3    H128302   3.461   3.803   1.875
 9453TIP3    H228303   3.398   3.782   1.739
 9454TIP3   OH228304   3.392   7.588   4.298
 9454TIP3    H128305   3.430   7.635   4.223
 9454TIP3    H228306   3.346   7.514   4.258
 9455TIP3   OH228307   2.943   2.251   1.079
 9455TIP3    H128308   3.003   2.264   1.152
 9455TIP3    H228309   2.897   2.169   1.100
 9456TIP3   OH228310   6.087   3.379   5.886
 9456TIP3    H128311   6.041   3.374   5.802
 9456TIP3    H228312   6.163   3.321   5.875
 9457TIP3   OH228313   2.361   4.342   1.541
 9457TIP3    H128314   2.395   4.278   1.479
 9457TIP3    H228315   2.311   4.404   1.487
 9458TIP3   OH228316   3.935   7.572   3.273
 9458TIP3    H128317   3.898   7.535   3.353
 9458TIP3    H228318   3.983   7.500   3.233
 9459TIP3   OH228319   6.965   1.659   5.330
 9459TIP3    H128320   6.978   1.658   5.236
 9459TIP3    H228321   7.037   1.713   5.364
 9460TIP3   OH228322   4.287   4.929   2.169
 9460TIP3    H128323   4.266   4.898   2.257
 9460TIP3    H228324   4.278   4.851   2.114
 9461TIP3   OH228325   0.339   3.810   0.815
 9461TIP3    H128326   0.350   3.905   0.804
 9461TIP3    H228327   0.323   3.799   0.908
 9462TIP3   OH228328   1.037   2.087   3.838
 9462TIP3    H128329   1.130   2.075   3.857
 9462TIP3    H228330   1.029   2.180   3.816
 9463TIP3   OH228331   6.159   3.069   5.576
 9463TIP3    H128332   6.084   3.103   5.526
 9463TIP3    H228333   6.212   3.146   5.596
 9464TIP3   OH228334   7.486   4.844   1.507
 9464TIP3    H128335   7.525   4.918   1.553
 9464TIP3    H228336   7.474   4.875   1.417
 9465TIP3   OH228337   3.933   5.546   1.885
 9465TIP3    H128338   3.840   5.528   1.903
 9465TIP3    H228339   3.961   5.603   1.957
 9466TIP3   OH228340   1.902   0.635   5.868
 9466TIP3    H128341   1.866   0.558   5.912
 9466TIP3    H228342   1.860   0.709   5.913
 9467TIP3   OH228343   7.953   7.575   1.504
 9467TIP3    H128344   7.980   7.662   1.473
 9467TIP3    H228345   7.996   7.515   1.443
 9468TIP3   OH228346   3.421   0.894   6.302
 9468TIP3    H128347   3.511   0.900   6.271
 9468TIP3    H228348   3.416   0.957   6.374
 9469TIP3   OH228349   0.674   2.082   4.686
 9469TIP3    H128350   0.652   2.111   4.597
 9469TIP3    H228351   0.611   2.127   4.742
 9470TIP3   OH228352   2.299   0.753   5.244
 9470TIP3    H128353   2.270   0.844   5.238
 9470TIP3    H228354   2.393   0.759   5.259
 9471TIP3   OH228355   0.251   3.484   5.947
 9471TIP3    H128356   0.336   3.524   5.966
 9471TIP3    H228357   0.193   3.558   5.928
 9472TIP3   OH228358   0.618   5.326   3.277
 9472TIP3    H128359   0.623   5.412   3.319
 9472TIP3    H228360   0.700   5.283   3.301
 9473TIP3   OH228361   3.912   0.782   6.318
 9473TIP3    H128362   3.997   0.797   6.359
 9473TIP3    H228363   3.925   0.704   6.265
 9474TIP3   OH228364   2.490   4.591   6.133
 9474TIP3    H128365   2.412   4.580   6.078
 9474TIP3    H228366   2.508   4.685   6.131
 9475TIP3   OH228367   8.000   4.338   1.715
 9475TIP3    H128368   7.950   4.403   1.665
 9475TIP3    H228369   7.935   4.277   1.749
 9476TIP3   OH228370   4.844   1.737   0.155
 9476TIP3    H128371   4.839   1.697   0.242
 9476TIP3    H228372   4.923   1.792   0.158
 9477TIP3   OH228373   8.044   1.408   5.598
 9477TIP3    H128374   7.991   1.415   5.519
 9477TIP3    H228375   8.122   1.460   5.579
 9478TIP3   OH228376   7.872   5.369   4.471
 9478TIP3    H128377   7.912   5.282   4.461
 9478TIP3    H228378   7.938   5.430   4.439
 9479TIP3   OH228379   6.705   2.143   1.249
 9479TIP3    H128380   6.741   2.211   1.192
 9479TIP3    H228381   6.780   2.114   1.301
 9480TIP3   OH228382   8.086   5.343   1.610
 9480TIP3    H128383   8.010   5.329   1.553
 9480TIP3    H228384   8.144   5.399   1.558
 9481TIP3   OH228385   5.921   4.937   2.225
 9481TIP3    H128386   5.948   4.923   2.135
 9481TIP3    H228387   5.979   4.880   2.277
 9482TIP3   OH228388   5.377   2.634   3.547
 9482TIP3    H128389   5.466   2.658   3.523
 9482TIP3    H228390   5.387   2.568   3.616
 9483TIP3   OH228391   5.247   5.849   6.542
 9483TIP3    H128392   5.230   5.907   6.468
 9483TIP3    H228393   5.177   5.784   6.538
 9484TIP3   OH228394   7.398   1.672   6.751
 9484TIP3    H128395   7.477   1.618   6.745
 9484TIP3    H228396   7.380   1.697   6.660
 9485TIP3   OH228397   0.092   7.009   4.100
 9485TIP3    H128398   0.047   6.924   4.100
 9485TIP3    H228399   0.147   7.007   4.179
 9486TIP3   OH228400   7.170   2.201   2.045
 9486TIP3    H128401   7.099   2.241   1.995
 9486TIP3    H228402   7.250   2.231   2.002
 9487TIP3   OH228403   3.405   2.421   2.036
 9487TIP3    H128404   3.343   2.427   2.109
 9487TIP3    H228405   3.445   2.334   2.046
 9488TIP3   OH228406   2.671   4.201   4.879
 9488TIP3    H128407   2.668   4.146   4.801
 9488TIP3    H228408   2.757   4.184   4.918
 9489TIP3   OH228409   7.824   0.077   6.260
 9489TIP3    H128410   7.875   0.109   6.186
 9489TIP3    H228411   7.845   0.139   6.331
 9490TIP3   OH228412   1.840   6.060   4.428
 9490TIP3    H128413   1.765   6.082   4.484
 9490TIP3    H228414   1.880   6.145   4.409
 9491TIP3   OH228415   3.189   5.493   3.793
 9491TIP3    H128416   3.119   5.493   3.858
 9491TIP3    H228417   3.233   5.409   3.805
 9492TIP3   OH228418   8.276   7.405   1.088
 9492TIP3    H128419   8.247   7.339   1.025
 9492TIP3    H228420   8.229   7.484   1.063
 9493TIP3   OH228421   0.209   2.007   0.353
 9493TIP3    H128422   0.178   1.917   0.355
 9493TIP3    H228423   0.243   2.019   0.264
 9494TIP3   OH228424   5.657   6.434   5.489
 9494TIP3    H128425   5.642   6.517   5.535
 9494TIP3    H228426   5.654   6.368   5.558
 9495TIP3   OH228427   1.726   0.350   3.917
 9495TIP3    H128428   1.687   0.413   3.856
 9495TIP3    H228429   1.666   0.348   3.991
 9496TIP3   OH228430   8.057   1.897   6.075
 9496TIP3    H128431   7.963   1.903   6.058
 9496TIP3    H228432   8.063   1.861   6.164
 9497TIP3   OH228433   3.908   4.791   2.462
 9497TIP3    H128434   3.814   4.801   2.446
 9497TIP3    H228435   3.948   4.795   2.376
 9498TIP3   OH228436   0.897   4.114   3.853
 9498TIP3    H128437   0.911   4.160   3.770
 9498TIP3    H228438   0.806   4.132   3.875
 9499TIP3   OH228439   0.276   4.461   2.484
 9499TIP3    H128440   0.186   4.483   2.509
 9499TIP3    H228441   0.326   4.475   2.565
 9500TIP3   OH228442   7.389   2.620   4.717
 9500TIP3    H128443   7.319   2.598   4.655
 9500TIP3    H228444   7.354   2.692   4.769
 9501TIP3   OH228445   3.977   7.246   3.948
 9501TIP3    H128446   3.920   7.170   3.960
 9501TIP3    H228447   4.045   7.215   3.889
 9502TIP3   OH228448   2.670   7.583   2.302
 9502TIP3    H128449   2.578   7.560   2.317
 9502TIP3    H228450   2.705   7.599   2.389
 9503TIP3   OH228451   3.691   4.420   6.503
 9503TIP3    H128452   3.604   4.456   6.485
 9503TIP3    H228453   3.749   4.466   6.442
 9504TIP3   OH228454   0.680   2.302   5.925
 9504TIP3    H128455   0.716   2.363   5.990
 9504TIP3    H228456   0.586   2.300   5.943
 9505TIP3   OH228457   2.668   3.250   1.821
 9505TIP3    H128458   2.646   3.262   1.913
 9505TIP3    H228459   2.611   3.311   1.774
 9506TIP3   OH228460   4.733   1.326   5.024
 9506TIP3    H128461   4.678   1.338   4.947
 9506TIP3    H228462   4.798   1.396   5.018
 9507TIP3   OH228463   5.023   6.118   6.218
 9507TIP3    H128464   4.972   6.062   6.278
 9507TIP3    H228465   5.043   6.061   6.144
 9508TIP3   OH228466   3.665   4.710   6.255
 9508TIP3    H128467   3.728   4.664   6.310
 9508TIP3    H228468   3.580   4.681   6.286
 9509TIP3   OH228469   7.101   0.145   4.347
 9509TIP3    H128470   7.180   0.119   4.300
 9509TIP3    H228471   7.029   0.114   4.292
 9510TIP3   OH228472   2.809   5.630   0.717
 9510TIP3    H128473   2.857   5.697   0.766
 9510TIP3    H228474   2.723   5.627   0.760
 9511TIP3   OH228475   2.747   1.371   1.915
 9511TIP3    H128476   2.841   1.389   1.918
 9511TIP3    H228477   2.741   1.276   1.908
 9512TIP3   OH228478   1.367   6.444   5.753
 9512TIP3    H128479   1.353   6.463   5.661
 9512TIP3    H228480   1.453   6.481   5.773
 9513TIP3   OH228481   1.026   6.304   6.153
 9513TIP3    H128482   1.058   6.388   6.123
 9513TIP3    H228483   1.047   6.243   6.082
 9514TIP3   OH228484   4.373   3.008   0.204
 9514TIP3    H128485   4.298   2.951   0.216
 9514TIP3    H228486   4.376   3.061   0.284
 9515TIP3   OH228487   1.410   0.099   0.565
 9515TIP3    H128488   1.408   0.181   0.515
 9515TIP3    H228489   1.356   0.117   0.642
 9516TIP3   OH228490   8.189   5.546   3.616
 9516TIP3    H128491   8.159   5.600   3.689
 9516TIP3    H228492   8.260   5.494   3.653
 9517TIP3   OH228493   0.302   3.104   0.707
 9517TIP3    H128494   0.315   3.051   0.628
 9517TIP3    H228495   0.339   3.189   0.686
 9518TIP3   OH228496   8.008   3.558   1.755
 9518TIP3    H128497   8.023   3.586   1.665
 9518TIP3    H228498   7.994   3.639   1.803
 9519TIP3   OH228499   3.982   6.040   5.639
 9519TIP3    H128500   4.061   6.020   5.589
 9519TIP3    H228501   3.924   6.083   5.577
 9520TIP3   OH228502   2.469   6.492   0.344
 9520TIP3    H128503   2.414   6.430   0.391
 9520TIP3    H228504   2.465   6.464   0.253
 9521TIP3   OH228505   0.722   3.181   3.778
 9521TIP3    H128506   0.817   3.186   3.780
 9521TIP3    H228507   0.695   3.206   3.867
 9522TIP3   OH228508   8.165   4.897   4.584
 9522TIP3    H128509   8.183   4.976   4.634
 9522TIP3    H228510   8.082   4.914   4.540
 9523TIP3   OH228511   6.733   6.684   6.713
 9523TIP3    H128512   6.638   6.682   6.699
 9523TIP3    H228513   6.758   6.591   6.718
 9524TIP3   OH228514   1.173   4.055   2.166
 9524TIP3    H128515   1.232   4.022   2.097
 9524TIP3    H228516   1.207   4.142   2.186
 9525TIP3   OH228517   6.098   5.786   3.500
 9525TIP3    H128518   6.084   5.876   3.531
 9525TIP3    H228519   6.032   5.774   3.431
 9526TIP3   OH228520   4.426   4.155   3.508
 9526TIP3    H128521   4.481   4.130   3.582
 9526TIP3    H228522   4.353   4.203   3.547
 9527TIP3   OH228523   2.905   4.801   6.382
 9527TIP3    H128524   2.835   4.866   6.382
 9527TIP3    H228525   2.866   4.723   6.422
 9528TIP3   OH228526   1.032   1.745   6.472
 9528TIP3    H128527   1.040   1.774   6.381
 9528TIP3    H228528   1.112   1.697   6.489
 9529TIP3   OH228529   5.474   6.309   0.343
 9529TIP3    H128530   5.505   6.382   0.290
 9529TIP3    H228531   5.538   6.301   0.413
 9530TIP3   OH228532   1.761   0.495   6.319
 9530TIP3    H128533   1.807   0.573   6.286
 9530TIP3    H228534   1.760   0.435   6.244
 9531TIP3   OH228535   1.293   5.832   5.719
 9531TIP3    H128536   1.296   5.741   5.748
 9531TIP3    H228537   1.245   5.878   5.789
 9532TIP3   OH228538   4.210   7.596   4.460
 9532TIP3    H128539   4.258   7.623   4.539
 9532TIP3    H228540   4.254   7.517   4.431
 9533TIP3   OH228541   5.261   4.332   1.269
 9533TIP3    H128542   5.247   4.374   1.353
 9533TIP3    H228543   5.189   4.362   1.214
 9534TIP3   OH228544   2.428   2.564   2.544
 9534TIP3    H128545   2.463   2.561   2.633
 9534TIP3    H228546   2.427   2.473   2.515
 9535TIP3   OH228547   3.944   3.466   5.975
 9535TIP3    H128548   3.971   3.398   6.037
 9535TIP3    H228549   3.911   3.537   6.030
 9536TIP3   OH228550   0.968   4.020   2.948
 9536TIP3    H128551   0.896   3.974   2.906
 9536TIP3    H228552   1.008   4.071   2.877
 9537TIP3   OH228553   0.496   2.051   0.380
 9537TIP3    H128554   0.413   2.014   0.351
 9537TIP3    H228555   0.474   2.100   0.459
 9538TIP3   OH228556   2.294   2.929   6.038
 9538TIP3    H128557   2.346   2.871   6.093
 9538TIP3    H228558   2.218   2.877   6.013
 9539TIP3   OH228559   5.357   2.581   1.183
 9539TIP3    H128560   5.268   2.595   1.215
 9539TIP3    H228561   5.347   2.526   1.106
 9540TIP3   OH228562   8.040   6.502   1.886
 9540TIP3    H128563   8.131   6.476   1.873
 9540TIP3    H228564   8.027   6.575   1.825
 9541TIP3   OH228565   6.647   3.104   4.350
 9541TIP3    H128566   6.571   3.051   4.327
 9541TIP3    H228567   6.644   3.178   4.289
 9542TIP3   OH228568   6.155   7.635   2.301
 9542TIP3    H128569   6.110   7.563   2.257
 9542TIP3    H228570   6.247   7.612   2.296
 9543TIP3   OH228571   0.593   2.014   4.096
 9543TIP3    H128572   0.624   1.930   4.130
 9543TIP3    H228573   0.670   2.055   4.056
 9544TIP3   OH228574   3.856   7.000   0.379
 9544TIP3    H128575   3.786   6.967   0.435
 9544TIP3    H228576   3.830   6.976   0.290
 9545TIP3   OH228577   5.294   0.997   1.891
 9545TIP3    H128578   5.298   0.916   1.942
 9545TIP3    H228579   5.368   1.049   1.923
 9546TIP3   OH228580   2.433   0.332   6.669
 9546TIP3    H128581   2.506   0.337   6.607
 9546TIP3    H228582   2.473   0.350   6.754
 9547TIP3   OH228583   0.736   7.667   3.076
 9547TIP3    H128584   0.799   7.737   3.097
 9547TIP3    H228585   0.708   7.687   2.986
 9548TIP3   OH228586   0.412   6.151   3.513
 9548TIP3    H128587   0.412   6.150   3.609
 9548TIP3    H228588   0.347   6.086   3.488
 9549TIP3   OH228589   8.220   2.537   4.370
 9549TIP3    H128590   8.235   2.462   4.312
 9549TIP3    H228591   8.235   2.614   4.315
 9550TIP3   OH228592   1.495   3.761   5.023
 9550TIP3    H128593   1.489   3.852   5.053
 9550TIP3    H228594   1.406   3.738   4.996
 9551TIP3   OH228595   5.898   5.864   6.379
 9551TIP3    H128596   5.959   5.937   6.371
 9551TIP3    H228597   5.934   5.811   6.450
 9552TIP3   OH228598   5.123   2.259   0.219
 9552TIP3    H128599   5.195   2.251   0.156
 9552TIP3    H228600   5.051   2.208   0.180
 9553TIP3   OH228601   4.595   1.449   5.598
 9553TIP3    H128602   4.638   1.399   5.666
 9553TIP3    H228603   4.661   1.511   5.567
 9554TIP3   OH228604   3.006   2.432   5.373
 9554TIP3    H128605   2.933   2.401   5.320
 9554TIP3    H228606   3.081   2.429   5.314
 9555TIP3   OH228607   0.509   0.127   2.189
 9555TIP3    H128608   0.459   0.048   2.171
 9555TIP3    H228609   0.560   0.142   2.109
 9556TIP3   OH228610   2.252   5.405   0.940
 9556TIP3    H128611   2.336   5.391   0.896
 9556TIP3    H228612   2.188   5.408   0.869
 9557TIP3   OH228613   5.268   6.154   2.578
 9557TIP3    H128614   5.342   6.095   2.595
 9557TIP3    H228615   5.197   6.095   2.552
 9558TIP3   OH228616   3.322   4.178   0.171
 9558TIP3    H128617   3.353   4.104   0.224
 9558TIP3    H228618   3.249   4.143   0.121
 9559TIP3   OH228619   4.960   4.633   0.430
 9559TIP3    H128620   5.012   4.692   0.376
 9559TIP3    H228621   4.895   4.596   0.370
 9560TIP3   OH228622   7.691   7.637   2.664
 9560TIP3    H128623   7.712   7.705   2.600
 9560TIP3    H228624   7.610   7.597   2.631
 9561TIP3   OH228625   5.552   6.731   1.585
 9561TIP3    H128626   5.563   6.791   1.658
 9561TIP3    H228627   5.610   6.657   1.605
 9562TIP3   OH228628   4.641   6.986   6.173
 9562TIP3    H128629   4.585   6.956   6.101
 9562TIP3    H228630   4.601   7.068   6.201
 9563TIP3   OH228631   5.057   1.918   5.441
 9563TIP3    H128632   5.043   2.006   5.406
 9563TIP3    H228633   5.014   1.860   5.379
 9564TIP3   OH228634   0.809   7.724   5.268
 9564TIP3    H128635   0.900   7.751   5.270
 9564TIP3    H228636   0.810   7.631   5.290
 9565TIP3   OH228637   0.059   3.418   2.287
 9565TIP3    H128638   0.152   3.408   2.306
 9565TIP3    H228639   0.023   3.466   2.362
 9566TIP3   OH228640   5.900   5.333   2.631
 9566TIP3    H128641   5.958   5.257   2.632
 9566TIP3    H228642   5.855   5.331   2.715
 9567TIP3   OH228643   3.785   3.750   0.668
 9567TIP3    H128644   3.760   3.792   0.750
 9567TIP3    H228645   3.880   3.756   0.666
 9568TIP3   OH228646   0.870   6.667   6.257
 9568TIP3    H128647   0.863   6.724   6.180
 9568TIP3    H228648   0.805   6.701   6.318
 9569TIP3   OH228649   5.726   0.561   1.598
 9569TIP3    H128650   5.700   0.479   1.556
 9569TIP3    H228651   5.794   0.535   1.661
 9570TIP3   OH228652   0.798   0.885   5.266
 9570TIP3    H128653   0.766   0.975   5.257
 9570TIP3    H228654   0.761   0.856   5.350
 9571TIP3   OH228655   0.073   6.304   0.896
 9571TIP3    H128656   0.132   6.332   0.966
 9571TIP3    H228657   0.024   6.383   0.873
 9572TIP3   OH228658   2.907   3.057   4.629
 9572TIP3    H128659   2.891   3.011   4.711
 9572TIP3    H228660   3.002   3.071   4.628
 9573TIP3   OH228661   6.215   2.652   1.771
 9573TIP3    H128662   6.211   2.593   1.696
 9573TIP3    H228663   6.262   2.729   1.738
 9574TIP3   OH228664   3.325   4.379   6.639
 9574TIP3    H128665   3.236   4.381   6.604
 9574TIP3    H228666   3.350   4.286   6.635
 9575TIP3   OH228667   0.734   7.433   1.079
 9575TIP3    H128668   0.787   7.411   1.003
 9575TIP3    H228669   0.788   7.408   1.154
 9576TIP3   OH228670   6.490   0.721   2.733
 9576TIP3    H128671   6.404   0.762   2.737
 9576TIP3    H228672   6.508   0.712   2.639
 9577TIP3   OH228673   6.633   0.780   1.256
 9577TIP3    H128674   6.578   0.846   1.297
 9577TIP3    H228675   6.710   0.828   1.226
 9578TIP3   OH228676   7.278   0.601   1.266
 9578TIP3    H128677   7.267   0.666   1.335
 9578TIP3    H228678   7.354   0.550   1.295
 9579TIP3   OH228679   6.136   1.388   1.001
 9579TIP3    H128680   6.059   1.402   0.947
 9579TIP3    H228681   6.159   1.475   1.034
 9580TIP3   OH228682   5.791   4.294   2.800
 9580TIP3    H128683   5.752   4.283   2.713
 9580TIP3    H228684   5.718   4.286   2.861
 9581TIP3   OH228685   5.470   5.784   0.652
 9581TIP3    H128686   5.432   5.869   0.631
 9581TIP3    H228687   5.448   5.729   0.576
 9582TIP3   OH228688   4.062   4.832   2.704
 9582TIP3    H128689   4.119   4.909   2.701
 9582TIP3    H228690   3.990   4.853   2.644
 9583TIP3   OH228691   6.891   2.619   1.707
 9583TIP3    H128692   6.885   2.676   1.630
 9583TIP3    H228693   6.913   2.533   1.672
 9584TIP3   OH228694   3.754   2.687   6.382
 9584TIP3    H128695   3.726   2.691   6.290
 9584TIP3    H228696   3.849   2.680   6.378
 9585TIP3   OH228697   5.605   6.718   4.228
 9585TIP3    H128698   5.521   6.764   4.231
 9585TIP3    H228699   5.600   6.655   4.300
 9586TIP3   OH228700   2.582   0.735   1.002
 9586TIP3    H128701   2.598   0.828   1.017
 9586TIP3    H228702   2.637   0.713   0.927
 9587TIP3   OH228703   7.464   6.471   4.520
 9587TIP3    H128704   7.446   6.416   4.596
 9587TIP3    H228705   7.548   6.512   4.539
 9588TIP3   OH228706   0.772   5.685   5.166
 9588TIP3    H128707   0.760   5.601   5.121
 9588TIP3    H228708   0.787   5.748   5.096
 9589TIP3   OH228709   3.038   3.830   4.354
 9589TIP3    H128710   3.111   3.827   4.415
 9589TIP3    H228711   2.960   3.824   4.409
 9590TIP3   OH228712   8.213   2.180   6.618
 9590TIP3    H128713   8.202   2.240   6.692
 9590TIP3    H228714   8.155   2.214   6.550
 9591TIP3   OH228715   7.149   4.234   3.166
 9591TIP3    H128716   7.133   4.143   3.140
 9591TIP3    H228717   7.210   4.227   3.240
 9592TIP3   OH228718   5.069   3.832   5.716
 9592TIP3    H128719   5.136   3.870   5.660
 9592TIP3    H228720   5.015   3.780   5.658
 9593TIP3   OH228721   2.834   6.375   5.664
 9593TIP3    H128722   2.835   6.395   5.758
 9593TIP3    H228723   2.751   6.328   5.651
 9594TIP3   OH228724   3.953   1.320   5.486
 9594TIP3    H128725   4.021   1.344   5.548
 9594TIP3    H228726   3.889   1.271   5.538
 9595TIP3   OH228727   6.347   6.317   2.100
 9595TIP3    H128728   6.399   6.351   2.174
 9595TIP3    H228729   6.379   6.228   2.087
 9596TIP3   OH228730   6.197   6.169   1.661
 9596TIP3    H128731   6.164   6.120   1.586
 9596TIP3    H228732   6.162   6.123   1.737
 9597TIP3   OH228733   8.157   0.798   5.671
 9597TIP3    H128734   8.178   0.841   5.587
 9597TIP3    H228735   8.063   0.782   5.666
 9598TIP3   OH228736   0.984   7.121   5.001
 9598TIP3    H128737   1.046   7.060   5.041
 9598TIP3    H228738   1.035   7.171   4.938
 9599TIP3   OH228739   3.235   4.179   2.112
 9599TIP3    H128740   3.171   4.161   2.180
 9599TIP3    H228741   3.211   4.121   2.040
 9600TIP3   OH228742   7.923   0.804   4.449
 9600TIP3    H128743   8.008   0.848   4.451
 9600TIP3    H228744   7.919   0.766   4.361
 9601TIP3   OH228745   2.722   2.412   3.547
 9601TIP3    H128746   2.658   2.421   3.617
 9601TIP3    H228747   2.775   2.491   3.552
 9602TIP3   OH228748   1.189   2.655   0.584
 9602TIP3    H128749   1.207   2.747   0.605
 9602TIP3    H228750   1.238   2.606   0.651
 9603TIP3   OH228751   1.546   0.185   2.168
 9603TIP3    H128752   1.465   0.232   2.146
 9603TIP3    H228753   1.607   0.254   2.195
 9604TIP3   OH228754   2.167   4.374   0.803
 9604TIP3    H128755   2.182   4.391   0.896
 9604TIP3    H228756   2.109   4.445   0.775
 9605TIP3   OH228757   5.784   4.534   4.842
 9605TIP3    H128758   5.843   4.606   4.818
 9605TIP3    H228759   5.706   4.548   4.788
 9606TIP3   OH228760   2.883   6.351   6.177
 9606TIP3    H128761   2.841   6.266   6.167
 9606TIP3    H228762   2.893   6.383   6.087
 9607TIP3   OH228763   3.214   3.658   3.191
 9607TIP3    H128764   3.252   3.615   3.114
 9607TIP3    H228765   3.284   3.658   3.256
 9608TIP3   OH228766   7.485   1.129   2.136
 9608TIP3    H128767   7.461   1.177   2.215
 9608TIP3    H228768   7.498   1.197   2.070
 9609TIP3   OH228769   4.694   1.904   3.870
 9609TIP3    H128770   4.775   1.923   3.918
 9609TIP3    H228771   4.639   1.857   3.932
 9610TIP3   OH228772   6.310   1.728   3.465
 9610TIP3    H128773   6.347   1.640   3.473
 9610TIP3    H228774   6.383   1.783   3.436
 9611TIP3   OH228775   0.589   1.099   0.245
 9611TIP3    H128776   0.643   1.045   0.187
 9611TIP3    H228777   0.603   1.060   0.332
 9612TIP3   OH228778   2.266   6.942   2.245
 9612TIP3    H128779   2.317   6.969   2.169
 9612TIP3    H228780   2.322   6.962   2.320
 9613TIP3   OH228781   0.018   1.131   0.827
 9613TIP3    H128782   0.099   1.096   0.865
 9613TIP3    H228783   0.036   1.224   0.814
 9614TIP3   OH228784   5.130   4.660   3.345
 9614TIP3    H128785   5.066   4.594   3.370
 9614TIP3    H228786   5.172   4.625   3.267
 9615TIP3   OH228787   7.142   6.984   2.759
 9615TIP3    H128788   7.209   6.922   2.787
 9615TIP3    H228789   7.106   6.946   2.679
 9616TIP3   OH228790   8.216   6.663   6.663
 9616TIP3    H128791   8.266   6.694   6.588
 9616TIP3    H228792   8.169   6.741   6.694
 9617TIP3   OH228793   6.177   0.156   3.647
 9617TIP3    H128794   6.205   0.094   3.579
 9617TIP3    H228795   6.129   0.224   3.599
 9618TIP3   OH228796   6.392   4.018   2.355
 9618TIP3    H128797   6.308   3.975   2.347
 9618TIP3    H228798   6.449   3.952   2.394
 9619TIP3   OH228799   4.301   7.030   0.163
 9619TIP3    H128800   4.234   7.081   0.208
 9619TIP3    H228801   4.309   7.070   0.076
 9620TIP3   OH228802   6.282   2.894   2.556
 9620TIP3    H128803   6.289   2.816   2.501
 9620TIP3    H228804   6.192   2.923   2.545
 9621TIP3   OH228805   4.842   1.821   2.460
 9621TIP3    H128806   4.807   1.910   2.468
 9621TIP3    H228807   4.789   1.781   2.392
 9622TIP3   OH228808   6.202   5.743   2.854
 9622TIP3    H128809   6.184   5.721   2.945
 9622TIP3    H228810   6.157   5.827   2.840
 9623TIP3   OH228811   1.378   4.173   2.955
 9623TIP3    H128812   1.453   4.143   3.005
 9623TIP3    H228813   1.305   4.171   3.017
 9624TIP3   OH228814   3.177   2.798   4.610
 9624TIP3    H128815   3.131   2.829   4.533
 9624TIP3    H228816   3.171   2.702   4.605
 9625TIP3   OH228817   3.162   4.772   6.547
 9625TIP3    H128818   3.252   4.770   6.579
 9625TIP3    H228819   3.155   4.855   6.499
 9626TIP3   OH228820   6.058   2.388   2.341
 9626TIP3    H128821   6.097   2.372   2.427
 9626TIP3    H228822   6.129   2.427   2.289
 9627TIP3   OH228823   6.337   1.782   3.064
 9627TIP3    H128824   6.408   1.843   3.087
 9627TIP3    H228825   6.311   1.808   2.976
 9628TIP3   OH228826   2.128   5.092   6.107
 9628TIP3    H128827   2.163   5.118   6.192
 9628TIP3    H228828   2.066   5.021   6.127
 9629TIP3   OH228829   1.620   0.668   0.450
 9629TIP3    H128830   1.561   0.634   0.517
 9629TIP3    H228831   1.664   0.590   0.415
 9630TIP3   OH228832   0.775   6.763   1.681
 9630TIP3    H128833   0.870   6.762   1.691
 9630TIP3    H228834   0.758   6.708   1.605
 9631TIP3   OH228835   0.423   6.008   1.141
 9631TIP3    H128836   0.516   6.024   1.130
 9631TIP3    H228837   0.406   6.029   1.233
 9632TIP3   OH228838   3.516   7.322   1.537
 9632TIP3    H128839   3.572   7.250   1.508
 9632TIP3    H228840   3.493   7.299   1.627
 9633TIP3   OH228841   2.056   4.835   2.175
 9633TIP3    H128842   1.972   4.832   2.129
 9633TIP3    H228843   2.093   4.747   2.164
 9634TIP3   OH228844   3.396   4.005   5.510
 9634TIP3    H128845   3.435   4.002   5.597
 9634TIP3    H228846   3.469   3.982   5.451
 9635TIP3   OH228847   0.182   7.583   6.144
 9635TIP3    H128848   0.190   7.488   6.150
 9635TIP3    H228849   0.272   7.615   6.149
 9636TIP3   OH228850   2.690   4.437   3.129
 9636TIP3    H128851   2.634   4.515   3.127
 9636TIP3    H228852   2.679   4.399   3.041
 9637TIP3   OH228853   4.215   2.091   2.420
 9637TIP3    H128854   4.137   2.113   2.371
 9637TIP3    H228855   4.254   2.175   2.443
 9638TIP3   OH228856   4.710   0.234   1.657
 9638TIP3    H128857   4.649   0.239   1.731
 9638TIP3    H228858   4.741   0.144   1.658
 9639TIP3   OH228859   4.194   5.074   4.839
 9639TIP3    H128860   4.267   5.125   4.875
 9639TIP3    H228861   4.116   5.124   4.862
 9640TIP3   OH228862   3.265   0.943   6.680
 9640TIP3    H128863   3.318   0.988   6.614
 9640TIP3    H228864   3.194   0.903   6.629
 9641TIP3   OH228865   3.064   6.821   5.637
 9641TIP3    H128866   3.130   6.825   5.706
 9641TIP3    H228867   3.058   6.728   5.614
 9642TIP3   OH228868   3.417   2.072   5.786
 9642TIP3    H128869   3.332   2.093   5.826
 9642TIP3    H228870   3.397   2.002   5.724
 9643TIP3   OH228871   6.230   3.327   2.835
 9643TIP3    H128872   6.259   3.365   2.752
 9643TIP3    H228873   6.230   3.401   2.896
 9644TIP3   OH228874   1.548   5.979   0.964
 9644TIP3    H128875   1.623   6.013   1.012
 9644TIP3    H228876   1.484   5.957   1.032
 9645TIP3   OH228877   1.945   3.765   1.736
 9645TIP3    H128878   2.036   3.786   1.715
 9645TIP3    H228879   1.939   3.776   1.831
 9646TIP3   OH228880   4.850   0.291   4.641
 9646TIP3    H128881   4.764   0.332   4.649
 9646TIP3    H228882   4.851   0.253   4.554
 9647TIP3   OH228883   8.289   5.469   0.570
 9647TIP3    H128884   8.200   5.440   0.548
 9647TIP3    H228885   8.312   5.529   0.499
 9648TIP3   OH228886   4.698   1.523   4.094
 9648TIP3    H128887   4.731   1.510   4.183
 9648TIP3    H228888   4.706   1.437   4.052
 9649TIP3   OH228889   8.162   3.269   3.886
 9649TIP3    H128890   8.236   3.273   3.947
 9649TIP3    H228891   8.201   3.289   3.801
 9650TIP3   OH228892   1.985   2.139   1.191
 9650TIP3    H128893   2.052   2.207   1.202
 9650TIP3    H228894   2.005   2.075   1.259
 9651TIP3   OH228895   7.104   0.380   6.386
 9651TIP3    H128896   7.088   0.340   6.471
 9651TIP3    H228897   7.017   0.391   6.347
 9652TIP3   OH228898   1.147   3.229   5.639
 9652TIP3    H128899   1.088   3.267   5.574
 9652TIP3    H228900   1.230   3.218   5.593
 9653TIP3   OH228901   4.901   5.482   5.985
 9653TIP3    H128902   4.807   5.485   5.967
 9653TIP3    H228903   4.909   5.426   6.062
 9654TIP3   OH228904   7.936   2.610   5.260
 9654TIP3    H128905   8.023   2.620   5.221
 9654TIP3    H228906   7.898   2.698   5.259
 9655TIP3   OH228907   2.267   7.028   4.150
 9655TIP3    H128908   2.297   7.115   4.123
 9655TIP3    H228909   2.184   7.015   4.104
 9656TIP3   OH228910   3.187   2.071   5.071
 9656TIP3    H128911   3.184   1.976   5.084
 9656TIP3    H228912   3.102   2.102   5.101
 9657TIP3   OH228913   4.546   2.084   1.070
 9657TIP3    H128914   4.625   2.119   1.112
 9657TIP3    H228915   4.569   1.995   1.044
 9658TIP3   OH228916   0.313   2.441   2.916
 9658TIP3    H128917   0.317   2.369   2.852
 9658TIP3    H228918   0.336   2.518   2.865
 9659TIP3   OH228919   2.533   6.945   5.532
 9659TIP3    H128920   2.463   7.002   5.566
 9659TIP3    H228921   2.610   7.001   5.529
 9660TIP3   OH228922   2.330   0.898   1.160
 9660TIP3    H128923   2.273   0.827   1.129
 9660TIP3    H228924   2.380   0.859   1.232
 9661TIP3   OH228925   1.880   1.525   0.463
 9661TIP3    H128926   1.967   1.519   0.423
 9661TIP3    H228927   1.870   1.618   0.485
 9662TIP3   OH228928   1.727   1.742   3.054
 9662TIP3    H128929   1.666   1.750   2.980
 9662TIP3    H228930   1.813   1.731   3.014
 9663TIP3   OH228931   4.272   3.840   6.423
 9663TIP3    H128932   4.258   3.755   6.466
 9663TIP3    H228933   4.297   3.817   6.334
 9664TIP3   OH228934   2.452   2.284   2.487
 9664TIP3    H128935   2.393   2.301   2.414
 9664TIP3    H228936   2.540   2.296   2.451
 9665TIP3   OH228937   0.653   0.416   4.422
 9665TIP3    H128938   0.715   0.472   4.468
 9665TIP3    H228939   0.633   0.463   4.341
 9666TIP3   OH228940   8.036   2.613   4.572
 9666TIP3    H128941   8.078   2.580   4.492
 9666TIP3    H228942   8.079   2.696   4.589
 9667TIP3   OH228943   5.188   2.354   1.560
 9667TIP3    H128944   5.112   2.318   1.605
 9667TIP3    H228945   5.245   2.278   1.546
 9668TIP3   OH228946   7.933   0.881   5.005
 9668TIP3    H128947   8.002   0.824   5.038
 9668TIP3    H228948   7.976   0.964   4.988
 9669TIP3   OH228949   6.116   7.362   6.463
 9669TIP3    H128950   6.155   7.338   6.379
 9669TIP3    H228951   6.148   7.450   6.481
 9670TIP3   OH228952   8.141   3.826   3.475
 9670TIP3    H128953   8.100   3.818   3.389
 9670TIP3    H228954   8.105   3.754   3.526
 9671TIP3   OH228955   3.724   4.935   2.670
 9671TIP3    H128956   3.771   4.994   2.728
 9671TIP3    H228957   3.756   4.957   2.582
 9672TIP3   OH228958   2.513   3.049   1.724
 9672TIP3    H128959   2.448   3.084   1.785
 9672TIP3    H228960   2.592   3.100   1.741
 9673TIP3   OH228961   6.155   1.895   2.455
 9673TIP3    H128962   6.185   1.812   2.418
 9673TIP3    H228963   6.075   1.915   2.407
 9674TIP3   OH228964   2.734   7.540   0.812
 9674TIP3    H128965   2.730   7.498   0.898
 9674TIP3    H228966   2.730   7.634   0.830
 9675TIP3   OH228967   3.311   0.383   6.006
 9675TIP3    H128968   3.342   0.472   6.023
 9675TIP3    H228969   3.226   0.395   5.965
 9676TIP3   OH228970   0.241   2.047   2.971
 9676TIP3    H128971   0.310   2.108   2.948
 9676TIP3    H228972   0.174   2.059   2.903
 9677TIP3   OH228973   0.418   7.584   1.974
 9677TIP3    H128974   0.432   7.663   1.921
 9677TIP3    H228975   0.434   7.512   1.913
 9678TIP3   OH228976   6.588   5.212   4.952
 9678TIP3    H128977   6.649   5.283   4.930
 9678TIP3    H228978   6.609   5.143   4.889
 9679TIP3   OH228979   2.096   0.739   4.464
 9679TIP3    H128980   2.184   0.740   4.503
 9679TIP3    H228981   2.111   0.746   4.370
 9680TIP3   OH228982   8.083   6.724   2.066
 9680TIP3    H128983   8.026   6.671   2.011
 9680TIP3    H228984   8.144   6.765   2.004
 9681TIP3   OH228985   2.790   0.985   4.892
 9681TIP3    H128986   2.767   0.927   4.965
 9681TIP3    H228987   2.711   1.037   4.877
 9682TIP3   OH228988   6.651   1.525   3.019
 9682TIP3    H128989   6.698   1.595   3.064
 9682TIP3    H228990   6.710   1.451   3.019
 9683TIP3   OH228991   7.323   4.831   0.801
 9683TIP3    H128992   7.396   4.786   0.844
 9683TIP3    H228993   7.253   4.767   0.799
 9684TIP3   OH228994   8.204   2.616   5.124
 9684TIP3    H128995   8.276   2.661   5.169
 9684TIP3    H228996   8.153   2.686   5.084
 9685TIP3   OH228997   3.275   1.388   5.891
 9685TIP3    H128998   3.367   1.415   5.889
 9685TIP3    H228999   3.275   1.309   5.944
 9686TIP3   OH229000   5.457   2.908   3.381
 9686TIP3    H129001   5.536   2.887   3.330
 9686TIP3    H229002   5.472   2.997   3.413
 9687TIP3   OH229003   2.013   7.081   3.363
 9687TIP3    H129004   2.105   7.066   3.340
 9687TIP3    H229005   1.983   7.146   3.299
 9688TIP3   OH229006   1.585   0.501   1.257
 9688TIP3    H129007   1.662   0.520   1.203
 9688TIP3    H229008   1.538   0.584   1.262
 9689TIP3   OH229009   1.091   5.190   2.695
 9689TIP3    H129010   1.164   5.133   2.671
 9689TIP3    H229011   1.016   5.153   2.648
 9690TIP3   OH229012   0.017   4.782   6.109
 9690TIP3    H129013   0.038   4.856   6.165
 9690TIP3    H229014  -0.034   4.723   6.164
 9691TIP3   OH229015   3.452   1.357   4.292
 9691TIP3    H129016   3.404   1.385   4.214
 9691TIP3    H229017   3.544   1.357   4.265
 9692TIP3   OH229018   5.474   6.047   5.845
 9692TIP3    H129019   5.528   5.994   5.787
 9692TIP3    H229020   5.388   6.006   5.842
 9693TIP3   OH229021   4.008   4.673   5.646
 9693TIP3    H129022   4.004   4.758   5.603
 9693TIP3    H229023   3.919   4.639   5.641
 9694TIP3   OH229024   6.479   3.188   2.887
 9694TIP3    H129025   6.555   3.199   2.830
 9694TIP3    H229026   6.407   3.233   2.842
 9695TIP3   OH229027   0.586   1.115   3.047
 9695TIP3    H129028   0.630   1.150   2.970
 9695TIP3    H229029   0.583   1.188   3.108
 9696TIP3   OH229030   2.170   6.769   5.271
 9696TIP3    H129031   2.246   6.743   5.219
 9696TIP3    H229032   2.174   6.864   5.273
 9697TIP3   OH229033   0.126   2.545   3.127
 9697TIP3    H129034   0.188   2.501   3.068
 9697TIP3    H229035   0.082   2.473   3.173
 9698TIP3   OH229036   3.991   3.836   4.742
 9698TIP3    H129037   4.031   3.887   4.671
 9698TIP3    H229038   3.990   3.896   4.817
 9699TIP3   OH229039   4.581   6.588   3.800
 9699TIP3    H129040   4.604   6.497   3.820
 9699TIP3    H229041   4.502   6.582   3.747
 9700TIP3   OH229042   7.947   1.288   0.053
 9700TIP3    H129043   7.913   1.373   0.081
 9700TIP3    H229044   8.021   1.272   0.111
 9701TIP3   OH229045   5.524   0.254   0.977
 9701TIP3    H129046   5.619   0.255   0.987
 9701TIP3    H229047   5.491   0.293   1.058
 9702TIP3   OH229048   4.407   5.509   5.737
 9702TIP3    H129049   4.448   5.570   5.676
 9702TIP3    H229050   4.313   5.525   5.728
 9703TIP3   OH229051   1.740   5.358   0.482
 9703TIP3    H129052   1.648   5.356   0.507
 9703TIP3    H229053   1.779   5.426   0.537
 9704TIP3   OH229054   2.623   1.256   4.192
 9704TIP3    H129055   2.644   1.266   4.099
 9704TIP3    H229056   2.702   1.282   4.238
 9705TIP3   OH229057   4.734   4.315   3.070
 9705TIP3    H129058   4.680   4.280   2.999
 9705TIP3    H229059   4.672   4.335   3.140
 9706TIP3   OH229060   3.660   6.853   5.998
 9706TIP3    H129061   3.654   6.843   5.903
 9706TIP3    H229062   3.569   6.852   6.028
 9707TIP3   OH229063   4.987   2.109   0.003
 9707TIP3    H129064   4.925   2.077   0.069
 9707TIP3    H229065   4.937   2.109  -0.079
 9708TIP3   OH229066   3.343   5.762   0.925
 9708TIP3    H129067   3.269   5.733   0.871
 9708TIP3    H229068   3.344   5.857   0.916
 9709TIP3   OH229069   7.682   1.696   3.276
 9709TIP3    H129070   7.669   1.666   3.365
 9709TIP3    H229071   7.763   1.747   3.279
 9710TIP3   OH229072   3.252   2.123   3.615
 9710TIP3    H129073   3.284   2.202   3.658
 9710TIP3    H229074   3.309   2.113   3.538
 9711TIP3   OH229075   2.617   6.417   2.590
 9711TIP3    H129076   2.644   6.457   2.672
 9711TIP3    H229077   2.522   6.429   2.587
 9712TIP3   OH229078   7.676   0.110   0.105
 9712TIP3    H129079   7.667   0.174   0.033
 9712TIP3    H229080   7.586   0.082   0.122
 9713TIP3   OH229081   6.180   4.239   5.668
 9713TIP3    H129082   6.121   4.286   5.609
 9713TIP3    H229083   6.233   4.307   5.710
 9714TIP3   OH229084   1.053   3.445   3.694
 9714TIP3    H129085   1.128   3.503   3.684
 9714TIP3    H229086   0.993   3.493   3.751
 9715TIP3   OH229087   5.365   3.620   1.067
 9715TIP3    H129088   5.397   3.610   1.157
 9715TIP3    H229089   5.438   3.659   1.019
 9716TIP3   OH229090   4.227   6.481   0.133
 9716TIP3    H129091   4.182   6.487   0.217
 9716TIP3    H229092   4.230   6.570   0.100
 9717TIP3   OH229093   6.864   3.744   1.144
 9717TIP3    H129094   6.914   3.724   1.065
 9717TIP3    H229095   6.904   3.824   1.179
 9718TIP3   OH229096   6.483   5.982   2.827
 9718TIP3    H129097   6.450   5.945   2.909
 9718TIP3    H229098   6.509   5.906   2.775
 9719TIP3   OH229099   7.459   5.296   2.426
 9719TIP3    H129100   7.438   5.203   2.426
 9719TIP3    H229101   7.381   5.338   2.390
 9720TIP3   OH229102   7.408   3.202   5.746
 9720TIP3    H129103   7.461   3.234   5.673
 9720TIP3    H229104   7.461   3.133   5.785
 9721TIP3   OH229105   2.333   7.291   0.449
 9721TIP3    H129106   2.309   7.353   0.381
 9721TIP3    H229107   2.311   7.335   0.531
 9722TIP3   OH229108   8.106   2.003   5.374
 9722TIP3    H129109   8.095   2.015   5.468
 9722TIP3    H229110   8.023   2.029   5.336
 9723TIP3   OH229111   5.908   0.806   5.694
 9723TIP3    H129112   5.925   0.771   5.782
 9723TIP3    H229113   5.846   0.745   5.656
 9724TIP3   OH229114   3.969   4.553   3.155
 9724TIP3    H129115   4.061   4.563   3.177
 9724TIP3    H229116   3.929   4.637   3.181
 9725TIP3   OH229117   3.405   0.603   0.934
 9725TIP3    H129118   3.338   0.620   0.868
 9725TIP3    H229119   3.398   0.676   0.995
 9726TIP3   OH229120   3.328   5.649   2.186
 9726TIP3    H129121   3.251   5.639   2.131
 9726TIP3    H229122   3.294   5.660   2.274
 9727TIP3   OH229123   0.160   1.771   3.147
 9727TIP3    H129124   0.091   1.831   3.120
 9727TIP3    H229125   0.214   1.822   3.207
 9728TIP3   OH229126   6.453   7.295   4.743
 9728TIP3    H129127   6.481   7.347   4.818
 9728TIP3    H229128   6.494   7.336   4.668
 9729TIP3   OH229129   2.832   3.776   4.541
 9729TIP3    H129130   2.773   3.845   4.512
 9729TIP3    H229131   2.786   3.695   4.523
 9730TIP3   OH229132   3.309   7.530   5.635
 9730TIP3    H129133   3.397   7.501   5.658
 9730TIP3    H229134   3.266   7.545   5.719
 9731TIP3   OH229135   7.723   2.822   4.967
 9731TIP3    H129136   7.673   2.896   4.933
 9731TIP3    H229137   7.658   2.754   4.981
 9732TIP3   OH229138   6.072   5.596   1.226
 9732TIP3    H129139   5.981   5.581   1.249
 9732TIP3    H229140   6.079   5.567   1.135
 9733TIP3   OH229141   2.441   3.539   1.227
 9733TIP3    H129142   2.371   3.484   1.263
 9733TIP3    H229143   2.406   3.628   1.232
 9734TIP3   OH229144   0.845   2.327   1.035
 9734TIP3    H129145   0.842   2.347   1.128
 9734TIP3    H229146   0.812   2.237   1.029
 9735TIP3   OH229147   6.416   1.643   0.175
 9735TIP3    H129148   6.418   1.548   0.188
 9735TIP3    H229149   6.425   1.654   0.081
 9736TIP3   OH229150   1.402   4.480   3.722
 9736TIP3    H129151   1.323   4.520   3.687
 9736TIP3    H229152   1.474   4.527   3.678
 9737TIP3   OH229153   2.494   7.066   6.658
 9737TIP3    H129154   2.417   7.113   6.690
 9737TIP3    H229155   2.557   7.135   6.637
 9738TIP3   OH229156   7.689   0.974   5.101
 9738TIP3    H129157   7.705   0.998   5.192
 9738TIP3    H229158   7.769   0.931   5.073
 9739TIP3   OH229159   4.394   0.359   6.241
 9739TIP3    H129160   4.352   0.417   6.304
 9739TIP3    H229161   4.458   0.310   6.293
 9740TIP3   OH229162   8.006   2.636   3.270
 9740TIP3    H129163   8.028   2.570   3.335
 9740TIP3    H229164   8.088   2.654   3.225
 9741TIP3   OH229165   0.882   6.449   3.603
 9741TIP3    H129166   0.818   6.380   3.586
 9741TIP3    H229167   0.948   6.408   3.659
 9742TIP3   OH229168   1.593   7.618   4.422
 9742TIP3    H129169   1.649   7.626   4.345
 9742TIP3    H229170   1.524   7.684   4.408
 9743TIP3   OH229171   0.905   0.627   5.301
 9743TIP3    H129172   0.845   0.634   5.376
 9743TIP3    H229173   0.907   0.715   5.264
 9744TIP3   OH229174   2.564   0.309   3.617
 9744TIP3    H129175   2.601   0.331   3.531
 9744TIP3    H229176   2.561   0.213   3.617
 9745TIP3   OH229177   7.725   0.409   3.417
 9745TIP3    H129178   7.732   0.381   3.508
 9745TIP3    H229179   7.779   0.346   3.369
 9746TIP3   OH229180   1.861   4.443   0.045
 9746TIP3    H129181   1.788   4.447   0.107
 9746TIP3    H229182   1.896   4.532   0.043
 9747TIP3   OH229183   7.137   0.403   0.073
 9747TIP3    H129184   7.182   0.487   0.059
 9747TIP3    H229185   7.095   0.412   0.158
 9748TIP3   OH229186   3.453   3.877   4.277
 9748TIP3    H129187   3.416   3.822   4.208
 9748TIP3    H229188   3.382   3.937   4.300
 9749TIP3   OH229189   3.742   7.087   3.962
 9749TIP3    H129190   3.767   7.012   4.016
 9749TIP3    H229191   3.682   7.051   3.896
 9750TIP3   OH229192   0.386   3.293   2.755
 9750TIP3    H129193   0.434   3.277   2.674
 9750TIP3    H229194   0.412   3.222   2.813
 9751TIP3   OH229195   0.157   5.997   3.449
 9751TIP3    H129196   0.109   6.078   3.437
 9751TIP3    H229197   0.119   5.957   3.527
 9752TIP3   OH229198   7.650   5.049   4.382
 9752TIP3    H129199   7.606   4.979   4.334
 9752TIP3    H229200   7.684   5.007   4.461
 9753TIP3   OH229201   3.996   7.725   5.930
 9753TIP3    H129202   4.088   7.705   5.945
 9753TIP3    H229203   3.997   7.783   5.853
 9754TIP3   OH229204   7.508   4.058   6.398
 9754TIP3    H129205   7.442   4.109   6.351
 9754TIP3    H229206   7.559   4.122   6.446
 9755TIP3   OH229207   0.151   0.624   2.513
 9755TIP3    H129208   0.165   0.713   2.480
 9755TIP3    H229209   0.059   0.606   2.496
 9756TIP3   OH229210   3.347   3.621   1.706
 9756TIP3    H129211   3.382   3.585   1.624
 9756TIP3    H229212   3.312   3.546   1.752
 9757TIP3   OH229213   5.676   5.246   4.784
 9757TIP3    H129214   5.610   5.252   4.716
 9757TIP3    H229215   5.680   5.334   4.822
 9758TIP3   OH229216   5.755   2.771   4.289
 9758TIP3    H129217   5.719   2.749   4.374
 9758TIP3    H229218   5.683   2.757   4.227
 9759TIP3   OH229219   2.299   4.519   4.850
 9759TIP3    H129220   2.387   4.488   4.873
 9759TIP3    H229221   2.305   4.541   4.757
 9760TIP3   OH229222   7.452   0.976   3.254
 9760TIP3    H129223   7.368   0.932   3.248
 9760TIP3    H229224   7.432   1.062   3.288
 9761TIP3   OH229225   1.930   1.164   0.703
 9761TIP3    H129226   1.881   1.236   0.743
 9761TIP3    H229227   2.022   1.185   0.721
 9762TIP3   OH229228   6.165   7.736   3.393
 9762TIP3    H129229   6.246   7.753   3.441
 9762TIP3    H229230   6.140   7.647   3.418
 9763TIP3   OH229231   3.445   5.731   1.179
 9763TIP3    H129232   3.426   5.707   1.088
 9763TIP3    H229233   3.513   5.669   1.206
 9764TIP3   OH229234   5.007   4.378   4.165
 9764TIP3    H129235   4.950   4.376   4.089
 9764TIP3    H229236   5.015   4.471   4.187
 9765TIP3   OH229237   0.289   6.721   5.014
 9765TIP3    H129238   0.384   6.734   5.022
 9765TIP3    H229239   0.255   6.805   4.983
 9766TIP3   OH229240   5.273   4.253   2.938
 9766TIP3    H129241   5.235   4.193   2.874
 9766TIP3    H229242   5.305   4.196   3.008
 9767TIP3   OH229243   6.959   5.572   2.964
 9767TIP3    H129244   6.951   5.488   3.010
 9767TIP3    H229245   7.012   5.626   3.021
 9768TIP3   OH229246   2.354   3.345   2.534
 9768TIP3    H129247   2.400   3.407   2.590
 9768TIP3    H229248   2.343   3.267   2.588
 9769TIP3   OH229249   5.203   0.407   1.054
 9769TIP3    H129250   5.229   0.375   0.967
 9769TIP3    H229251   5.285   0.416   1.102
 9770TIP3   OH229252   6.779   3.700   6.063
 9770TIP3    H129253   6.803   3.754   5.988
 9770TIP3    H229254   6.861   3.659   6.090
 9771TIP3   OH229255   0.135   5.708   5.037
 9771TIP3    H129256   0.058   5.763   5.026
 9771TIP3    H229257   0.122   5.635   4.976
 9772TIP3   OH229258   2.195   3.606   6.301
 9772TIP3    H129259   2.185   3.617   6.396
 9772TIP3    H229260   2.217   3.694   6.269
 9773TIP3   OH229261   3.323   0.621   6.143
 9773TIP3    H129262   3.255   0.688   6.147
 9773TIP3    H229263   3.403   0.669   6.122
 9774TIP3   OH229264   3.130   0.226   5.605
 9774TIP3    H129265   3.203   0.259   5.552
 9774TIP3    H229266   3.118   0.292   5.673
 9775TIP3   OH229267   6.875   1.810   6.678
 9775TIP3    H129268   6.966   1.779   6.685
 9775TIP3    H229269   6.824   1.729   6.668
 9776TIP3   OH229270   2.018   0.493   2.292
 9776TIP3    H129271   2.071   0.555   2.241
 9776TIP3    H229272   2.063   0.409   2.282
 9777TIP3   OH229273   5.959   0.244   2.117
 9777TIP3    H129274   5.954   0.297   2.196
 9777TIP3    H229275   5.896   0.285   2.056
 9778TIP3   OH229276   3.138   4.668   0.662
 9778TIP3    H129277   3.101   4.584   0.636
 9778TIP3    H229278   3.220   4.647   0.706
 9779TIP3   OH229279   5.379   0.724   2.513
 9779TIP3    H129280   5.439   0.703   2.585
 9779TIP3    H229281   5.309   0.660   2.520
 9780TIP3   OH229282   2.390   5.165   1.747
 9780TIP3    H129283   2.301   5.141   1.774
 9780TIP3    H229284   2.388   5.160   1.652
 9781TIP3   OH229285   7.978   4.244   5.849
 9781TIP3    H129286   7.995   4.228   5.942
 9781TIP3    H229287   8.036   4.317   5.826
 9782TIP3   OH229288   6.481   2.886   0.908
 9782TIP3    H129289   6.561   2.840   0.883
 9782TIP3    H229290   6.458   2.850   0.994
 9783TIP3   OH229291   5.376   2.403   0.968
 9783TIP3    H129292   5.374   2.470   0.900
 9783TIP3    H229293   5.382   2.320   0.920
 9784TIP3   OH229294   0.716   5.602   1.878
 9784TIP3    H129295   0.669   5.528   1.839
 9784TIP3    H229296   0.753   5.567   1.959
 9785TIP3   OH229297   5.107   2.267   3.960
 9785TIP3    H129298   5.036   2.218   3.919
 9785TIP3    H229299   5.075   2.284   4.049
 9786TIP3   OH229300   4.845   0.560   6.226
 9786TIP3    H129301   4.817   0.555   6.134
 9786TIP3    H229302   4.929   0.607   6.222
 9787TIP3   OH229303   2.568   2.292   1.512
 9787TIP3    H129304   2.646   2.338   1.545
 9787TIP3    H229305   2.598   2.204   1.493
 9788TIP3   OH229306   2.146   2.510   0.730
 9788TIP3    H129307   2.229   2.476   0.763
 9788TIP3    H229308   2.166   2.542   0.642
 9789TIP3   OH229309   1.083   2.258   3.269
 9789TIP3    H129310   1.147   2.319   3.305
 9789TIP3    H229311   1.071   2.286   3.178
 9790TIP3   OH229312   0.068   7.721   6.359
 9790TIP3    H129313   0.113   7.704   6.442
 9790TIP3    H229314   0.111   7.663   6.296
 9791TIP3   OH229315   8.103   1.785   6.575
 9791TIP3    H129316   8.160   1.724   6.527
 9791TIP3    H229317   8.045   1.820   6.509
 9792TIP3   OH229318   1.755   2.341   4.969
 9792TIP3    H129319   1.768   2.436   4.979
 9792TIP3    H229320   1.843   2.306   4.956
 9793TIP3   OH229321   5.371   6.784   6.583
 9793TIP3    H129322   5.452   6.752   6.544
 9793TIP3    H229323   5.305   6.720   6.557
 9794TIP3   OH229324   3.724   4.341   4.389
 9794TIP3    H129325   3.682   4.302   4.312
 9794TIP3    H229326   3.695   4.288   4.462
 9795TIP3   OH229327   2.478   4.380   2.805
 9795TIP3    H129328   2.468   4.475   2.797
 9795TIP3    H229329   2.396   4.351   2.845
 9796TIP3   OH229330   3.396   7.391   1.227
 9796TIP3    H129331   3.465   7.341   1.184
 9796TIP3    H229332   3.442   7.448   1.288
 9797TIP3   OH229333   0.898   5.293   3.313
 9797TIP3    H129334   0.986   5.257   3.324
 9797TIP3    H229335   0.901   5.339   3.229
 9798TIP3   OH229336   6.532   5.793   2.388
 9798TIP3    H129337   6.615   5.830   2.356
 9798TIP3    H229338   6.551   5.767   2.478
 9799TIP3   OH229339   7.814   0.348   2.242
 9799TIP3    H129340   7.770   0.423   2.283
 9799TIP3    H229341   7.856   0.385   2.164
 9800TIP3   OH229342   0.178   3.907   3.558
 9800TIP3    H129343   0.230   3.987   3.558
 9800TIP3    H229344   0.145   3.900   3.469
 9801TIP3   OH229345   1.227   7.125   2.168
 9801TIP3    H129346   1.279   7.127   2.088
 9801TIP3    H229347   1.279   7.174   2.231
 9802TIP3   OH229348   7.262   0.070   0.929
 9802TIP3    H129349   7.296   0.014   0.998
 9802TIP3    H229350   7.336   0.124   0.902
 9803TIP3   OH229351   8.243   0.792   6.343
 9803TIP3    H129352   8.315   0.828   6.292
 9803TIP3    H229353   8.188   0.747   6.278
 9804TIP3   OH229354   7.495   5.149   5.684
 9804TIP3    H129355   7.586   5.118   5.688
 9804TIP3    H229356   7.462   5.115   5.601
 9805TIP3   OH229357   0.827   2.816   4.464
 9805TIP3    H129358   0.851   2.726   4.487
 9805TIP3    H229359   0.871   2.870   4.530
 9806TIP3   OH229360   7.546   6.983   1.191
 9806TIP3    H129361   7.560   6.932   1.271
 9806TIP3    H229362   7.488   7.054   1.218
 9807TIP3   OH229363   4.582   1.380   4.814
 9807TIP3    H129364   4.498   1.348   4.779
 9807TIP3    H229365   4.648   1.325   4.770
 9808TIP3   OH229366   0.982   7.440   3.571
 9808TIP3    H129367   0.910   7.382   3.546
 9808TIP3    H229368   0.948   7.528   3.558
 9809TIP3   OH229369   3.975   3.425   1.627
 9809TIP3    H129370   4.015   3.399   1.544
 9809TIP3    H229371   4.000   3.357   1.689
 9810TIP3   OH229372   1.725   2.309   2.960
 9810TIP3    H129373   1.669   2.343   3.031
 9810TIP3    H229374   1.676   2.234   2.925
 9811TIP3   OH229375   1.547   5.831   2.180
 9811TIP3    H129376   1.505   5.754   2.218
 9811TIP3    H229377   1.603   5.797   2.111
 9812TIP3   OH229378   4.799   6.112   4.787
 9812TIP3    H129379   4.823   6.021   4.766
 9812TIP3    H229380   4.803   6.157   4.703
 9813TIP3   OH229381   7.180   7.262   6.345
 9813TIP3    H129382   7.125   7.210   6.403
 9813TIP3    H229383   7.254   7.204   6.325
 9814TIP3   OH229384   7.533   7.355   1.125
 9814TIP3    H129385   7.460   7.296   1.143
 9814TIP3    H229386   7.501   7.441   1.152
 9815TIP3   OH229387   0.055   4.836   5.224
 9815TIP3    H129388   0.036   4.908   5.284
 9815TIP3    H229389   0.005   4.856   5.146
 9816TIP3   OH229390   5.262   6.053   0.127
 9816TIP3    H129391   5.251   5.983   0.063
 9816TIP3    H229392   5.318   6.015   0.195
 9817TIP3   OH229393   6.358   6.545   1.882
 9817TIP3    H129394   6.370   6.460   1.924
 9817TIP3    H229395   6.344   6.525   1.790
 9818TIP3   OH229396   4.698   4.694   4.492
 9818TIP3    H129397   4.678   4.665   4.403
 9818TIP3    H229398   4.739   4.618   4.534
 9819TIP3   OH229399   0.480   1.370   6.366
 9819TIP3    H129400   0.473   1.336   6.455
 9819TIP3    H229401   0.411   1.324   6.317
 9820TIP3   OH229402   5.677   7.527   5.324
 9820TIP3    H129403   5.642   7.529   5.235
 9820TIP3    H229404   5.619   7.585   5.374
 9821TIP3   OH229405   5.265   1.779   3.420
 9821TIP3    H129406   5.290   1.716   3.488
 9821TIP3    H229407   5.198   1.735   3.369
 9822TIP3   OH229408   0.509   6.478   5.391
 9822TIP3    H129409   0.604   6.485   5.386
 9822TIP3    H229410   0.490   6.386   5.375
 9823TIP3   OH229411   2.768   5.074   6.150
 9823TIP3    H129412   2.751   5.058   6.243
 9823TIP3    H229413   2.827   5.003   6.124
 9824TIP3   OH229414   5.200   3.098   4.889
 9824TIP3    H129415   5.185   3.006   4.866
 9824TIP3    H229416   5.121   3.144   4.859
 9825TIP3   OH229417   6.474   0.659   3.381
 9825TIP3    H129418   6.510   0.600   3.315
 9825TIP3    H229419   6.540   0.727   3.392
 9826TIP3   OH229420   2.073   6.664   5.721
 9826TIP3    H129421   2.086   6.731   5.788
 9826TIP3    H229422   2.161   6.637   5.696
 9827TIP3   OH229423   3.559   7.427   5.668
 9827TIP3    H129424   3.594   7.342   5.692
 9827TIP3    H229425   3.635   7.485   5.666
 9828TIP3   OH229426   0.870   4.661   6.186
 9828TIP3    H129427   0.937   4.595   6.170
 9828TIP3    H229428   0.803   4.644   6.120
 9829TIP3   OH229429   2.568   6.837   6.489
 9829TIP3    H129430   2.564   6.816   6.582
 9829TIP3    H229431   2.501   6.905   6.477
 9830TIP3   OH229432   2.740   6.284   6.698
 9830TIP3    H129433   2.775   6.347   6.635
 9830TIP3    H229434   2.646   6.282   6.679
 9831TIP3   OH229435   5.811   5.969   1.198
 9831TIP3    H129436   5.875   6.034   1.169
 9831TIP3    H229437   5.827   5.893   1.141
 9832TIP3   OH229438   0.882   5.363   2.336
 9832TIP3    H129439   0.899   5.403   2.250
 9832TIP3    H229440   0.966   5.328   2.363
 9833TIP3   OH229441   0.070   6.275   0.576
 9833TIP3    H129442   0.086   6.189   0.537
 9833TIP3    H229443   0.102   6.337   0.510
 9834TIP3   OH229444   3.066   6.664   4.776
 9834TIP3    H129445   3.054   6.698   4.687
 9834TIP3    H229446   3.157   6.634   4.778
 9835TIP3   OH229447   6.845   3.830   4.374
 9835TIP3    H129448   6.839   3.881   4.293
 9835TIP3    H229449   6.760   3.843   4.417
 9836TIP3   OH229450   0.297   2.674   1.193
 9836TIP3    H129451   0.365   2.663   1.259
 9836TIP3    H229452   0.288   2.769   1.185
 9837TIP3   OH229453   1.315   1.585   5.811
 9837TIP3    H129454   1.242   1.587   5.748
 9837TIP3    H229455   1.340   1.493   5.817
 9838TIP3   OH229456   2.830   6.646   3.002
 9838TIP3    H129457   2.913   6.600   2.989
 9838TIP3    H229458   2.831   6.673   3.094
 9839TIP3   OH229459   6.168   3.896   2.379
 9839TIP3    H129460   6.152   3.804   2.360
 9839TIP3    H229461   6.082   3.932   2.402
 9840TIP3   OH229462   3.777   6.786   2.206
 9840TIP3    H129463   3.816   6.702   2.185
 9840TIP3    H229464   3.696   6.789   2.155
 9841TIP3   OH229465   1.435   2.604   3.033
 9841TIP3    H129466   1.396   2.690   3.052
 9841TIP3    H229467   1.529   2.621   3.030
 9842TIP3   OH229468   1.669   3.866   0.719
 9842TIP3    H129469   1.644   3.953   0.750
 9842TIP3    H229470   1.611   3.806   0.766
 9843TIP3   OH229471   0.609   4.105   6.138
 9843TIP3    H129472   0.663   4.181   6.162
 9843TIP3    H229473   0.574   4.073   6.221
 9844TIP3   OH229474   0.128  -0.030   0.851
 9844TIP3    H129475   0.049  -0.023   0.905
 9844TIP3    H229476   0.177   0.050   0.868
 9845TIP3   OH229477   0.822   7.583   0.380
 9845TIP3    H129478   0.778   7.668   0.372
 9845TIP3    H229479   0.915   7.602   0.367
 9846TIP3   OH229480   3.723   3.985   2.363
 9846TIP3    H129481   3.798   3.950   2.412
 9846TIP3    H229482   3.742   3.965   2.272
 9847TIP3   OH229483   1.243   2.564   0.303
 9847TIP3    H129484   1.156   2.584   0.267
 9847TIP3    H229485   1.236   2.588   0.395
 9848TIP3   OH229486   1.344   7.710   5.887
 9848TIP3    H129487   1.402   7.746   5.820
 9848TIP3    H229488   1.285   7.652   5.839
 9849TIP3   OH229489   3.127   1.731   6.515
 9849TIP3    H129490   3.047   1.720   6.465
 9849TIP3    H229491   3.197   1.726   6.451
 9850TIP3   OH229492   2.049   3.053   0.279
 9850TIP3    H129493   1.987   3.112   0.321
 9850TIP3    H229494   2.004   2.969   0.274
 9851TIP3   OH229495   6.889   7.592   0.055
 9851TIP3    H129496   6.814   7.559   0.104
 9851TIP3    H229497   6.880   7.687   0.060
 9852TIP3   OH229498   0.683   6.647   4.032
 9852TIP3    H129499   0.608   6.592   4.011
 9852TIP3    H229500   0.695   6.637   4.127
 9853TIP3   OH229501   5.759   1.557   6.753
 9853TIP3    H129502   5.760   1.468   6.716
 9853TIP3    H229503   5.851   1.584   6.751
 9854TIP3   OH229504   7.674   7.615   0.479
 9854TIP3    H129505   7.647   7.638   0.567
 9854TIP3    H229506   7.625   7.676   0.422
 9855TIP3   OH229507   0.279   5.542   3.205
 9855TIP3    H129508   0.252   5.459   3.165
 9855TIP3    H229509   0.369   5.554   3.176
 9856TIP3   OH229510   6.910   3.575   1.492
 9856TIP3    H129511   6.893   3.636   1.564
 9856TIP3    H229512   6.899   3.489   1.532
 9857TIP3   OH229513   5.880   2.482   2.649
 9857TIP3    H129514   5.830   2.401   2.639
 9857TIP3    H229515   5.831   2.547   2.598
 9858TIP3   OH229516   4.407   3.488   0.563
 9858TIP3    H129517   4.380   3.574   0.530
 9858TIP3    H229518   4.340   3.428   0.529
 9859TIP3   OH229519   6.803   6.148   0.166
 9859TIP3    H129520   6.730   6.087   0.154
 9859TIP3    H229521   6.765   6.224   0.210
 9860TIP3   OH229522   2.740   4.293   2.694
 9860TIP3    H129523   2.655   4.301   2.651
 9860TIP3    H229524   2.738   4.359   2.763
 9861TIP3   OH229525   5.167   3.590   4.705
 9861TIP3    H129526   5.087   3.549   4.736
 9861TIP3    H229527   5.237   3.546   4.753
 9862TIP3   OH229528   8.109   5.442   4.975
 9862TIP3    H129529   8.095   5.500   5.050
 9862TIP3    H229530   8.022   5.408   4.954
 9863TIP3   OH229531   0.422   2.394   5.160
 9863TIP3    H129532   0.365   2.395   5.238
 9863TIP3    H229533   0.365   2.364   5.089
 9864TIP3   OH229534   4.902   7.099   0.170
 9864TIP3    H129535   4.941   7.170   0.119
 9864TIP3    H229536   4.949   7.020   0.140
 9865TIP3   OH229537   0.627   2.376   1.756
 9865TIP3    H129538   0.598   2.326   1.680
 9865TIP3    H229539   0.705   2.422   1.726
 9866TIP3   OH229540   6.797   6.456   0.317
 9866TIP3    H129541   6.738   6.529   0.333
 9866TIP3    H229542   6.850   6.450   0.397
 9867TIP3   OH229543   5.734   2.689   1.170
 9867TIP3    H129544   5.766   2.751   1.235
 9867TIP3    H229545   5.673   2.740   1.116
 9868TIP3   OH229546   1.711   4.427   2.968
 9868TIP3    H129547   1.622   4.455   2.987
 9868TIP3    H229548   1.760   4.445   3.048
 9869TIP3   OH229549   4.577   5.552   0.385
 9869TIP3    H129550   4.641   5.611   0.425
 9869TIP3    H229551   4.541   5.602   0.311
 9870TIP3   OH229552   3.837   6.395   1.162
 9870TIP3    H129553   3.857   6.401   1.256
 9870TIP3    H229554   3.774   6.465   1.147
 9871TIP3   OH229555   1.233   1.774   1.784
 9871TIP3    H129556   1.303   1.746   1.725
 9871TIP3    H229557   1.155   1.730   1.751
 9872TIP3   OH229558   5.166   3.619   3.817
 9872TIP3    H129559   5.083   3.625   3.769
 9872TIP3    H229560   5.233   3.644   3.753
 9873TIP3   OH229561   5.974   0.184   4.030
 9873TIP3    H129562   5.964   0.111   3.968
 9873TIP3    H229563   5.931   0.258   3.987
 9874TIP3   OH229564   6.552   0.864   5.858
 9874TIP3    H129565   6.515   0.936   5.909
 9874TIP3    H229566   6.608   0.817   5.920
 9875TIP3   OH229567   6.263   2.132   6.574
 9875TIP3    H129568   6.290   2.135   6.666
 9875TIP3    H229569   6.340   2.162   6.525
 9876TIP3   OH229570   3.106   2.713   4.155
 9876TIP3    H129571   3.031   2.654   4.160
 9876TIP3    H229572   3.098   2.769   4.232
 9877TIP3   OH229573   4.666   5.201   1.832
 9877TIP3    H129574   4.750   5.216   1.876
 9877TIP3    H229575   4.641   5.286   1.798
 9878TIP3   OH229576   7.411   1.512   2.555
 9878TIP3    H129577   7.428   1.465   2.636
 9878TIP3    H229578   7.344   1.461   2.510
 9879TIP3   OH229579   2.508   1.834   2.010
 9879TIP3    H129580   2.558   1.762   2.048
 9879TIP3    H229581   2.490   1.892   2.084
 9880TIP3   OH229582   6.496   2.982   6.718
 9880TIP3    H129583   6.507   3.034   6.798
 9880TIP3    H229584   6.432   2.915   6.742
 9881TIP3   OH229585   7.669   3.886   2.223
 9881TIP3    H129586   7.757   3.922   2.231
 9881TIP3    H229587   7.628   3.938   2.154
 9882TIP3   OH229588   5.934   5.826   0.713
 9882TIP3    H129589   5.924   5.818   0.618
 9882TIP3    H229590   5.864   5.771   0.749
 9883TIP3   OH229591   6.619   0.806   2.459
 9883TIP3    H129592   6.525   0.823   2.456
 9883TIP3    H229593   6.637   0.758   2.378
 9884TIP3   OH229594   4.003   0.230   5.289
 9884TIP3    H129595   4.027   0.288   5.361
 9884TIP3    H229596   4.086   0.194   5.258
 9885TIP3   OH229597   2.513   5.669   6.727
 9885TIP3    H129598   2.581   5.719   6.682
 9885TIP3    H229599   2.558   5.633   6.804
 9886TIP3   OH229600   7.105   6.374   1.321
 9886TIP3    H129601   7.165   6.428   1.371
 9886TIP3    H229602   7.046   6.436   1.278
 9887TIP3   OH229603   2.560   7.815   1.464
 9887TIP3    H129604   2.649   7.786   1.486
 9887TIP3    H229605   2.510   7.801   1.545
 9888TIP3   OH229606   2.728   4.392   1.952
 9888TIP3    H129607   2.782   4.325   1.995
 9888TIP3    H229608   2.710   4.456   2.021
 9889TIP3   OH229609   2.759   4.826   0.563
 9889TIP3    H129610   2.844   4.850   0.599
 9889TIP3    H229611   2.779   4.766   0.490
 9890TIP3   OH229612   2.430   2.632   5.485
 9890TIP3    H129613   2.371   2.707   5.490
 9890TIP3    H229614   2.473   2.630   5.571
 9891TIP3   OH229615   7.911   3.184   2.579
 9891TIP3    H129616   7.898   3.126   2.504
 9891TIP3    H229617   7.935   3.125   2.650
 9892TIP3   OH229618   5.333   7.097   1.931
 9892TIP3    H129619   5.416   7.112   1.976
 9892TIP3    H229620   5.292   7.024   1.979
 9893TIP3   OH229621   3.462   5.205   3.588
 9893TIP3    H129622   3.525   5.229   3.655
 9893TIP3    H229623   3.502   5.132   3.541
 9894TIP3   OH229624   7.382   4.676   6.242
 9894TIP3    H129625   7.288   4.683   6.227
 9894TIP3    H229626   7.421   4.728   6.172
 9895TIP3   OH229627   7.103   1.643   4.099
 9895TIP3    H129628   7.081   1.550   4.098
 9895TIP3    H229629   7.019   1.687   4.081
 9896TIP3   OH229630   4.259   1.328   6.153
 9896TIP3    H129631   4.309   1.387   6.096
 9896TIP3    H229632   4.309   1.327   6.235
 9897TIP3   OH229633   5.271   0.766   3.164
 9897TIP3    H129634   5.197   0.816   3.199
 9897TIP3    H229635   5.288   0.803   3.078
 9898TIP3   OH229636   5.227   7.672   2.578
 9898TIP3    H129637   5.175   7.712   2.647
 9898TIP3    H229638   5.292   7.739   2.555
 9899TIP3   OH229639   1.824   0.880   2.069
 9899TIP3    H129640   1.754   0.912   2.127
 9899TIP3    H229641   1.902   0.880   2.124
 9900TIP3   OH229642   4.726   2.456   1.134
 9900TIP3    H129643   4.731   2.523   1.202
 9900TIP3    H229644   4.741   2.503   1.052
 9901TIP3   OH229645   3.861   0.508   0.508
 9901TIP3    H129646   3.784   0.455   0.488
 9901TIP3    H229647   3.834   0.598   0.491
 9902TIP3   OH229648   6.825   4.145   4.712
 9902TIP3    H129649   6.759   4.076   4.702
 9902TIP3    H229650   6.899   4.115   4.660
 9903TIP3   OH229651   2.185   3.388   4.827
 9903TIP3    H129652   2.135   3.469   4.828
 9903TIP3    H229653   2.125   3.321   4.861
 9904TIP3   OH229654   3.574   2.448   4.552
 9904TIP3    H129655   3.540   2.531   4.519
 9904TIP3    H229656   3.648   2.427   4.494
 9905TIP3   OH229657   6.238   6.883   1.458
 9905TIP3    H129658   6.242   6.795   1.495
 9905TIP3    H229659   6.327   6.898   1.424
 9906TIP3   OH229660   0.485   1.276   3.958
 9906TIP3    H129661   0.573   1.291   3.925
 9906TIP3    H229662   0.446   1.363   3.966
 9907TIP3   OH229663   4.906   2.512   1.866
 9907TIP3    H129664   4.887   2.432   1.817
 9907TIP3    H229665   4.975   2.488   1.927
 9908TIP3   OH229666   7.628   3.010   1.579
 9908TIP3    H129667   7.665   3.098   1.566
 9908TIP3    H229668   7.586   3.015   1.665
 9909TIP3   OH229669   3.286   7.529   0.570
 9909TIP3    H129670   3.283   7.567   0.659
 9909TIP3    H229671   3.323   7.599   0.516
 9910TIP3   OH229672   0.045   0.626   0.128
 9910TIP3    H129673   0.066   0.686   0.057
 9910TIP3    H229674  -0.018   0.565   0.091
 9911TIP3   OH229675   1.906   5.782   3.807
 9911TIP3    H129676   1.991   5.825   3.799
 9911TIP3    H229677   1.926   5.689   3.808
 9912TIP3   OH229678   6.273   6.117   3.761
 9912TIP3    H129679   6.327   6.148   3.834
 9912TIP3    H229680   6.280   6.186   3.696
 9913TIP3   OH229681   3.970   1.857   6.433
 9913TIP3    H129682   3.900   1.899   6.383
 9913TIP3    H229683   3.933   1.773   6.460
 9914TIP3   OH229684   5.377   5.099   4.339
 9914TIP3    H129685   5.318   5.035   4.378
 9914TIP3    H229686   5.442   5.046   4.292
 9915TIP3   OH229687   2.914   6.955   0.017
 9915TIP3    H129688   2.926   6.972   0.111
 9915TIP3    H229689   2.904   6.860   0.011
 9916TIP3   OH229690   3.635   0.713   6.367
 9916TIP3    H129691   3.720   0.711   6.411
 9916TIP3    H229692   3.653   0.752   6.281
 9917TIP3   OH229693   6.444   1.841   4.140
 9917TIP3    H129694   6.461   1.838   4.234
 9917TIP3    H229695   6.365   1.894   4.131
 9918TIP3   OH229696   7.100   3.251   5.054
 9918TIP3    H129697   7.113   3.252   5.149
 9918TIP3    H229698   7.069   3.163   5.036
 9919TIP3   OH229699   1.873   4.837   0.179
 9919TIP3    H129700   1.919   4.880   0.107
 9919TIP3    H229701   1.941   4.816   0.243
 9920TIP3   OH229702   2.273   2.405   5.258
 9920TIP3    H129703   2.362   2.400   5.223
 9920TIP3    H229704   2.240   2.490   5.229
 9921TIP3   OH229705   0.777   1.439   0.682
 9921TIP3    H129706   0.707   1.503   0.677
 9921TIP3    H229707   0.762   1.380   0.608
 9922TIP3   OH229708   6.599   6.283   5.971
 9922TIP3    H129709   6.693   6.298   5.974
 9922TIP3    H229710   6.573   6.311   5.883
 9923TIP3   OH229711   2.751   7.266   2.357
 9923TIP3    H129712   2.687   7.325   2.398
 9923TIP3    H229713   2.702   7.224   2.286
 9924TIP3   OH229714   0.215   0.854   1.052
 9924TIP3    H129715   0.238   0.873   0.961
 9924TIP3    H229716   0.294   0.812   1.088
 9925TIP3   OH229717   1.845   5.302   4.103
 9925TIP3    H129718   1.939   5.316   4.114
 9925TIP3    H229719   1.825   5.228   4.160
 9926TIP3   OH229720   6.901   7.127   1.085
 9926TIP3    H129721   6.891   7.175   1.168
 9926TIP3    H229722   6.995   7.121   1.072
 9927TIP3   OH229723   8.230   2.484   2.804
 9927TIP3    H129724   8.304   2.521   2.754
 9927TIP3    H229725   8.188   2.560   2.844
 9928TIP3   OH229726   4.830   2.985   1.684
 9928TIP3    H129727   4.749   2.970   1.733
 9928TIP3    H229728   4.874   2.900   1.682
 9929TIP3   OH229729   3.058   6.703   3.902
 9929TIP3    H129730   3.057   6.648   3.824
 9929TIP3    H229731   2.967   6.726   3.917
 9930TIP3   OH229732   1.972   5.152   5.870
 9930TIP3    H129733   2.022   5.199   5.937
 9930TIP3    H229734   1.880   5.174   5.889
 9931TIP3   OH229735   1.873   1.409   5.192
 9931TIP3    H129736   1.797   1.462   5.167
 9931TIP3    H229737   1.834   1.327   5.224
 9932TIP3   OH229738   0.839   3.922   5.534
 9932TIP3    H129739   0.820   3.901   5.625
 9932TIP3    H229740   0.854   4.017   5.534
 9933TIP3   OH229741   6.641   7.793   0.646
 9933TIP3    H129742   6.548   7.812   0.649
 9933TIP3    H229743   6.683   7.879   0.644
 9934TIP3   OH229744   6.256   7.337   2.226
 9934TIP3    H129745   6.181   7.279   2.244
 9934TIP3    H229746   6.324   7.309   2.286
 9935TIP3   OH229747   0.406   7.407   2.642
 9935TIP3    H129748   0.330   7.430   2.588
 9935TIP3    H229749   0.460   7.352   2.584
 9936TIP3   OH229750   5.341   0.986   3.674
 9936TIP3    H129751   5.297   0.971   3.590
 9936TIP3    H229752   5.402   0.913   3.683
 9937TIP3   OH229753   5.666   3.490   1.060
 9937TIP3    H129754   5.629   3.500   0.972
 9937TIP3    H229755   5.620   3.414   1.096
 9938TIP3   OH229756   4.029   7.782   1.012
 9938TIP3    H129757   4.116   7.821   1.001
 9938TIP3    H229758   4.023   7.762   1.106
 9939TIP3   OH229759   1.822   2.932   2.461
 9939TIP3    H129760   1.811   2.841   2.489
 9939TIP3    H229761   1.764   2.982   2.518
 9940TIP3   OH229762   2.769   6.414   5.338
 9940TIP3    H129763   2.826   6.350   5.294
 9940TIP3    H229764   2.800   6.416   5.428
 9941TIP3   OH229765   0.994   6.378   4.658
 9941TIP3    H129766   0.920   6.392   4.717
 9941TIP3    H229767   0.970   6.300   4.608
 9942TIP3   OH229768   1.307   7.193   2.426
 9942TIP3    H129769   1.309   7.267   2.486
 9942TIP3    H229770   1.231   7.142   2.453
 9943TIP3   OH229771   1.783   0.377   3.506
 9943TIP3    H129772   1.722   0.364   3.433
 9943TIP3    H229773   1.859   0.323   3.483
 9944TIP3   OH229774   0.110   7.748   5.383
 9944TIP3    H129775   0.074   7.809   5.447
 9944TIP3    H229776   0.195   7.723   5.419
 9945TIP3   OH229777   5.125   1.452   0.455
 9945TIP3    H129778   5.217   1.443   0.478
 9945TIP3    H229779   5.078   1.421   0.532
 9946TIP3   OH229780   1.277   3.444   3.287
 9946TIP3    H129781   1.188   3.478   3.281
 9946TIP3    H229782   1.328   3.498   3.227
 9947TIP3   OH229783   0.872   6.026   2.944
 9947TIP3    H129784   0.935   6.098   2.942
 9947TIP3    H229785   0.786   6.069   2.949
 9948TIP3   OH229786   2.356   4.405   5.197
 9948TIP3    H129787   2.395   4.482   5.156
 9948TIP3    H229788   2.368   4.335   5.133
 9949TIP3   OH229789   0.886   1.029   3.673
 9949TIP3    H129790   0.922   0.977   3.601
 9949TIP3    H229791   0.911   0.981   3.752
 9950TIP3   OH229792   3.113   5.502   1.203
 9950TIP3    H129793   3.144   5.503   1.112
 9950TIP3    H229794   3.069   5.586   1.214
 9951TIP3   OH229795   6.229   5.414   6.120
 9951TIP3    H129796   6.162   5.475   6.152
 9951TIP3    H229797   6.310   5.465   6.119
 9952TIP3   OH229798   5.149   3.428   0.737
 9952TIP3    H129799   5.104   3.466   0.813
 9952TIP3    H229800   5.139   3.493   0.668
 9953TIP3   OH229801   4.441   2.808   1.828
 9953TIP3    H129802   4.492   2.889   1.827
 9953TIP3    H229803   4.503   2.740   1.852
 9954TIP3   OH229804   1.511   6.854   3.120
 9954TIP3    H129805   1.437   6.914   3.130
 9954TIP3    H229806   1.585   6.910   3.095
 9955TIP3   OH229807   2.811   1.362   6.002
 9955TIP3    H129808   2.844   1.444   5.964
 9955TIP3    H229809   2.883   1.300   5.990
 9956TIP3   OH229810   1.091   0.669   2.547
 9956TIP3    H129811   1.042   0.747   2.573
 9956TIP3    H229812   1.180   0.700   2.535
 9957TIP3   OH229813   2.278   3.595   6.655
 9957TIP3    H129814   2.339   3.638   6.595
 9957TIP3    H229815   2.317   3.509   6.671
 9958TIP3   OH229816   3.493   0.809   3.106
 9958TIP3    H129817   3.543   0.887   3.129
 9958TIP3    H229818   3.401   0.838   3.106
 9959TIP3   OH229819   4.103   7.713   0.159
 9959TIP3    H129820   4.146   7.629   0.143
 9959TIP3    H229821   4.098   7.719   0.255
 9960TIP3   OH229822   2.190   7.451   5.679
 9960TIP3    H129823   2.191   7.533   5.727
 9960TIP3    H229824   2.142   7.470   5.598
 9961TIP3   OH229825   2.537   2.349   4.408
 9961TIP3    H129826   2.572   2.324   4.493
 9961TIP3    H229827   2.595   2.308   4.345
 9962TIP3   OH229828   2.257   5.562   1.147
 9962TIP3    H129829   2.266   5.483   1.095
 9962TIP3    H229830   2.346   5.593   1.161
 9963TIP3   OH229831   4.716   1.674   3.375
 9963TIP3    H129832   4.725   1.615   3.450
 9963TIP3    H229833   4.633   1.719   3.388
 9964TIP3   OH229834   5.898   1.366   4.454
 9964TIP3    H129835   5.832   1.385   4.520
 9964TIP3    H229836   5.926   1.276   4.473
 9965TIP3   OH229837   0.461   0.647   4.697
 9965TIP3    H129838   0.374   0.686   4.689
 9965TIP3    H229839   0.520   0.721   4.709
 9966TIP3   OH229840   3.511   3.718   0.906
 9966TIP3    H129841   3.447   3.785   0.880
 9966TIP3    H229842   3.500   3.648   0.842
 9967TIP3   OH229843   0.659   4.350   2.673
 9967TIP3    H129844   0.696   4.395   2.750
 9967TIP3    H229845   0.568   4.378   2.670
 9968TIP3   OH229846   4.360   6.180   1.830
 9968TIP3    H129847   4.311   6.114   1.781
 9968TIP3    H229848   4.447   6.142   1.841
 9969TIP3   OH229849   5.608   0.290   1.555
 9969TIP3    H129850   5.604   0.214   1.613
 9969TIP3    H229851   5.548   0.354   1.594
 9970TIP3   OH229852   1.938   4.897   6.177
 9970TIP3    H129853   2.009   4.844   6.214
 9970TIP3    H229854   1.859   4.847   6.194
 9971TIP3   OH229855   2.662   6.259   1.519
 9971TIP3    H129856   2.616   6.328   1.471
 9971TIP3    H229857   2.675   6.295   1.607
 9972TIP3   OH229858   2.424   4.868   6.315
 9972TIP3    H129859   2.479   4.909   6.381
 9972TIP3    H229860   2.473   4.878   6.233
 9973TIP3   OH229861   6.382   2.511   3.065
 9973TIP3    H129862   6.295   2.471   3.062
 9973TIP3    H229863   6.433   2.453   3.122
 9974TIP3   OH229864   6.772   3.093   3.870
 9974TIP3    H129865   6.813   3.008   3.851
 9974TIP3    H229866   6.845   3.153   3.882
 9975TIP3   OH229867   0.260   1.948   5.079
 9975TIP3    H129868   0.242   2.017   5.143
 9975TIP3    H229869   0.217   1.870   5.114
 9976TIP3   OH229870   5.569   1.601   2.931
 9976TIP3    H129871   5.569   1.677   2.873
 9976TIP3    H229872   5.519   1.534   2.884
 9977TIP3   OH229873   1.314   2.454   2.643
 9977TIP3    H129874   1.400   2.425   2.613
 9977TIP3    H229875   1.254   2.428   2.573
 9978TIP3   OH229876   3.098   1.186   0.654
 9978TIP3    H129877   3.109   1.225   0.568
 9978TIP3    H229878   3.188   1.167   0.683
 9979TIP3   OH229879   7.326   6.218   5.984
 9979TIP3    H129880   7.356   6.135   6.021
 9979TIP3    H229881   7.265   6.192   5.914
 9980TIP3   OH229882   0.075   3.807   3.302
 9980TIP3    H129883   0.014   3.768   3.364
 9980TIP3    H229884   0.114   3.733   3.256
 9981TIP3   OH229885   0.207   2.827   2.375
 9981TIP3    H129886   0.130   2.846   2.322
 9981TIP3    H229887   0.210   2.732   2.381
 9982TIP3   OH229888   7.789   4.258   3.026
 9982TIP3    H129889   7.859   4.318   3.002
 9982TIP3    H229890   7.732   4.309   3.084
 9983TIP3   OH229891   5.412   2.350   2.367
 9983TIP3    H129892   5.495   2.364   2.411
 9983TIP3    H229893   5.383   2.264   2.397
 9984TIP3   OH229894   0.328   7.691   0.724
 9984TIP3    H129895   0.341   7.715   0.633
 9984TIP3    H229896   0.269   7.615   0.721
 9985TIP3   OH229897   5.612   4.533   6.020
 9985TIP3    H129898   5.651   4.592   6.084
 9985TIP3    H229899   5.562   4.591   5.962
 9986TIP3   OH229900   8.014   2.529   3.533
 9986TIP3    H129901   7.923   2.561   3.534
 9986TIP3    H229902   8.006   2.434   3.527
 9987TIP3   OH229903   7.164   4.414   5.237
 9987TIP3    H129904   7.175   4.320   5.255
 9987TIP3    H229905   7.103   4.418   5.164
 9988TIP3   OH229906   2.792   1.496   6.408
 9988TIP3    H129907   2.870   1.493   6.352
 9988TIP3    H229908   2.753   1.582   6.391
 9989TIP3   OH229909   2.877   5.716   6.267
 9989TIP3    H129910   2.889   5.644   6.328
 9989TIP3    H229911   2.791   5.753   6.290
 9990TIP3   OH229912   7.376   6.088   3.818
 9990TIP3    H129913   7.431   6.108   3.743
 9990TIP3    H229914   7.417   6.134   3.891
 9991TIP3   OH229915   0.092   4.039   5.380
 9991TIP3    H129916   0.158   4.026   5.448
 9991TIP3    H229917   0.026   3.973   5.398
 9992TIP3   OH229918   3.675   0.540   4.174
 9992TIP3    H129919   3.579   0.537   4.172
 9992TIP3    H229920   3.698   0.607   4.110
 9993TIP3   OH229921   6.581   7.497   0.777
 9993TIP3    H129922   6.573   7.546   0.859
 9993TIP3    H229923   6.618   7.412   0.803
 9994TIP3   OH229924   0.425   4.893   0.851
 9994TIP3    H129925   0.387   4.817   0.807
 9994TIP3    H229926   0.367   4.966   0.827
 9995TIP3   OH229927   2.855   3.288   5.125
 9995TIP3    H129928   2.924   3.325   5.180
 9995TIP3    H229929   2.897   3.272   5.040
 9996TIP3   OH229930   0.768   6.921   3.307
 9996TIP3    H129931   0.856   6.910   3.270
 9996TIP3    H229932   0.734   6.832   3.316
 9997TIP3   OH229933   5.646   1.903   6.356
 9997TIP3    H129934   5.736   1.931   6.342
 9997TIP3    H229935   5.646   1.809   6.334
 9998TIP3   OH229936   6.889   2.842   1.151
 9998TIP3    H129937   6.921   2.872   1.066
 9998TIP3    H229938   6.907   2.914   1.211
 9999TIP3   OH229939   0.965   2.542   4.498
 9999TIP3    H129940   1.049   2.581   4.478
 9999TIP3    H229941   0.946   2.568   4.588
10000TIP3   OH229942   8.158   3.440   4.383
10000TIP3    H129943   8.130   3.447   4.291
10000TIP3    H229944   8.186   3.529   4.406
10001TIP3   OH229945   5.843   3.068   5.776
10001TIP3    H129946   5.839   3.132   5.704
10001TIP3    H229947   5.845   2.983   5.733
10002TIP3   OH229948   7.571   5.961   1.583
10002TIP3    H129949   7.599   5.872   1.564
10002TIP3    H229950   7.642   5.998   1.635
10003TIP3   OH229951   4.755   3.846   6.411
10003TIP3    H129952   4.731   3.795   6.334
10003TIP3    H229953   4.735   3.937   6.387
10004TIP3   OH229954   5.422   5.051   5.358
10004TIP3    H129955   5.334   5.073   5.330
10004TIP3    H229956   5.440   5.109   5.432
10005TIP3   OH229957  -0.012   5.831   3.248
10005TIP3    H129958   0.037   5.804   3.171
10005TIP3    H229959   0.043   5.897   3.290
10006TIP3   OH229960   5.400   3.028   4.126
10006TIP3    H129961   5.347   3.076   4.190
10006TIP3    H229962   5.343   3.020   4.050
10007TIP3   OH229963   4.088   0.812   3.812
10007TIP3    H129964   4.172   0.766   3.821
10007TIP3    H229965   4.034   0.754   3.758
10008TIP3   OH229966   4.428   2.065   0.049
10008TIP3    H129967   4.336   2.054   0.071
10008TIP3    H229968   4.436   2.031  -0.040
10009TIP3   OH229969   7.832   7.384   3.303
10009TIP3    H129970   7.744   7.388   3.341
10009TIP3    H229971   7.880   7.456   3.345
10010TIP3   OH229972   0.888   5.058   6.661
10010TIP3    H129973   0.869   5.024   6.573
10010TIP3    H229974   0.984   5.057   6.667
10011TIP3   OH229975   7.298   3.074   2.917
10011TIP3    H129976   7.290   2.981   2.939
10011TIP3    H229977   7.228   3.090   2.854
10012TIP3   OH229978   8.247   0.428   4.097
10012TIP3    H129979   8.323   0.370   4.098
10012TIP3    H229980   8.173   0.372   4.122
10013TIP3   OH229981   5.798   1.043   1.717
10013TIP3    H129982   5.870   1.004   1.668
10013TIP3    H229983   5.724   1.041   1.657
10014TIP3   OH229984   6.696   2.372   3.487
10014TIP3    H129985   6.674   2.296   3.540
10014TIP3    H229986   6.655   2.446   3.533
10015TIP3   OH229987   0.580   0.358   3.487
10015TIP3    H129988   0.653   0.419   3.486
10015TIP3    H229989   0.595   0.301   3.412
10016TIP3   OH229990   8.191   5.835   2.969
10016TIP3    H129991   8.168   5.811   2.879
10016TIP3    H229992   8.280   5.801   2.981
10017TIP3   OH229993   7.990   6.683   4.467
10017TIP3    H129994   8.075   6.720   4.442
10017TIP3    H229995   7.929   6.756   4.454
10018TIP3   OH229996   7.250   4.267   2.110
10018TIP3    H129997   7.315   4.337   2.108
10018TIP3    H229998   7.213   4.265   2.022
10019TIP3   OH229999   6.955   5.279   2.362
10019TIP3    H130000   7.035   5.327   2.343
10019TIP3    H230001   6.896   5.343   2.401
10020TIP3   OH230002   6.605   6.510   6.366
10020TIP3    H130003   6.545   6.470   6.428
10020TIP3    H230004   6.625   6.596   6.403
10021TIP3   OH230005   3.486   3.843   3.025
10021TIP3    H130006   3.418   3.900   3.062
10021TIP3    H230007   3.499   3.876   2.937
10022TIP3   OH230008   0.611   3.240   5.446
10022TIP3    H130009   0.647   3.218   5.532
10022TIP3    H230010   0.555   3.316   5.463
10023TIP3   OH230011   4.056   7.748   1.847
10023TIP3    H130012   3.963   7.760   1.828
10023TIP3    H230013   4.058   7.710   1.935
10024TIP3   OH230014   3.407   5.525   0.365
10024TIP3    H130015   3.414   5.432   0.343
10024TIP3    H230016   3.472   5.538   0.434
10025TIP3   OH230017   4.625   4.299   4.655
10025TIP3    H130018   4.663   4.319   4.741
10025TIP3    H230019   4.649   4.373   4.600
10026TIP3   OH230020   1.468   7.638   4.024
10026TIP3    H130021   1.530   7.566   4.021
10026TIP3    H230022   1.485   7.687   3.943
10027TIP3   OH230023   7.880   5.681   1.004
10027TIP3    H130024   7.926   5.733   0.939
10027TIP3    H230025   7.949   5.636   1.053
10028TIP3   OH230026   6.235   3.974   4.224
10028TIP3    H130027   6.162   3.917   4.252
10028TIP3    H230028   6.294   3.915   4.178
10029TIP3   OH230029   0.521   5.318   1.101
10029TIP3    H130030   0.553   5.282   1.019
10029TIP3    H230031   0.463   5.390   1.075
10030TIP3   OH230032   0.196   0.656   4.508
10030TIP3    H130033   0.138   0.682   4.437
10030TIP3    H230034   0.217   0.738   4.553
10031TIP3   OH230035   7.548   2.164   0.750
10031TIP3    H130036   7.622   2.112   0.720
10031TIP3    H230037   7.501   2.188   0.669
10032TIP3   OH230038   7.627   0.802   4.151
10032TIP3    H130039   7.675   0.857   4.090
10032TIP3    H230040   7.597   0.862   4.219
10033TIP3   OH230041   3.246   6.499   4.912
10033TIP3    H130042   3.195   6.419   4.899
10033TIP3    H230043   3.244   6.513   5.007
10034TIP3   OH230044   7.661   3.332   2.089
10034TIP3    H130045   7.659   3.418   2.130
10034TIP3    H230046   7.608   3.276   2.146
10035TIP3   OH230047   5.796   6.871   2.480
10035TIP3    H130048   5.821   6.839   2.394
10035TIP3    H230049   5.877   6.865   2.533
10036TIP3   OH230050   7.602   6.548   1.801
10036TIP3    H130051   7.569   6.488   1.735
10036TIP3    H230052   7.673   6.501   1.844
10037TIP3   OH230053   5.718   6.504   1.600
10037TIP3    H130054   5.792   6.543   1.553
10037TIP3    H230055   5.662   6.468   1.531
10038TIP3   OH230056   6.608   5.438   5.734
10038TIP3    H130057   6.685   5.419   5.681
10038TIP3    H230058   6.643   5.483   5.812
10039TIP3   OH230059   2.234   4.657   5.936
10039TIP3    H130060   2.262   4.632   5.848
10039TIP3    H230061   2.219   4.751   5.931
10040TIP3   OH230062   7.440   5.085   5.416
10040TIP3    H130063   7.513   5.130   5.374
10040TIP3    H230064   7.369   5.091   5.353
10041TIP3   OH230065   0.463   4.234   4.224
10041TIP3    H130066   0.388   4.258   4.278
10041TIP3    H230067   0.443   4.269   4.137
10042TIP3   OH230068   5.199   1.653   3.783
10042TIP3    H130069   5.106   1.656   3.803
10042TIP3    H230070   5.223   1.561   3.789
10043TIP3   OH230071   2.067   0.622   5.638
10043TIP3    H130072   2.154   0.635   5.676
10043TIP3    H230073   2.007   0.635   5.711
10044TIP3   OH230074   8.127   6.449   3.573
10044TIP3    H130075   8.083   6.494   3.500
10044TIP3    H230076   8.216   6.434   3.541
10045TIP3   OH230077   1.469   4.515   3.076
10045TIP3    H130078   1.373   4.520   3.075
10045TIP3    H230079   1.488   4.439   3.131
10046TIP3   OH230080   6.109   5.367   5.859
10046TIP3    H130081   6.178   5.302   5.872
10046TIP3    H230082   6.154   5.452   5.864
10047TIP3   OH230083   1.245   5.982   4.267
10047TIP3    H130084   1.326   5.935   4.286
10047TIP3    H230085   1.235   6.042   4.341
10048TIP3   OH230086   6.846   2.126   2.135
10048TIP3    H130087   6.854   2.036   2.105
10048TIP3    H230088   6.919   2.172   2.094
10049TIP3   OH230089   5.632   3.847   3.947
10049TIP3    H130090   5.618   3.755   3.967
10049TIP3    H230091   5.551   3.875   3.904
10050TIP3   OH230092   0.465   6.692   1.568
10050TIP3    H130093   0.539   6.637   1.542
10050TIP3    H230094   0.466   6.764   1.505
10051TIP3   OH230095   7.845   3.932   3.791
10051TIP3    H130096   7.769   3.874   3.790
10051TIP3    H230097   7.910   3.887   3.737
10052TIP3   OH230098   3.906   1.888   0.410
10052TIP3    H130099   3.977   1.923   0.463
10052TIP3    H230100   3.936   1.897   0.319
10053TIP3   OH230101   4.985   4.779   1.687
10053TIP3    H130102   5.059   4.785   1.626
10053TIP3    H230103   4.977   4.686   1.707
10054TIP3   OH230104   4.825   5.909   1.622
10054TIP3    H130105   4.856   5.822   1.647
10054TIP3    H230106   4.842   5.964   1.699
10055TIP3   OH230107   1.109   3.814   4.220
10055TIP3    H130108   1.150   3.858   4.145
10055TIP3    H230109   1.110   3.721   4.196
10056TIP3   OH230110   4.778   3.125   5.380
10056TIP3    H130111   4.778   3.172   5.463
10056TIP3    H230112   4.791   3.033   5.404
10057TIP3   OH230113   8.096   2.038   0.453
10057TIP3    H130114   8.085   2.026   0.358
10057TIP3    H230115   8.055   2.122   0.471
10058TIP3   OH230116   3.873   7.602   3.767
10058TIP3    H130117   3.835   7.536   3.825
10058TIP3    H230118   3.956   7.563   3.737
10059TIP3   OH230119   3.431   5.089   2.790
10059TIP3    H130120   3.480   5.015   2.753
10059TIP3    H230121   3.345   5.083   2.748
10060TIP3   OH230122   1.863   3.835   0.061
10060TIP3    H130123   1.875   3.886   0.141
10060TIP3    H230124   1.851   3.901  -0.007
10061TIP3   OH230125   5.129   3.250   5.795
10061TIP3    H130126   5.126   3.338   5.834
10061TIP3    H230127   5.160   3.264   5.706
10062TIP3   OH230128   2.021   7.353   0.668
10062TIP3    H130129   2.069   7.417   0.614
10062TIP3    H230130   2.042   7.268   0.629
10063TIP3   OH230131   4.730   3.430   1.317
10063TIP3    H130132   4.673   3.357   1.342
10063TIP3    H230133   4.774   3.400   1.238
10064TIP3   OH230134   3.690   4.415   2.686
10064TIP3    H130135   3.668   4.364   2.764
10064TIP3    H230136   3.722   4.350   2.624
10065TIP3   OH230137   1.126   3.864   0.100
10065TIP3    H130138   1.067   3.897   0.032
10065TIP3    H230139   1.095   3.905   0.181
10066TIP3   OH230140   4.951   7.282   4.147
10066TIP3    H130141   5.008   7.319   4.214
10066TIP3    H230142   4.943   7.351   4.081
10067TIP3   OH230143   3.980   7.650   1.226
10067TIP3    H130144   3.942   7.687   1.306
10067TIP3    H230145   3.921   7.580   1.201
10068TIP3   OH230146   5.897   4.926   4.025
10068TIP3    H130147   5.842   4.916   3.948
10068TIP3    H230148   5.973   4.869   4.008
10069TIP3   OH230149   2.113   5.411   1.775
10069TIP3    H130150   2.199   5.450   1.761
10069TIP3    H230151   2.131   5.319   1.793
10070TIP3   OH230152   6.234   3.701   1.387
10070TIP3    H130153   6.293   3.717   1.461
10070TIP3    H230154   6.155   3.751   1.407
10071TIP3   OH230155   1.791   7.568   1.744
10071TIP3    H130156   1.842   7.518   1.680
10071TIP3    H230157   1.701   7.561   1.713
10072TIP3   OH230158   4.477   7.457   1.688
10072TIP3    H130159   4.411   7.477   1.754
10072TIP3    H230160   4.551   7.420   1.737
10073TIP3   OH230161   2.221   5.258   6.425
10073TIP3    H130162   2.206   5.163   6.424
10073TIP3    H230163   2.138   5.296   6.396
10074TIP3   OH230164   5.064   6.299   0.347
10074TIP3    H130165   5.044   6.310   0.254
10074TIP3    H230166   5.107   6.213   0.352
10075TIP3   OH230167   1.266   0.047   5.247
10075TIP3    H130168   1.220  -0.030   5.279
10075TIP3    H230169   1.229   0.120   5.297
10076TIP3   OH230170   4.684   4.922   3.028
10076TIP3    H130171   4.603   4.901   3.074
10076TIP3    H230172   4.752   4.873   3.074
10077TIP3   OH230173   5.065   6.397   2.099
10077TIP3    H130174   5.054   6.490   2.120
10077TIP3    H230175   4.977   6.365   2.085
10078TIP3   OH230176   3.804   6.164   3.942
10078TIP3    H130177   3.825   6.225   3.870
10078TIP3    H230178   3.717   6.190   3.971
10079TIP3   OH230179   7.412   2.432   1.361
10079TIP3    H130180   7.388   2.375   1.287
10079TIP3    H230181   7.328   2.454   1.403
10080TIP3   OH230182   7.972   7.079   3.782
10080TIP3    H130183   7.982   7.125   3.699
10080TIP3    H230184   8.058   7.082   3.822
10081TIP3   OH230185   4.730   3.038   6.444
10081TIP3    H130186   4.677   3.014   6.368
10081TIP3    H230187   4.708   2.972   6.510
10082TIP3   OH230188   5.129   4.661   2.548
10082TIP3    H130189   5.143   4.636   2.457
10082TIP3    H230190   5.213   4.699   2.575
10083TIP3   OH230191   2.147   7.100   5.942
10083TIP3    H130192   2.175   7.106   5.850
10083TIP3    H230193   2.130   7.190   5.969
10084TIP3   OH230194   3.550   5.014   3.425
10084TIP3    H130195   3.572   5.013   3.332
10084TIP3    H230196   3.632   4.990   3.468
10085TIP3   OH230197   2.548   6.057   5.844
10085TIP3    H130198   2.506   6.012   5.771
10085TIP3    H230199   2.544   6.150   5.821
10086TIP3   OH230200   1.506   3.004   0.801
10086TIP3    H130201   1.594   3.037   0.816
10086TIP3    H230202   1.516   2.908   0.797
10087TIP3   OH230203   5.612   4.900   6.106
10087TIP3    H130204   5.524   4.872   6.133
10087TIP3    H230205   5.651   4.935   6.186
10088TIP3   OH230206   3.670   5.158   6.332
10088TIP3    H130207   3.723   5.122   6.261
10088TIP3    H230208   3.635   5.240   6.296
10089TIP3   OH230209   3.964   2.318   1.635
10089TIP3    H130210   4.053   2.293   1.660
10089TIP3    H230211   3.910   2.244   1.664
10090TIP3   OH230212   4.863   7.248   5.198
10090TIP3    H130213   4.953   7.217   5.208
10090TIP3    H230214   4.852   7.261   5.104
10091TIP3   OH230215   6.500   6.754   5.502
10091TIP3    H130216   6.458   6.755   5.588
10091TIP3    H230217   6.443   6.700   5.448
10092TIP3   OH230218   6.999   7.804   6.373
10092TIP3    H130219   6.977   7.723   6.418
10092TIP3    H230220   6.974   7.788   6.282
10093TIP3   OH230221   1.891   3.611   0.831
10093TIP3    H130222   1.943   3.546   0.785
10093TIP3    H230223   1.813   3.622   0.777
10094TIP3   OH230224   4.067   6.677   2.050
10094TIP3    H130225   4.039   6.688   1.959
10094TIP3    H230226   4.071   6.582   2.062
10095TIP3   OH230227   1.162   2.303   1.416
10095TIP3    H130228   1.070   2.285   1.397
10095TIP3    H230229   1.207   2.223   1.391
10096TIP3   OH230230   3.657   4.800   5.204
10096TIP3    H130231   3.589   4.796   5.137
10096TIP3    H230232   3.738   4.810   5.154
10097TIP3   OH230233   1.332   7.748   2.234
10097TIP3    H130234   1.366   7.749   2.323
10097TIP3    H230235   1.397   7.701   2.183
10098TIP3   OH230236   1.123   0.821   0.139
10098TIP3    H130237   1.084   0.810   0.053
10098TIP3    H230238   1.213   0.789   0.129
10099TIP3   OH230239   3.007   4.585   5.926
10099TIP3    H130240   3.033   4.538   5.847
10099TIP3    H230241   2.911   4.581   5.926
10100TIP3   OH230242   3.820   2.485   3.940
10100TIP3    H130243   3.837   2.450   4.027
10100TIP3    H230244   3.792   2.409   3.889
10101TIP3   OH230245   3.650   7.240   6.559
10101TIP3    H130246   3.637   7.334   6.565
10101TIP3    H230247   3.687   7.215   6.643
10102TIP3   OH230248   3.166   6.489   4.433
10102TIP3    H130249   3.113   6.486   4.353
10102TIP3    H230250   3.127   6.422   4.489
10103TIP3   OH230251   3.180   4.591   4.932
10103TIP3    H130252   3.106   4.643   4.901
10103TIP3    H230253   3.215   4.642   5.006
10104TIP3   OH230254   2.137   6.312   3.974
10104TIP3    H130255   2.049   6.285   4.001
10104TIP3    H230256   2.124   6.353   3.888
10105TIP3   OH230257   5.815   0.375   4.612
10105TIP3    H130258   5.854   0.307   4.557
10105TIP3    H230259   5.887   0.406   4.668
10106TIP3   OH230260   8.057   7.683   1.169
10106TIP3    H130261   8.059   7.612   1.233
10106TIP3    H230262   7.995   7.653   1.103
10107TIP3   OH230263   3.805   2.392   2.702
10107TIP3    H130264   3.719   2.399   2.743
10107TIP3    H230265   3.786   2.360   2.614
10108TIP3   OH230266   1.872   0.652   5.093
10108TIP3    H130267   1.910   0.689   5.173
10108TIP3    H230268   1.789   0.699   5.083
10109TIP3   OH230269   6.485   3.198   4.548
10109TIP3    H130270   6.477   3.114   4.593
10109TIP3    H230271   6.555   3.185   4.484
10110TIP3   OH230272   6.806   4.410   4.774
10110TIP3    H130273   6.809   4.322   4.735
10110TIP3    H230274   6.886   4.452   4.743
10111TIP3   OH230275   1.346   0.933   5.290
10111TIP3    H130276   1.427   0.979   5.311
10111TIP3    H230277   1.365   0.841   5.310
10112TIP3   OH230278   1.997   2.186   4.092
10112TIP3    H130279   2.002   2.253   4.024
10112TIP3    H230280   2.009   2.103   4.046
10113TIP3   OH230281   4.962   0.516   0.915
10113TIP3    H130282   4.951   0.455   0.842
10113TIP3    H230283   5.001   0.463   0.985
10114TIP3   OH230284   3.073   1.874   0.282
10114TIP3    H130285   3.168   1.886   0.286
10114TIP3    H230286   3.046   1.924   0.205
10115TIP3   OH230287   7.399   7.784   4.353
10115TIP3    H130288   7.394   7.880   4.360
10115TIP3    H230289   7.418   7.755   4.443
10116TIP3   OH230290   8.013   3.817   6.089
10116TIP3    H130291   8.039   3.730   6.118
10116TIP3    H230292   8.094   3.857   6.058
10117TIP3   OH230293   5.860   0.972   2.244
10117TIP3    H130294   5.801   0.943   2.174
10117TIP3    H230295   5.881   1.063   2.223
10118TIP3   OH230296   4.292   0.115   6.171
10118TIP3    H130297   4.375   0.073   6.193
10118TIP3    H230298   4.311   0.209   6.176
10119TIP3   OH230299   5.511   6.500   5.247
10119TIP3    H130300   5.573   6.467   5.312
10119TIP3    H230301   5.553   6.480   5.163
10120TIP3   OH230302   6.406   6.382   1.629
10120TIP3    H130303   6.339   6.316   1.618
10120TIP3    H230304   6.472   6.341   1.684
10121TIP3   OH230305   2.123   4.579   2.898
10121TIP3    H130306   2.167   4.493   2.900
10121TIP3    H230307   2.050   4.566   2.837
10122TIP3   OH230308   4.887   3.245   3.589
10122TIP3    H130309   4.849   3.292   3.663
10122TIP3    H230310   4.878   3.153   3.612
10123TIP3   OH230311   5.244   2.974   5.243
10123TIP3    H130312   5.226   3.036   5.314
10123TIP3    H230313   5.167   2.978   5.186
10124TIP3   OH230314   6.345   3.076   1.449
10124TIP3    H130315   6.364   3.095   1.357
10124TIP3    H230316   6.355   3.161   1.493
10125TIP3   OH230317   1.296   7.561   1.463
10125TIP3    H130318   1.222   7.543   1.521
10125TIP3    H230319   1.266   7.634   1.409
10126TIP3   OH230320   5.857   0.573   0.589
10126TIP3    H130321   5.790   0.506   0.575
10126TIP3    H230322   5.908   0.574   0.508
10127TIP3   OH230323   6.680   5.046   2.876
10127TIP3    H130324   6.678   5.023   2.783
10127TIP3    H230325   6.729   4.974   2.916
10128TIP3   OH230326   1.851   3.130   5.641
10128TIP3    H130327   1.816   3.048   5.605
10128TIP3    H230328   1.802   3.199   5.597
10129TIP3   OH230329   4.305   5.268   6.358
10129TIP3    H130330   4.344   5.284   6.444
10129TIP3    H230331   4.232   5.330   6.352
10130TIP3   OH230332   4.179   6.897   5.797
10130TIP3    H130333   4.224   6.837   5.857
10130TIP3    H230334   4.126   6.840   5.741
10131TIP3   OH230335   3.390   6.859   6.117
10131TIP3    H130336   3.351   6.909   6.045
10131TIP3    H230337   3.424   6.926   6.176
10132TIP3   OH230338   8.213   6.529   0.849
10132TIP3    H130339   8.142   6.537   0.913
10132TIP3    H230340   8.226   6.618   0.816
10133TIP3   OH230341   5.087   4.248   3.823
10133TIP3    H130342   5.106   4.339   3.845
10133TIP3    H230343   4.998   4.250   3.789
10134TIP3   OH230344   5.572   2.063   2.153
10134TIP3    H130345   5.592   1.971   2.132
10134TIP3    H230346   5.593   2.072   2.245
10135TIP3   OH230347   8.268   3.741   2.179
10135TIP3    H130348   8.197   3.687   2.215
10135TIP3    H230349   8.306   3.687   2.109
10136TIP3   OH230350   4.359   1.939   3.843
10136TIP3    H130351   4.424   1.988   3.892
10136TIP3    H230352   4.405   1.908   3.765
10137TIP3   OH230353   3.377   2.764   5.085
10137TIP3    H130354   3.291   2.761   5.044
10137TIP3    H230355   3.418   2.681   5.062
10138TIP3   OH230356   3.473   5.244   0.082
10138TIP3    H130357   3.489   5.284  -0.004
10138TIP3    H230358   3.560   5.221   0.114
10139TIP3   OH230359   8.095   6.773   0.756
10139TIP3    H130360   8.042   6.839   0.711
10139TIP3    H230361   8.120   6.815   0.838
10140TIP3   OH230362   2.825   0.172   3.815
10140TIP3    H130363   2.754   0.165   3.751
10140TIP3    H230364   2.835   0.083   3.848
10141TIP3   OH230365   6.897   0.320   5.025
10141TIP3    H130366   6.924   0.399   4.978
10141TIP3    H230367   6.805   0.335   5.047
10142TIP3   OH230368   5.642   6.946   0.181
10142TIP3    H130369   5.736   6.959   0.172
10142TIP3    H230370   5.606   7.035   0.186
10143TIP3   OH230371   1.942   5.935   5.098
10143TIP3    H130372   1.891   5.986   5.161
10143TIP3    H230373   2.028   5.978   5.097
10144TIP3   OH230374   0.189   2.666   4.219
10144TIP3    H130375   0.098   2.672   4.192
10144TIP3    H230376   0.234   2.733   4.167
10145TIP3   OH230377   7.801   7.622   2.260
10145TIP3    H130378   7.780   7.563   2.332
10145TIP3    H230379   7.880   7.585   2.221
10146TIP3   OH230380   2.011   0.606   6.156
10146TIP3    H130381   2.027   0.513   6.166
10146TIP3    H230382   2.062   0.631   6.079
10147TIP3   OH230383   5.349   2.290   4.579
10147TIP3    H130384   5.378   2.211   4.624
10147TIP3    H230385   5.339   2.264   4.488
10148TIP3   OH230386   1.678   4.473   0.234
10148TIP3    H130387   1.584   4.464   0.220
10148TIP3    H230388   1.687   4.480   0.329
10149TIP3   OH230389   7.441   0.445   1.683
10149TIP3    H130390   7.449   0.513   1.749
10149TIP3    H230391   7.372   0.387   1.716
10150TIP3   OH230392   4.576   4.344   4.137
10150TIP3    H130393   4.536   4.428   4.159
10150TIP3    H230394   4.647   4.366   4.076
10151TIP3   OH230395   5.297   4.824   2.681
10151TIP3    H130396   5.285   4.818   2.776
10151TIP3    H230397   5.391   4.814   2.668
10152TIP3   OH230398   3.725   5.986   0.801
10152TIP3    H130399   3.743   5.946   0.886
10152TIP3    H230400   3.728   6.081   0.817
10153TIP3   OH230401   7.095   2.576   5.616
10153TIP3    H130402   7.129   2.568   5.527
10153TIP3    H230403   7.173   2.585   5.671
10154TIP3   OH230404   2.083   3.844   0.795
10154TIP3    H130405   2.009   3.791   0.825
10154TIP3    H230406   2.077   3.925   0.847
10155TIP3   OH230407   1.930   1.867   1.085
10155TIP3    H130408   1.840   1.863   1.117
10155TIP3    H230409   1.956   1.958   1.098
10156TIP3   OH230410   3.285   0.483   5.230
10156TIP3    H130411   3.363   0.437   5.199
10156TIP3    H230412   3.314   0.573   5.243
10157TIP3   OH230413   1.879   1.987   1.828
10157TIP3    H130414   1.913   2.070   1.792
10157TIP3    H230415   1.923   1.978   1.912
10158TIP3   OH230416   4.621   4.837   0.164
10158TIP3    H130417   4.628   4.879   0.250
10158TIP3    H230418   4.711   4.832   0.132
10159TIP3   OH230419   4.647   4.569   5.709
10159TIP3    H130420   4.624   4.647   5.657
10159TIP3    H230421   4.632   4.595   5.799
10160TIP3   OH230422   6.036   7.570   4.144
10160TIP3    H130423   5.948   7.535   4.132
10160TIP3    H230424   6.022   7.657   4.182
10161TIP3   OH230425   7.673   0.834   3.118
10161TIP3    H130426   7.711   0.829   3.030
10161TIP3    H230427   7.580   0.819   3.105
10162TIP3   OH230428   1.621   7.278   1.506
10162TIP3    H130429   1.710   7.310   1.486
10162TIP3    H230430   1.635   7.207   1.569
10163TIP3   OH230431   2.805   4.675   0.865
10163TIP3    H130432   2.802   4.580   0.870
10163TIP3    H230433   2.724   4.699   0.820
10164TIP3   OH230434   5.484   5.910   0.976
10164TIP3    H130435   5.517   5.848   1.041
10164TIP3    H230436   5.558   5.925   0.918
10165TIP3   OH230437   0.414   5.145   2.233
10165TIP3    H130438   0.439   5.184   2.150
10165TIP3    H230439   0.424   5.051   2.220
10166TIP3   OH230440   4.546   3.734   3.869
10166TIP3    H130441   4.639   3.713   3.880
10166TIP3    H230442   4.522   3.782   3.948
10167TIP3   OH230443   2.843   1.838   4.432
10167TIP3    H130444   2.871   1.824   4.342
10167TIP3    H230445   2.790   1.761   4.453
10168TIP3   OH230446   6.843   2.610   0.776
10168TIP3    H130447   6.805   2.524   0.787
10168TIP3    H230448   6.935   2.599   0.802
10169TIP3   OH230449   7.971   4.389   4.851
10169TIP3    H130450   7.966   4.485   4.854
10169TIP3    H230451   7.974   4.369   4.757
10170TIP3   OH230452   8.043   2.790   2.436
10170TIP3    H130453   8.050   2.761   2.527
10170TIP3    H230454   7.949   2.803   2.423
10171TIP3   OH230455   3.117   4.527   2.995
10171TIP3    H130456   3.168   4.584   2.938
10171TIP3    H230457   3.153   4.439   2.981
10172TIP3   OH230458   7.606   1.292   0.594
10172TIP3    H130459   7.552   1.266   0.669
10172TIP3    H230460   7.551   1.277   0.518
10173TIP3   OH230461   5.258   3.679   0.221
10173TIP3    H130462   5.223   3.766   0.199
10173TIP3    H230463   5.350   3.683   0.196
10174TIP3   OH230464   8.124   0.014   0.663
10174TIP3    H130465   8.037   0.009   0.623
10174TIP3    H230466   8.153   0.104   0.645
10175TIP3   OH230467   4.423   1.677   2.446
10175TIP3    H130468   4.352   1.706   2.389
10175TIP3    H230469   4.475   1.756   2.461
10176TIP3   OH230470   0.652   3.646   2.995
10176TIP3    H130471   0.719   3.629   2.929
10176TIP3    H230472   0.607   3.563   3.007
10177TIP3   OH230473   5.780   2.534   3.832
10177TIP3    H130474   5.763   2.624   3.859
10177TIP3    H230475   5.869   2.536   3.798
10178TIP3   OH230476   4.110   4.001   3.599
10178TIP3    H130477   4.190   3.948   3.590
10178TIP3    H230478   4.040   3.936   3.602
10179TIP3   OH230479   0.346   1.514   3.372
10179TIP3    H130480   0.353   1.608   3.390
10179TIP3    H230481   0.307   1.509   3.285
10180TIP3   OH230482   7.020   4.460   3.717
10180TIP3    H130483   7.080   4.479   3.645
10180TIP3    H230484   6.970   4.541   3.728
10181TIP3   OH230485   3.562   0.776   5.254
10181TIP3    H130486   3.579   0.869   5.246
10181TIP3    H230487   3.556   0.745   5.163
10182TIP3   OH230488   0.431   2.227   4.229
10182TIP3    H130489   0.397   2.289   4.164
10182TIP3    H230490   0.452   2.148   4.179
10183TIP3   OH230491   5.694   1.946   5.175
10183TIP3    H130492   5.744   1.910   5.102
10183TIP3    H230493   5.666   2.032   5.145
10184TIP3   OH230494   1.162   0.379   1.694
10184TIP3    H130495   1.074   0.344   1.708
10184TIP3    H230496   1.148   0.465   1.656
10185TIP3   OH230497   4.004   1.227   1.828
10185TIP3    H130498   3.976   1.299   1.885
10185TIP3    H230499   3.999   1.149   1.883
10186TIP3   OH230500   6.671   5.756   3.441
10186TIP3    H130501   6.667   5.686   3.376
10186TIP3    H230502   6.589   5.804   3.429
10187TIP3   OH230503   1.120   7.794   2.652
10187TIP3    H130504   1.140   7.761   2.739
10187TIP3    H230505   1.055   7.733   2.617
10188TIP3   OH230506   3.222   4.168   3.663
10188TIP3    H130507   3.250   4.241   3.608
10188TIP3    H230508   3.142   4.136   3.622
10189TIP3   OH230509   1.922   1.139   0.146
10189TIP3    H130510   1.938   1.137   0.240
10189TIP3    H230511   1.830   1.166   0.138
10190TIP3   OH230512   2.444   3.046   3.972
10190TIP3    H130513   2.466   2.982   3.904
10190TIP3    H230514   2.456   2.998   4.054
10191TIP3   OH230515   0.482   6.478   6.027
10191TIP3    H130516   0.433   6.497   6.107
10191TIP3    H230517   0.486   6.383   6.024
10192TIP3   OH230518   1.777   5.876   5.891
10192TIP3    H130519   1.702   5.849   5.838
10192TIP3    H230520   1.852   5.865   5.833
10193TIP3   OH230521   8.002   3.496   5.901
10193TIP3    H130522   8.028   3.426   5.842
10193TIP3    H230523   8.057   3.485   5.978
10194TIP3   OH230524   5.827   4.386   3.326
10194TIP3    H130525   5.886   4.346   3.390
10194TIP3    H230526   5.782   4.312   3.286
10195TIP3   OH230527   1.599   6.595   5.724
10195TIP3    H130528   1.629   6.677   5.686
10195TIP3    H230529   1.678   6.543   5.737
10196TIP3   OH230530   5.590   2.263   0.452
10196TIP3    H130531   5.567   2.351   0.484
10196TIP3    H230532   5.538   2.204   0.505
10197TIP3   OH230533   0.480   7.660   5.223
10197TIP3    H130534   0.466   7.660   5.128
10197TIP3    H230535   0.506   7.570   5.243
10198TIP3   OH230536   2.790   7.710   4.001
10198TIP3    H130537   2.802   7.805   4.008
10198TIP3    H230538   2.878   7.675   3.988
10199TIP3   OH230539   0.440   3.167   3.648
10199TIP3    H130540   0.498   3.168   3.724
10199TIP3    H230541   0.480   3.104   3.588
10200TIP3   OH230542   6.361   5.401   1.545
10200TIP3    H130543   6.307   5.373   1.472
10200TIP3    H230544   6.385   5.321   1.591
10201TIP3   OH230545   7.901   7.665   6.700
10201TIP3    H130546   7.945   7.698   6.779
10201TIP3    H230547   7.875   7.743   6.652
10202TIP3   OH230548   1.528   1.942   4.374
10202TIP3    H130549   1.453   1.940   4.315
10202TIP3    H230550   1.516   2.022   4.425
10203TIP3   OH230551   7.605   4.844   1.889
10203TIP3    H130552   7.598   4.901   1.813
10203TIP3    H230553   7.692   4.804   1.880
10204TIP3   OH230554   0.412   2.105   5.309
10204TIP3    H130555   0.504   2.088   5.330
10204TIP3    H230556   0.414   2.177   5.246
10205TIP3   OH230557   1.229   3.869   6.284
10205TIP3    H130558   1.148   3.902   6.245
10205TIP3    H230559   1.263   3.942   6.335
10206TIP3   OH230560   0.987   0.456   6.588
10206TIP3    H130561   0.965   0.473   6.496
10206TIP3    H230562   1.050   0.384   6.584
10207TIP3   OH230563   6.410   7.022   3.445
10207TIP3    H130564   6.389   7.018   3.352
10207TIP3    H230565   6.383   6.937   3.479
10208TIP3   OH230566   2.969   6.496   2.323
10208TIP3    H130567   3.064   6.510   2.329
10208TIP3    H230568   2.932   6.560   2.383
10209TIP3   OH230569   4.128   2.863   0.245
10209TIP3    H130570   4.135   2.835   0.336
10209TIP3    H230571   4.079   2.945   0.250
10210TIP3   OH230572   2.215   5.187   4.554
10210TIP3    H130573   2.232   5.107   4.605
10210TIP3    H230574   2.144   5.230   4.602
10211TIP3   OH230575   1.244   2.374   3.522
10211TIP3    H130576   1.260   2.449   3.464
10211TIP3    H230577   1.331   2.342   3.544
10212TIP3   OH230578   4.448   4.752   0.592
10212TIP3    H130579   4.539   4.733   0.568
10212TIP3    H230580   4.397   4.684   0.548
10213TIP3   OH230581   0.905   1.290   1.435
10213TIP3    H130582   0.893   1.237   1.357
10213TIP3    H230583   0.827   1.346   1.439
10214TIP3   OH230584   5.129   1.266   1.432
10214TIP3    H130585   5.129   1.328   1.505
10214TIP3    H230586   5.218   1.268   1.398
10215TIP3   OH230587   2.131   3.954   6.013
10215TIP3    H130588   2.063   3.910   6.065
10215TIP3    H230589   2.133   3.906   5.930
10216TIP3   OH230590   1.040   5.534   1.139
10216TIP3    H130591   0.954   5.570   1.118
10216TIP3    H230592   1.029   5.494   1.226
10217TIP3   OH230593   4.065   1.256   4.738
10217TIP3    H130594   4.077   1.195   4.811
10217TIP3    H230595   4.025   1.333   4.777
10218TIP3   OH230596   3.322   2.395   1.097
10218TIP3    H130597   3.393   2.440   1.052
10218TIP3    H230598   3.250   2.457   1.097
10219TIP3   OH230599   7.526   1.557   2.245
10219TIP3    H130600   7.536   1.634   2.188
10219TIP3    H230601   7.540   1.591   2.334
10220TIP3   OH230602   7.655   6.423   1.382
10220TIP3    H130603   7.623   6.427   1.472
10220TIP3    H230604   7.745   6.455   1.387
10221TIP3   OH230605   3.157   3.273   5.656
10221TIP3    H130606   3.096   3.274   5.582
10221TIP3    H230607   3.183   3.181   5.663
10222TIP3   OH230608   1.863   0.827   2.546
10222TIP3    H130609   1.833   0.738   2.565
10222TIP3    H230610   1.917   0.818   2.467
10223TIP3   OH230611   7.373   3.863   6.610
10223TIP3    H130612   7.402   3.944   6.568
10223TIP3    H230613   7.278   3.867   6.608
10224TIP3   OH230614   5.316   2.447   6.205
10224TIP3    H130615   5.274   2.420   6.124
10224TIP3    H230616   5.292   2.540   6.215
10225TIP3   OH230617   0.258   0.900   4.665
10225TIP3    H130618   0.168   0.928   4.652
10225TIP3    H230619   0.309   0.981   4.663
10226TIP3   OH230620   3.708   0.016   1.515
10226TIP3    H130621   3.631   0.073   1.513
10226TIP3    H230622   3.782   0.076   1.520
10227TIP3   OH230623   0.743   6.587   4.277
10227TIP3    H130624   0.787   6.663   4.316
10227TIP3    H230625   0.805   6.515   4.288
10228TIP3   OH230626   3.965   4.009   0.332
10228TIP3    H130627   3.888   4.043   0.288
10228TIP3    H230628   4.030   4.000   0.262
10229TIP3   OH230629   4.414   4.925   5.078
10229TIP3    H130630   4.424   4.976   5.158
10229TIP3    H230631   4.464   4.973   5.012
10230TIP3   OH230632   5.910   6.593   5.030
10230TIP3    H130633   5.920   6.603   5.125
10230TIP3    H230634   5.968   6.521   5.006
10231TIP3   OH230635   3.022   5.128   4.621
10231TIP3    H130636   2.989   5.101   4.707
10231TIP3    H230637   3.091   5.191   4.641
10232TIP3   OH230638   7.014   6.963   0.765
10232TIP3    H130639   7.009   6.988   0.672
10232TIP3    H230640   7.090   6.905   0.770
10233TIP3   OH230641   4.839   6.413   3.959
10233TIP3    H130642   4.745   6.422   3.974
10233TIP3    H230643   4.879   6.474   4.022
10234TIP3   OH230644   3.759   3.147   5.960
10234TIP3    H130645   3.807   3.129   6.040
10234TIP3    H230646   3.673   3.175   5.989
10235TIP3   OH230647   1.154   5.372   2.352
10235TIP3    H130648   1.136   5.462   2.326
10235TIP3    H230649   1.192   5.379   2.439
10236TIP3   OH230650   0.955   5.174   1.474
10236TIP3    H130651   0.946   5.251   1.419
10236TIP3    H230652   0.964   5.101   1.413
10237TIP3   OH230653   7.465   7.283   6.446
10237TIP3    H130654   7.487   7.227   6.521
10237TIP3    H230655   7.377   7.314   6.465
10238TIP3   OH230656   1.248   7.791   1.778
10238TIP3    H130657   1.278   7.881   1.793
10238TIP3    H230658   1.211   7.792   1.690
10239TIP3   OH230659   4.601   6.766  -0.013
10239TIP3    H130660   4.652   6.845  -0.030
10239TIP3    H230661   4.616   6.746   0.079
10240TIP3   OH230662   7.238   4.868   5.657
10240TIP3    H130663   7.299   4.855   5.584
10240TIP3    H230664   7.151   4.857   5.617
10241TIP3   OH230665   5.686   0.304   4.947
10241TIP3    H130666   5.736   0.313   5.028
10241TIP3    H230667   5.663   0.211   4.942
10242TIP3   OH230668   2.081   0.880   2.917
10242TIP3    H130669   2.118   0.812   2.860
10242TIP3    H230670   2.019   0.834   2.973
10243TIP3   OH230671   3.695   2.017   3.388
10243TIP3    H130672   3.746   2.031   3.308
10243TIP3    H230673   3.761   2.011   3.457
10244TIP3   OH230674   7.979   1.326   4.882
10244TIP3    H130675   7.966   1.246   4.831
10244TIP3    H230676   8.054   1.369   4.842
10245TIP3   OH230677   0.640   4.277   4.894
10245TIP3    H130678   0.642   4.182   4.903
10245TIP3    H230679   0.609   4.291   4.804
10246TIP3   OH230680   5.815   7.080   6.765
10246TIP3    H130681   5.840   6.996   6.728
10246TIP3    H230682   5.768   7.124   6.694
10247TIP3   OH230683   0.364   0.756   1.744
10247TIP3    H130684   0.365   0.829   1.806
10247TIP3    H230685   0.276   0.756   1.707
10248TIP3   OH230686   4.422   3.932   4.385
10248TIP3    H130687   4.469   3.985   4.321
10248TIP3    H230688   4.332   3.927   4.350
10249TIP3   OH230689   7.968   7.672   6.098
10249TIP3    H130690   8.023   7.702   6.170
10249TIP3    H230691   8.007   7.710   6.020
10250TIP3   OH230692   7.101   5.945   4.054
10250TIP3    H130693   7.085   6.020   3.997
10250TIP3    H230694   7.033   5.882   4.029
10251TIP3   OH230695   4.293   0.600   1.502
10251TIP3    H130696   4.255   0.687   1.493
10251TIP3    H230697   4.254   0.565   1.583
10252TIP3   OH230698   1.529   4.601   4.119
10252TIP3    H130699   1.471   4.655   4.173
10252TIP3    H230700   1.582   4.664   4.071
10253TIP3   OH230701   2.993   1.299   2.074
10253TIP3    H130702   3.086   1.276   2.072
10253TIP3    H230703   2.985   1.361   2.146
10254TIP3   OH230704   3.707   0.180   1.779
10254TIP3    H130705   3.676   0.267   1.805
10254TIP3    H230706   3.643   0.119   1.815
10255TIP3   OH230707   1.603   5.878   1.397
10255TIP3    H130708   1.644   5.879   1.484
10255TIP3    H230709   1.540   5.806   1.401
10256TIP3   OH230710   1.031   1.973   5.146
10256TIP3    H130711   1.112   1.931   5.117
10256TIP3    H230712   1.055   2.065   5.158
10257TIP3   OH230713   1.200   5.317   3.635
10257TIP3    H130714   1.128   5.257   3.653
10257TIP3    H230715   1.256   5.310   3.712
10258TIP3   OH230716   0.473   0.385   6.060
10258TIP3    H130717   0.496   0.348   5.975
10258TIP3    H230718   0.469   0.310   6.119
10259TIP3   OH230719   5.500   0.049   1.721
10259TIP3    H130720   5.415   0.005   1.721
10259TIP3    H230721   5.544   0.017   1.800
10260TIP3   OH230722   7.128   6.941   4.422
10260TIP3    H130723   7.135   6.857   4.466
10260TIP3    H230724   7.051   6.933   4.365
10261TIP3   OH230725   1.365   7.136   5.113
10261TIP3    H130726   1.452   7.140   5.072
10261TIP3    H230727   1.357   7.220   5.159
10262TIP3   OH230728   6.664   0.155   1.985
10262TIP3    H130729   6.588   0.129   2.037
10262TIP3    H230730   6.650   0.113   1.900
10263TIP3   OH230731   7.317   7.110   3.462
10263TIP3    H130732   7.347   7.117   3.371
10263TIP3    H230733   7.362   7.181   3.507
10264TIP3   OH230734   1.784   2.231   3.641
10264TIP3    H130735   1.761   2.235   3.734
10264TIP3    H230736   1.827   2.315   3.624
10265TIP3   OH230737   0.359   0.438   2.553
10265TIP3    H130738   0.391   0.409   2.468
10265TIP3    H230739   0.269   0.467   2.537
10266TIP3   OH230740   7.951   0.253   2.005
10266TIP3    H130741   7.885   0.223   1.942
10266TIP3    H230742   7.966   0.178   2.062
10267TIP3   OH230743   6.186   1.542   6.581
10267TIP3    H130744   6.184   1.509   6.491
10267TIP3    H230745   6.279   1.544   6.603
10268TIP3   OH230746   8.048   1.127   5.621
10268TIP3    H130747   7.997   1.125   5.540
10268TIP3    H230748   8.082   1.216   5.626
10269TIP3   OH230749   7.196   1.020   3.905
10269TIP3    H130750   7.134   1.034   3.977
10269TIP3    H230751   7.182   0.930   3.878
10270TIP3   OH230752   3.003   4.022   1.738
10270TIP3    H130753   3.007   4.117   1.744
10270TIP3    H230754   2.942   4.005   1.667
10271TIP3   OH230755   6.207   2.431   6.311
10271TIP3    H130756   6.287   2.382   6.294
10271TIP3    H230757   6.236   2.520   6.331
10272TIP3   OH230758   2.941   3.791   5.184
10272TIP3    H130759   2.976   3.750   5.263
10272TIP3    H230760   2.985   3.876   5.180
10273TIP3   OH230761   7.278   1.236   3.097
10273TIP3    H130762   7.296   1.314   3.046
10273TIP3    H230763   7.265   1.167   3.032
10274TIP3   OH230764   5.394   7.186   3.353
10274TIP3    H130765   5.396   7.202   3.259
10274TIP3    H230766   5.461   7.119   3.368
10275TIP3   OH230767   0.349   6.412   4.654
10275TIP3    H130768   0.431   6.390   4.699
10275TIP3    H230769   0.300   6.465   4.717
10276TIP3   OH230770   5.548   5.415   5.895
10276TIP3    H130771   5.574   5.331   5.934
10276TIP3    H230772   5.625   5.443   5.845
10277TIP3   OH230773   5.866   7.215   0.728
10277TIP3    H130774   5.902   7.277   0.792
10277TIP3    H230775   5.870   7.131   0.772
10278TIP3   OH230776   1.199   3.865   5.010
10278TIP3    H130777   1.113   3.871   4.969
10278TIP3    H230778   1.208   3.947   5.060
10279TIP3   OH230779   6.975   7.024   5.660
10279TIP3    H130780   6.952   7.111   5.625
10279TIP3    H230781   6.901   6.968   5.634
10280TIP3   OH230782   6.003   4.972   6.310
10280TIP3    H130783   5.908   4.983   6.315
10280TIP3    H230784   6.022   4.898   6.368
10281TIP3   OH230785   6.459   0.891   4.089
10281TIP3    H130786   6.544   0.849   4.098
10281TIP3    H230787   6.407   0.830   4.036
10282TIP3   OH230788   4.639   3.928   0.301
10282TIP3    H130789   4.715   3.977   0.269
10282TIP3    H230790   4.669   3.888   0.383
10283TIP3   OH230791   2.580   0.266   0.236
10283TIP3    H130792   2.545   0.244   0.323
10283TIP3    H230793   2.506   0.305   0.189
10284TIP3   OH230794   8.328   5.292   6.647
10284TIP3    H130795   8.240   5.277   6.611
10284TIP3    H230796   8.379   5.216   6.618
10285TIP3   OH230797   0.847   5.390   0.421
10285TIP3    H130798   0.841   5.326   0.349
10285TIP3    H230799   0.828   5.474   0.380
10286TIP3   OH230800   6.852   4.569   5.012
10286TIP3    H130801   6.794   4.634   5.050
10286TIP3    H230802   6.812   4.548   4.928
10287TIP3   OH230803   4.974   2.410   6.185
10287TIP3    H130804   4.886   2.427   6.150
10287TIP3    H230805   5.033   2.444   6.118
10288TIP3   OH230806   8.242   1.704   1.257
10288TIP3    H130807   8.294   1.746   1.189
10288TIP3    H230808   8.277   1.616   1.264
10289TIP3   OH230809   5.543   5.491   6.414
10289TIP3    H130810   5.556   5.573   6.462
10289TIP3    H230811   5.558   5.513   6.323
10290TIP3   OH230812   0.477   6.824   2.748
10290TIP3    H130813   0.454   6.771   2.671
10290TIP3    H230814   0.408   6.805   2.811
10291TIP3   OH230815   2.840   1.261   3.235
10291TIP3    H130816   2.790   1.338   3.207
10291TIP3    H230817   2.893   1.292   3.308
10292TIP3   OH230818   6.135   0.773   1.646
10292TIP3    H130819   6.073   0.820   1.590
10292TIP3    H230820   6.218   0.778   1.600
10293TIP3   OH230821   3.404   2.577   3.021
10293TIP3    H130822   3.327   2.601   3.072
10293TIP3    H230823   3.455   2.521   3.080
10294TIP3   OH230824   0.577   2.948   3.478
10294TIP3    H130825   0.667   2.927   3.505
10294TIP3    H230826   0.522   2.890   3.530
10295TIP3   OH230827   7.345   7.164   1.236
10295TIP3    H130828   7.306   7.076   1.241
10295TIP3    H230829   7.272   7.223   1.255
10296TIP3   OH230830   2.804   2.664   5.442
10296TIP3    H130831   2.858   2.593   5.409
10296TIP3    H230832   2.716   2.627   5.448
10297TIP3   OH230833   4.341   3.627   1.917
10297TIP3    H130834   4.311   3.537   1.923
10297TIP3    H230835   4.316   3.666   2.000
10298TIP3   OH230836   0.852   3.391   6.261
10298TIP3    H130837   0.759   3.412   6.267
10298TIP3    H230838   0.880   3.378   6.351
10299TIP3   OH230839   5.520   7.635   1.650
10299TIP3    H130840   5.519   7.586   1.732
10299TIP3    H230841   5.606   7.678   1.649
10300TIP3   OH230842   2.474   1.758   3.061
10300TIP3    H130843   2.479   1.830   2.998
10300TIP3    H230844   2.394   1.711   3.037
10301TIP3   OH230845   4.280   6.387   6.593
10301TIP3    H130846   4.210   6.416   6.534
10301TIP3    H230847   4.330   6.324   6.542
10302TIP3   OH230848   5.306   3.914   2.236
10302TIP3    H130849   5.318   3.994   2.287
10302TIP3    H230850   5.364   3.925   2.161
10303TIP3   OH230851   2.441   0.631   6.685
10303TIP3    H130852   2.408   0.558   6.632
10303TIP3    H230853   2.482   0.590   6.761
10304TIP3   OH230854   0.127   4.159   2.370
10304TIP3    H130855   0.066   4.232   2.354
10304TIP3    H230856   0.156   4.171   2.461
10305TIP3   OH230857   2.695   7.302   2.816
10305TIP3    H130858   2.645   7.244   2.873
10305TIP3    H230859   2.769   7.330   2.869
10306TIP3   OH230860   1.609   6.933   0.661
10306TIP3    H130861   1.534   6.878   0.683
10306TIP3    H230862   1.619   6.924   0.566
10307TIP3   OH230863   2.021   5.639   0.241
10307TIP3    H130864   1.995   5.587   0.317
10307TIP3    H230865   2.021   5.576   0.168
10308TIP3   OH230866   8.051   7.432   4.334
10308TIP3    H130867   7.980   7.497   4.326
10308TIP3    H230868   8.020   7.357   4.283
10309TIP3   OH230869   7.964   4.679   2.604
10309TIP3    H130870   8.042   4.729   2.627
10309TIP3    H230871   7.913   4.675   2.686
10310TIP3   OH230872   3.270   5.336   3.458
10310TIP3    H130873   3.198   5.315   3.518
10310TIP3    H230874   3.347   5.297   3.500
10311TIP3   OH230875   3.717   4.494   4.740
10311TIP3    H130876   3.679   4.418   4.696
10311TIP3    H230877   3.811   4.488   4.721
10312TIP3   OH230878   2.951   4.381   3.193
10312TIP3    H130879   2.953   4.296   3.150
10312TIP3    H230880   2.862   4.414   3.177
10313TIP3   OH230881   4.553   0.305   4.267
10313TIP3    H130882   4.638   0.283   4.304
10313TIP3    H230883   4.524   0.225   4.224
10314TIP3   OH230884   3.613   4.989   4.029
10314TIP3    H130885   3.704   5.019   4.033
10314TIP3    H230886   3.564   5.052   4.082
10315TIP3   OH230887   1.773   7.084   2.644
10315TIP3    H130888   1.779   7.121   2.732
10315TIP3    H230889   1.736   7.155   2.591
10316TIP3   OH230890   0.267   4.785   1.425
10316TIP3    H130891   0.224   4.699   1.416
10316TIP3    H230892   0.349   4.775   1.376
10317TIP3   OH230893   6.161   0.497   1.650
10317TIP3    H130894   6.163   0.592   1.644
10317TIP3    H230895   6.212   0.467   1.575
10318TIP3   OH230896   3.218   3.674   5.808
10318TIP3    H130897   3.166   3.731   5.751
10318TIP3    H230898   3.304   3.716   5.811
10319TIP3   OH230899   3.014   0.396   5.265
10319TIP3    H130900   3.109   0.406   5.261
10319TIP3    H230901   2.999   0.302   5.257
10320TIP3   OH230902   4.632   0.317   5.412
10320TIP3    H130903   4.656   0.410   5.410
10320TIP3    H230904   4.537   0.317   5.413
10321TIP3   OH230905   0.835   0.675   5.744
10321TIP3    H130906   0.768   0.661   5.812
10321TIP3    H230907   0.916   0.690   5.793
10322TIP3   OH230908   5.393   3.692   2.060
10322TIP3    H130909   5.328   3.622   2.051
10322TIP3    H230910   5.390   3.716   2.153
10323TIP3   OH230911   2.038   5.826   1.695
10323TIP3    H130912   2.129   5.836   1.723
10323TIP3    H230913   2.042   5.771   1.617
10324TIP3   OH230914   5.906   5.071   4.267
10324TIP3    H130915   5.906   5.011   4.192
10324TIP3    H230916   5.936   5.017   4.340
10325TIP3   OH230917   2.588   3.437   1.423
10325TIP3    H130918   2.540   3.497   1.367
10325TIP3    H230919   2.547   3.446   1.509
10326TIP3   OH230920   0.071   2.817   5.845
10326TIP3    H130921   0.065   2.724   5.821
10326TIP3    H230922   0.099   2.861   5.765
10327TIP3   OH230923   7.511   3.029   6.660
10327TIP3    H130924   7.554   3.111   6.684
10327TIP3    H230925   7.516   3.026   6.565
10328TIP3   OH230926   0.492   3.872   2.471
10328TIP3    H130927   0.532   3.915   2.395
10328TIP3    H230928   0.431   3.809   2.434
10329TIP3   OH230929   1.420   3.171   5.591
10329TIP3    H130930   1.431   3.082   5.558
10329TIP3    H230931   1.478   3.224   5.537
10330TIP3   OH230932   1.633   4.240   0.497
10330TIP3    H130933   1.727   4.253   0.509
10330TIP3    H230934   1.627   4.160   0.444
10331TIP3   OH230935   4.324   4.455   1.928
10331TIP3    H130936   4.281   4.371   1.915
10331TIP3    H230937   4.383   4.464   1.853
10332TIP3   OH230938   2.310   7.507   4.318
10332TIP3    H130939   2.295   7.584   4.371
10332TIP3    H230940   2.396   7.521   4.278
10333TIP3   OH230941   7.503   6.996   2.330
10333TIP3    H130942   7.549   7.047   2.397
10333TIP3    H230943   7.559   6.921   2.314
10334TIP3   OH230944   7.348   3.479   3.278
10334TIP3    H130945   7.404   3.444   3.347
10334TIP3    H230946   7.267   3.429   3.284
10335TIP3   OH230947   6.518   1.123   5.988
10335TIP3    H130948   6.540   1.117   6.081
10335TIP3    H230949   6.470   1.205   5.979
10336TIP3   OH230950   2.442   1.848   2.762
10336TIP3    H130951   2.379   1.793   2.715
10336TIP3    H230952   2.527   1.812   2.738
10337TIP3   OH230953   4.082   6.954   3.002
10337TIP3    H130954   4.119   7.016   3.065
10337TIP3    H230955   4.157   6.927   2.949
10338TIP3   OH230956   3.551   7.050   1.576
10338TIP3    H130957   3.468   7.088   1.602
10338TIP3    H230958   3.601   7.042   1.657
10339TIP3   OH230959   7.530   5.763   6.472
10339TIP3    H130960   7.551   5.681   6.516
10339TIP3    H230961   7.447   5.790   6.512
10340TIP3   OH230962   0.036   2.078   0.733
10340TIP3    H130963   0.069   2.071   0.823
10340TIP3    H230964  -0.043   2.025   0.733
10341TIP3   OH230965   7.794   5.743   1.854
10341TIP3    H130966   7.816   5.827   1.813
10341TIP3    H230967   7.754   5.767   1.938
10342TIP3   OH230968   1.555   7.435   2.879
10342TIP3    H130969   1.644   7.456   2.850
10342TIP3    H230970   1.565   7.357   2.935
10343TIP3   OH230971   1.937   2.787   5.334
10343TIP3    H130972   1.881   2.855   5.297
10343TIP3    H230973   1.894   2.705   5.309
10344TIP3   OH230974   4.918   0.857   4.186
10344TIP3    H130975   4.909   0.818   4.272
10344TIP3    H230976   5.004   0.899   4.186
10345TIP3   OH230977   1.789   3.890   4.374
10345TIP3    H130978   1.741   3.918   4.452
10345TIP3    H230979   1.785   3.795   4.377
10346TIP3   OH230980   3.827   6.024   3.105
10346TIP3    H130981   3.786   6.100   3.062
10346TIP3    H230982   3.755   5.963   3.119
10347TIP3   OH230983   3.292   4.033   3.885
10347TIP3    H130984   3.206   4.012   3.921
10347TIP3    H230985   3.272   4.085   3.806
10348TIP3   OH230986   7.304   2.018   6.702
10348TIP3    H130987   7.210   2.015   6.716
10348TIP3    H230988   7.342   2.007   6.789
10349TIP3   OH230989   2.472   3.958   4.707
10349TIP3    H130990   2.493   3.896   4.777
10349TIP3    H230991   2.430   3.905   4.639
10350TIP3   OH230992   2.689   6.272   3.692
10350TIP3    H130993   2.668   6.364   3.677
10350TIP3    H230994   2.765   6.273   3.750
10351TIP3   OH230995   1.925   1.453   3.000
10351TIP3    H130996   1.834   1.434   2.975
10351TIP3    H230997   1.976   1.427   2.923
10352TIP3   OH230998   3.309   3.287   0.028
10352TIP3    H130999   3.258   3.285   0.110
10352TIP3    H231000   3.243   3.289  -0.041
10353TIP3   OH231001   7.834   1.083   0.533
10353TIP3    H131002   7.786   1.108   0.612
10353TIP3    H231003   7.781   1.118   0.461
10354TIP3   OH231004   0.780   4.721   4.724
10354TIP3    H131005   0.860   4.736   4.675
10354TIP3    H231006   0.807   4.720   4.815
10355TIP3   OH231007   1.750   5.398   0.185
10355TIP3    H131008   1.789   5.478   0.149
10355TIP3    H231009   1.758   5.408   0.280
10356TIP3   OH231010   7.642   3.787   0.931
10356TIP3    H131011   7.657   3.879   0.910
10356TIP3    H231012   7.713   3.763   0.990
10357TIP3   OH231013   5.779   7.025   4.720
10357TIP3    H131014   5.805   7.098   4.663
10357TIP3    H231015   5.861   6.983   4.745
10358TIP3   OH231016   4.960   1.130   2.705
10358TIP3    H131017   4.881   1.122   2.652
10358TIP3    H231018   5.021   1.179   2.650
10359TIP3   OH231019   7.444   1.487   4.980
10359TIP3    H131020   7.438   1.439   5.062
10359TIP3    H231021   7.537   1.487   4.958
10360TIP3   OH231022   6.092   1.068   2.494
10360TIP3    H131023   6.113   1.038   2.583
10360TIP3    H231024   6.101   1.163   2.498
10361TIP3   OH231025   1.353   5.921   2.561
10361TIP3    H131026   1.278   5.981   2.561
10361TIP3    H231027   1.313   5.834   2.555
10362TIP3   OH231028   7.772   6.188   2.576
10362TIP3    H131029   7.708   6.233   2.632
10362TIP3    H231030   7.737   6.099   2.568
10363TIP3   OH231031   5.708   3.720   4.521
10363TIP3    H131032   5.795   3.712   4.559
10363TIP3    H231033   5.723   3.756   4.433
10364TIP3   OH231034   7.375   5.816   3.803
10364TIP3    H131035   7.375   5.910   3.821
10364TIP3    H231036   7.354   5.810   3.709
10365TIP3   OH231037   7.114   2.535   6.613
10365TIP3    H131038   7.135   2.565   6.524
10365TIP3    H231039   7.148   2.603   6.670
10366TIP3   OH231040   7.232   5.393   4.385
10366TIP3    H131041   7.143   5.383   4.353
10366TIP3    H231042   7.281   5.323   4.342
10367TIP3   OH231043   5.613   7.770   3.652
10367TIP3    H131044   5.675   7.836   3.681
10367TIP3    H231045   5.572   7.809   3.574
10368TIP3   OH231046   6.545   6.633   1.090
10368TIP3    H131047   6.575   6.565   1.031
10368TIP3    H231048   6.545   6.592   1.177
10369TIP3   OH231049   3.571   7.226   1.078
10369TIP3    H131050   3.666   7.218   1.092
10369TIP3    H231051   3.542   7.136   1.065
10370TIP3   OH231052   1.712   3.595   1.893
10370TIP3    H131053   1.762   3.612   1.973
10370TIP3    H231054   1.728   3.671   1.838
10371TIP3   OH231055   7.045   6.690   6.625
10371TIP3    H131056   7.031   6.628   6.553
10371TIP3    H231057   6.957   6.721   6.647
10372TIP3   OH231058   2.953   3.627   5.631
10372TIP3    H131059   2.986   3.541   5.605
10372TIP3    H231060   2.909   3.612   5.715
10373TIP3   OH231061   2.719   6.701   0.696
10373TIP3    H131062   2.705   6.607   0.694
10373TIP3    H231063   2.663   6.735   0.627
10374TIP3   OH231064   0.121   5.073   3.113
10374TIP3    H131065   0.040   5.098   3.158
10374TIP3    H231066   0.156   5.001   3.165
10375TIP3   OH231067   8.113   4.369   3.484
10375TIP3    H131068   8.121   4.459   3.515
10375TIP3    H231069   8.127   4.316   3.562
10376TIP3   OH231070   6.702   2.260   4.093
10376TIP3    H131071   6.775   2.277   4.034
10376TIP3    H231072   6.700   2.164   4.101
10377TIP3   OH231073   2.691   6.974   2.728
10377TIP3    H131074   2.740   7.036   2.782
10377TIP3    H231075   2.725   6.988   2.640
10378TIP3   OH231076   5.815   1.187   3.415
10378TIP3    H131077   5.842   1.236   3.338
10378TIP3    H231078   5.897   1.159   3.456
10379TIP3   OH231079   3.724   7.530   1.202
10379TIP3    H131080   3.745   7.509   1.111
10379TIP3    H231081   3.693   7.448   1.240
10380TIP3   OH231082   7.219   0.521   0.325
10380TIP3    H131083   7.229   0.606   0.282
10380TIP3    H231084   7.295   0.470   0.297
10381TIP3   OH231085   4.758   3.843   4.258
10381TIP3    H131086   4.678   3.812   4.215
10381TIP3    H231087   4.758   3.938   4.243
10382TIP3   OH231088   5.158   5.660   5.696
10382TIP3    H131089   5.166   5.611   5.778
10382TIP3    H231090   5.248   5.676   5.668
10383TIP3   OH231091   6.956   3.515   2.962
10383TIP3    H131092   6.887   3.474   3.014
10383TIP3    H231093   7.035   3.502   3.013
10384TIP3   OH231094   6.653   5.495   2.965
10384TIP3    H131095   6.682   5.572   2.917
10384TIP3    H231096   6.723   5.430   2.952
10385TIP3   OH231097   5.090   6.956   3.642
10385TIP3    H131098   5.075   7.021   3.574
10385TIP3    H231099   5.133   7.004   3.713
10386TIP3   OH231100   3.586   1.590   1.419
10386TIP3    H131101   3.557   1.505   1.454
10386TIP3    H231102   3.583   1.649   1.494
10387TIP3   OH231103   1.593   7.217   0.632
10387TIP3    H131104   1.654   7.202   0.559
10387TIP3    H231105   1.589   7.134   0.677
10388TIP3   OH231106   4.515   1.657   2.111
10388TIP3    H131107   4.484   1.743   2.081
10388TIP3    H231108   4.446   1.626   2.169
10389TIP3   OH231109   3.425   4.888   2.019
10389TIP3    H131110   3.401   4.947   1.947
10389TIP3    H231111   3.382   4.805   1.997
10390TIP3   OH231112   6.745   1.028   4.156
10390TIP3    H131113   6.763   1.085   4.230
10390TIP3    H231114   6.717   0.945   4.195
10391TIP3   OH231115   1.825   6.639   6.655
10391TIP3    H131116   1.738   6.613   6.687
10391TIP3    H231117   1.811   6.725   6.616
10392TIP3   OH231118   0.715   2.812   2.097
10392TIP3    H131119   0.647   2.824   2.031
10392TIP3    H231120   0.672   2.832   2.180
10393TIP3   OH231121   4.932   6.706   3.763
10393TIP3    H131122   4.927   6.763   3.686
10393TIP3    H231123   4.845   6.668   3.770
10394TIP3   OH231124   3.089   6.558   5.548
10394TIP3    H131125   3.018   6.510   5.589
10394TIP3    H231126   3.152   6.490   5.522
10395TIP3   OH231127   8.020   1.206   3.560
10395TIP3    H131128   8.091   1.227   3.620
10395TIP3    H231129   8.060   1.153   3.492
10396TIP3   OH231130   6.135   3.211   2.288
10396TIP3    H131131   6.139   3.279   2.356
10396TIP3    H231132   6.215   3.223   2.238
10397TIP3   OH231133   1.981   0.594   0.798
10397TIP3    H131134   1.904   0.538   0.786
10397TIP3    H231135   2.040   0.542   0.852
10398TIP3   OH231136   2.308   6.747   0.452
10398TIP3    H131137   2.356   6.668   0.429
10398TIP3    H231138   2.307   6.798   0.371
10399TIP3   OH231139   7.031   2.323   0.833
10399TIP3    H131140   6.958   2.308   0.774
10399TIP3    H231141   7.108   2.294   0.784
10400TIP3   OH231142   5.291   4.751   1.867
10400TIP3    H131143   5.269   4.821   1.928
10400TIP3    H231144   5.206   4.717   1.838
10401TIP3   OH231145   0.602   7.035   1.174
10401TIP3    H131146   0.697   7.030   1.166
10401TIP3    H231147   0.569   7.022   1.085
10402TIP3   OH231148   4.409   5.566   1.892
10402TIP3    H131149   4.483   5.556   1.833
10402TIP3    H231150   4.332   5.559   1.835
10403TIP3   OH231151   8.090   6.764   6.216
10403TIP3    H131152   8.076   6.753   6.122
10403TIP3    H231153   8.003   6.766   6.254
10404TIP3   OH231154   6.851   5.092   6.494
10404TIP3    H131155   6.811   5.008   6.468
10404TIP3    H231156   6.780   5.155   6.486
10405TIP3   OH231157   3.269   5.392   1.787
10405TIP3    H131158   3.184   5.361   1.756
10405TIP3    H231159   3.290   5.335   1.861
10406TIP3   OH231160   1.699   0.904   6.502
10406TIP3    H131161   1.725   0.867   6.417
10406TIP3    H231162   1.765   0.971   6.520
10407TIP3   OH231163   2.204   6.425   2.278
10407TIP3    H131164   2.195   6.432   2.183
10407TIP3    H231165   2.218   6.515   2.307
10408TIP3   OH231166   5.404   6.870   3.766
10408TIP3    H131167   5.362   6.847   3.848
10408TIP3    H231168   5.356   6.821   3.699
10409TIP3   OH231169   7.009   0.105   0.959
10409TIP3    H131170   7.103   0.125   0.959
10409TIP3    H231171   6.977   0.138   0.875
10410TIP3   OH231172   2.012   1.148   2.220
10410TIP3    H131173   2.057   1.089   2.159
10410TIP3    H231174   1.941   1.095   2.256
10411TIP3   OH231175   0.873   6.956   1.125
10411TIP3    H131176   0.880   6.902   1.047
10411TIP3    H231177   0.952   7.010   1.125
10412TIP3   OH231178   6.656   4.012   0.246
10412TIP3    H131179   6.618   3.976   0.166
10412TIP3    H231180   6.714   4.082   0.216
10413TIP3   OH231181   7.383   6.963   5.988
10413TIP3    H131182   7.318   6.961   5.918
10413TIP3    H231183   7.406   6.872   6.003
10414TIP3   OH231184   5.590   1.800   2.077
10414TIP3    H131185   5.685   1.792   2.066
10414TIP3    H231186   5.553   1.753   2.002
10415TIP3   OH231187   3.929   4.434   5.308
10415TIP3    H131188   3.987   4.502   5.274
10415TIP3    H231189   3.841   4.472   5.301
10416TIP3   OH231190   2.073   0.116   4.666
10416TIP3    H131191   2.112   0.099   4.751
10416TIP3    H231192   2.004   0.051   4.657
10417TIP3   OH231193   2.048   7.219   1.405
10417TIP3    H131194   2.128   7.238   1.357
10417TIP3    H231195   2.069   7.141   1.457
10418TIP3   OH231196   2.945   0.994   2.215
10418TIP3    H131197   2.935   1.088   2.207
10418TIP3    H231198   2.986   0.981   2.300
10419TIP3   OH231199   7.712   6.292   2.077
10419TIP3    H131200   7.783   6.229   2.093
10419TIP3    H231201   7.704   6.339   2.160
10420TIP3   OH231202   3.897   2.759   5.664
10420TIP3    H131203   3.879   2.848   5.693
10420TIP3    H231204   3.858   2.753   5.577
10421TIP3   OH231205   8.137   2.770   0.722
10421TIP3    H131206   8.159   2.721   0.801
10421TIP3    H231207   8.217   2.769   0.669
10422TIP3   OH231208   7.534   6.291   3.523
10422TIP3    H131209   7.582   6.245   3.592
10422TIP3    H231210   7.450   6.245   3.518
10423TIP3   OH231211   4.649   5.636   6.776
10423TIP3    H131212   4.657   5.599   6.687
10423TIP3    H231213   4.681   5.725   6.768
10424TIP3   OH231214   1.539   7.799   3.818
10424TIP3    H131215   1.549   7.738   3.745
10424TIP3    H231216   1.517   7.882   3.777
10425TIP3   OH231217   1.993   0.463   4.887
10425TIP3    H131218   1.917   0.515   4.913
10425TIP3    H231219   1.963   0.373   4.892
10426TIP3   OH231220   6.495   4.290   6.746
10426TIP3    H131221   6.466   4.368   6.698
10426TIP3    H231222   6.449   4.217   6.703
10427TIP3   OH231223   2.256   2.001   1.657
10427TIP3    H131224   2.323   2.003   1.726
10427TIP3    H231225   2.293   1.943   1.591
10428TIP3   OH231226   5.338   1.689   0.618
10428TIP3    H131227   5.389   1.616   0.583
10428TIP3    H231228   5.270   1.704   0.552
10429TIP3   OH231229   4.031   2.991   3.345
10429TIP3    H131230   4.015   3.041   3.265
10429TIP3    H231231   3.993   3.044   3.415
10430TIP3   OH231232   4.076   4.343   0.386
10430TIP3    H131233   4.072   4.289   0.465
10430TIP3    H231234   4.165   4.330   0.352
10431TIP3   OH231235   3.686   7.123   5.042
10431TIP3    H131236   3.600   7.083   5.031
10431TIP3    H231237   3.728   7.070   5.110
10432TIP3   OH231238   7.589   4.478   3.229
10432TIP3    H131239   7.624   4.548   3.174
10432TIP3    H231240   7.515   4.443   3.180
10433TIP3   OH231241   2.076   7.812   1.678
10433TIP3    H131242   2.162   7.855   1.685
10433TIP3    H231243   2.086   7.752   1.605
10434TIP3   OH231244   2.485   4.730   2.201
10434TIP3    H131245   2.393   4.742   2.224
10434TIP3    H231246   2.531   4.802   2.245
10435TIP3   OH231247   6.038   7.007   4.518
10435TIP3    H131248   6.087   7.068   4.574
10435TIP3    H231249   5.998   7.062   4.451
10436TIP3   OH231250   1.901   3.867   6.109
10436TIP3    H131251   1.901   3.837   6.200
10436TIP3    H231252   1.823   3.827   6.071
10437TIP3   OH231253   7.255   3.536   4.831
10437TIP3    H131254   7.280   3.616   4.877
10437TIP3    H231255   7.185   3.498   4.885
10438TIP3   OH231256   2.978   1.134   5.462
10438TIP3    H131257   2.953   1.165   5.549
10438TIP3    H231258   3.014   1.211   5.418
10439TIP3   OH231259   2.212   5.397   3.051
10439TIP3    H131260   2.190   5.448   3.130
10439TIP3    H231261   2.134   5.343   3.036
10440TIP3   OH231262   5.034   5.247   2.421
10440TIP3    H131263   5.124   5.223   2.399
10440TIP3    H231264   5.010   5.313   2.356
10441TIP3   OH231265   1.403   4.420   0.754
10441TIP3    H131266   1.384   4.449   0.664
10441TIP3    H231267   1.435   4.331   0.744
10442TIP3   OH231268   7.262   4.815   6.690
10442TIP3    H131269   7.245   4.908   6.706
10442TIP3    H231270   7.227   4.771   6.768
10443TIP3   OH231271   3.035   2.298   3.041
10443TIP3    H131272   3.019   2.206   3.060
10443TIP3    H231273   3.114   2.298   2.986
10444TIP3   OH231274   6.787   2.240   5.810
10444TIP3    H131275   6.859   2.300   5.791
10444TIP3    H231276   6.744   2.227   5.726
10445TIP3   OH231277   6.896   1.826   4.003
10445TIP3    H131278   6.974   1.838   3.949
10445TIP3    H231279   6.825   1.811   3.940
10446TIP3   OH231280   7.302   2.628   5.773
10446TIP3    H131281   7.312   2.658   5.863
10446TIP3    H231282   7.390   2.604   5.745
10447TIP3   OH231283   7.631   0.100   4.117
10447TIP3    H131284   7.630   0.015   4.071
10447TIP3    H231285   7.722   0.114   4.140
10448TIP3   OH231286   7.306   6.557   1.479
10448TIP3    H131287   7.347   6.506   1.409
10448TIP3    H231288   7.343   6.644   1.471
10449TIP3   OH231289   0.918   4.906   0.083
10449TIP3    H131290   0.951   4.931  -0.004
10449TIP3    H231291   0.901   4.812   0.076
10450TIP3   OH231292   6.632   0.185   4.076
10450TIP3    H131293   6.542   0.209   4.098
10450TIP3    H231294   6.632   0.089   4.077
10451TIP3   OH231295   6.763   4.393   1.972
10451TIP3    H131296   6.730   4.334   1.904
10451TIP3    H231297   6.684   4.423   2.018
10452TIP3   OH231298   3.646   3.690   2.722
10452TIP3    H131299   3.611   3.778   2.732
10452TIP3    H231300   3.651   3.656   2.811
10453TIP3   OH231301   4.995   4.267   4.785
10453TIP3    H131302   4.984   4.187   4.836
10453TIP3    H231303   4.944   4.333   4.832
10454TIP3   OH231304   8.299   3.253   6.701
10454TIP3    H131305   8.223   3.226   6.753
10454TIP3    H231306   8.362   3.181   6.712
10455TIP3   OH231307   6.923   5.307   0.538
10455TIP3    H131308   6.871   5.231   0.566
10455TIP3    H231309   6.992   5.270   0.483
10456TIP3   OH231310   6.130   1.342   2.967
10456TIP3    H131311   6.096   1.418   3.015
10456TIP3    H231312   6.206   1.314   3.018
10457TIP3   OH231313   7.116   1.496   3.122
10457TIP3    H131314   7.063   1.524   3.197
10457TIP3    H231315   7.206   1.493   3.156
10458TIP3   OH231316   4.277   5.580   5.467
10458TIP3    H131317   4.271   5.676   5.468
10458TIP3    H231318   4.269   5.556   5.375
10459TIP3   OH231319   2.111   6.746   0.011
10459TIP3    H131320   2.195   6.787   0.031
10459TIP3    H231321   2.059   6.817  -0.026
10460TIP3   OH231322   2.533   0.821   1.919
10460TIP3    H131323   2.591   0.858   1.985
10460TIP3    H231324   2.581   0.747   1.882
10461TIP3   OH231325   4.180   0.227   0.899
10461TIP3    H131326   4.162   0.296   0.963
10461TIP3    H231327   4.098   0.218   0.850
10462TIP3   OH231328   3.131   0.180   4.065
10462TIP3    H131329   3.064   0.153   4.127
10462TIP3    H231330   3.093   0.163   3.979
10463TIP3   OH231331   0.133   4.593   4.939
10463TIP3    H131332   0.152   4.676   4.895
10463TIP3    H231333   0.217   4.563   4.972
10464TIP3   OH231334   6.079   2.030   2.951
10464TIP3    H131335   6.079   2.072   2.865
10464TIP3    H231336   6.031   2.091   3.007
10465TIP3   OH231337   6.227   7.588   5.097
10465TIP3    H131338   6.308   7.593   5.047
10465TIP3    H231339   6.252   7.545   5.179
10466TIP3   OH231340   7.334   5.693   5.922
10466TIP3    H131341   7.278   5.767   5.945
10466TIP3    H231342   7.274   5.622   5.901
10467TIP3   OH231343   1.186   4.223   3.688
10467TIP3    H131344   1.257   4.283   3.667
10467TIP3    H231345   1.226   4.136   3.684
10468TIP3   OH231346   2.222   0.617   3.804
10468TIP3    H131347   2.273   0.624   3.723
10468TIP3    H231348   2.139   0.661   3.783
10469TIP3   OH231349   1.937   4.724   3.407
10469TIP3    H131350   1.953   4.696   3.497
10469TIP3    H231351   1.842   4.719   3.397
10470TIP3   OH231352   5.641   4.932   0.842
10470TIP3    H131353   5.563   4.876   0.839
10470TIP3    H231354   5.689   4.910   0.762
10471TIP3   OH231355   0.826   1.185   5.450
10471TIP3    H131356   0.819   1.257   5.388
10471TIP3    H231357   0.915   1.153   5.440
10472TIP3   OH231358   6.955   0.613   1.010
10472TIP3    H131359   6.963   0.612   0.915
10472TIP3    H231360   7.003   0.535   1.039
10473TIP3   OH231361   0.268   5.168   1.595
10473TIP3    H131362   0.258   5.130   1.508
10473TIP3    H231363   0.179   5.171   1.630
10474TIP3   OH231364   8.212   4.870   4.962
10474TIP3    H131365   8.289   4.879   4.906
10474TIP3    H231366   8.176   4.958   4.967
10475TIP3   OH231367   5.372   2.073   2.508
10475TIP3    H131368   5.463   2.063   2.482
10475TIP3    H231369   5.323   2.014   2.451
10476TIP3   OH231370   6.446   1.027   3.618
10476TIP3    H131371   6.406   0.941   3.632
10476TIP3    H231372   6.424   1.076   3.697
10477TIP3   OH231373   6.749   4.837   2.096
10477TIP3    H131374   6.757   4.852   2.190
10477TIP3    H231375   6.837   4.853   2.061
10478TIP3   OH231376   7.538   5.271   3.424
10478TIP3    H131377   7.582   5.305   3.502
10478TIP3    H231378   7.550   5.176   3.429
10479TIP3   OH231379   2.597   5.219   5.657
10479TIP3    H131380   2.589   5.155   5.587
10479TIP3    H231381   2.538   5.291   5.631
10480TIP3   OH231382   1.909   4.722   0.793
10480TIP3    H131383   1.994   4.691   0.761
10480TIP3    H231384   1.870   4.768   0.718
10481TIP3   OH231385   4.922   2.532   5.775
10481TIP3    H131386   4.964   2.549   5.690
10481TIP3    H231387   4.993   2.539   5.838
10482TIP3   OH231388   5.193   4.832   0.900
10482TIP3    H131389   5.195   4.887   0.821
10482TIP3    H231390   5.106   4.793   0.899
10483TIP3   OH231391   0.872   5.551   6.685
10483TIP3    H131392   0.847   5.588   6.600
10483TIP3    H231393   0.817   5.473   6.695
10484TIP3   OH231394   7.426   0.271   2.369
10484TIP3    H131395   7.494   0.325   2.410
10484TIP3    H231396   7.430   0.188   2.417
10485TIP3   OH231397   7.344   0.526   5.787
10485TIP3    H131398   7.303   0.482   5.862
10485TIP3    H231399   7.272   0.542   5.726
10486TIP3   OH231400   2.908   1.782   1.544
10486TIP3    H131401   2.821   1.796   1.507
10486TIP3    H231402   2.965   1.839   1.494
10487TIP3   OH231403   6.064   6.030   5.915
10487TIP3    H131404   5.979   6.009   5.953
10487TIP3    H231405   6.128   6.006   5.982
10488TIP3   OH231406   4.337   7.693   5.251
10488TIP3    H131407   4.241   7.695   5.250
10488TIP3    H231408   4.359   7.600   5.264
10489TIP3   OH231409   3.865   0.198   6.630
10489TIP3    H131410   3.873   0.206   6.535
10489TIP3    H231411   3.836   0.108   6.644
10490TIP3   OH231412   6.948   0.790   3.146
10490TIP3    H131413   6.890   0.753   3.212
10490TIP3    H231414   6.940   0.885   3.158
10491TIP3   OH231415   7.992   5.228   2.041
10491TIP3    H131416   7.898   5.215   2.058
10491TIP3    H231417   8.004   5.203   1.950
10492TIP3   OH231418   3.261   1.323   1.834
10492TIP3    H131419   3.309   1.319   1.916
10492TIP3    H231420   3.234   1.232   1.818
10493TIP3   OH231421   2.281   6.237   4.241
10493TIP3    H131422   2.327   6.321   4.237
10493TIP3    H231423   2.273   6.210   4.150
10494TIP3   OH231424   2.914   5.812   6.005
10494TIP3    H131425   3.006   5.834   6.024
10494TIP3    H231426   2.884   5.768   6.084
10495TIP3   OH231427   6.479   3.608   6.437
10495TIP3    H131428   6.557   3.615   6.383
10495TIP3    H231429   6.508   3.631   6.525
10496TIP3   OH231430   3.520   4.787   2.764
10496TIP3    H131431   3.525   4.714   2.702
10496TIP3    H231432   3.590   4.847   2.736
10497TIP3   OH231433   4.166   6.927   0.957
10497TIP3    H131434   4.257   6.955   0.959
10497TIP3    H231435   4.168   6.839   0.919
10498TIP3   OH231436   0.530   2.365   6.231
10498TIP3    H131437   0.503   2.278   6.203
10498TIP3    H231438   0.461   2.423   6.199
10499TIP3   OH231439   3.006   2.004   2.035
10499TIP3    H131440   3.092   1.965   2.054
10499TIP3    H231441   2.992   1.987   1.942
10500TIP3   OH231442   7.132   0.610   1.688
10500TIP3    H131443   7.129   0.655   1.604
10500TIP3    H231444   7.178   0.528   1.670
10501TIP3   OH231445   4.689   1.826   5.577
10501TIP3    H131446   4.604   1.805   5.539
10501TIP3    H231447   4.744   1.849   5.502
10502TIP3   OH231448   4.672   5.186   0.057
10502TIP3    H131449   4.729   5.114   0.086
10502TIP3    H231450   4.605   5.143   0.004
10503TIP3   OH231451   7.552   3.219   6.148
10503TIP3    H131452   7.489   3.287   6.171
10503TIP3    H231453   7.570   3.175   6.231
10504TIP3   OH231454   3.668   3.302   1.479
10504TIP3    H131455   3.742   3.308   1.419
10504TIP3    H231456   3.669   3.211   1.508
10505TIP3   OH231457   7.051   3.078   2.784
10505TIP3    H131458   7.048   3.152   2.723
10505TIP3    H231459   6.989   3.015   2.749
10506TIP3   OH231460   6.155   0.703   6.740
10506TIP3    H131461   6.078   0.646   6.750
10506TIP3    H231462   6.151   0.761   6.816
10507TIP3   OH231463   5.729   3.800   2.208
10507TIP3    H131464   5.692   3.759   2.129
10507TIP3    H231465   5.682   3.757   2.280
10508TIP3   OH231466   6.732   4.855   6.060
10508TIP3    H131467   6.666   4.859   6.130
10508TIP3    H231468   6.682   4.847   5.979
10509TIP3   OH231469   0.169   3.132   3.411
10509TIP3    H131470   0.232   3.111   3.342
10509TIP3    H231471   0.223   3.162   3.485
10510TIP3   OH231472   3.171   5.707   6.017
10510TIP3    H131473   3.133   5.621   6.037
10510TIP3    H231474   3.262   5.687   5.994
10511TIP3   OH231475   4.652   5.864   5.745
10511TIP3    H131476   4.736   5.817   5.748
10511TIP3    H231477   4.668   5.945   5.794
10512TIP3   OH231478   2.278   7.128   4.690
10512TIP3    H131479   2.289   7.096   4.600
10512TIP3    H231480   2.367   7.138   4.723
10513TIP3   OH231481   4.986   2.743   6.117
10513TIP3    H131482   5.047   2.697   6.175
10513TIP3    H231483   4.905   2.691   6.121
10514TIP3   OH231484   2.272   3.130   1.127
10514TIP3    H131485   2.288   3.193   1.196
10514TIP3    H231486   2.225   3.058   1.170
10515TIP3   OH231487   7.260   4.662   1.621
10515TIP3    H131488   7.337   4.705   1.585
10515TIP3    H231489   7.292   4.611   1.695
10516TIP3   OH231490   6.220   0.538   3.647
10516TIP3    H131491   6.295   0.495   3.606
10516TIP3    H231492   6.253   0.624   3.672
10517TIP3   OH231493   1.195   0.196   0.793
10517TIP3    H131494   1.122   0.192   0.854
10517TIP3    H231495   1.182   0.278   0.745
10518TIP3   OH231496   0.172   3.211   1.475
10518TIP3    H131497   0.265   3.192   1.471
10518TIP3    H231498   0.167   3.304   1.499
10519TIP3   OH231499   5.073   2.798   0.229
10519TIP3    H131500   5.037   2.821   0.143
10519TIP3    H231501   5.080   2.703   0.227
10520TIP3   OH231502   3.731   3.455   0.906
10520TIP3    H131503   3.733   3.364   0.937
10520TIP3    H231504   3.739   3.508   0.985
10521TIP3   OH231505   2.875   2.602   0.233
10521TIP3    H131506   2.814   2.625   0.162
10521TIP3    H231507   2.821   2.604   0.312
10522TIP3   OH231508   2.233   0.394   5.024
10522TIP3    H131509   2.153   0.384   4.973
10522TIP3    H231510   2.203   0.429   5.108
10523TIP3   OH231511   0.099   6.873   6.758
10523TIP3    H131512   0.099   6.781   6.787
10523TIP3    H231513   0.014   6.884   6.715
10524TIP3   OH231514   7.816   2.187   4.902
10524TIP3    H131515   7.837   2.271   4.943
10524TIP3    H231516   7.897   2.136   4.912
10525TIP3   OH231517   1.987   0.156   0.996
10525TIP3    H131518   1.979   0.215   1.071
10525TIP3    H231519   1.896   0.144   0.967
10526TIP3   OH231520   1.668   3.459   0.426
10526TIP3    H131521   1.649   3.396   0.357
10526TIP3    H231522   1.695   3.405   0.501
10527TIP3   OH231523   7.253   1.840   5.021
10527TIP3    H131524   7.329   1.800   4.980
10527TIP3    H231525   7.225   1.908   4.960
10528TIP3   OH231526   6.178   3.564   2.962
10528TIP3    H131527   6.097   3.602   2.927
10528TIP3    H231528   6.217   3.635   3.013
10529TIP3   OH231529   7.121   1.943   5.886
10529TIP3    H131530   7.029   1.956   5.911
10529TIP3    H231531   7.126   1.850   5.862
10530TIP3   OH231532   4.934   0.371   5.715
10530TIP3    H131533   4.890   0.312   5.653
10530TIP3    H231534   4.900   0.345   5.800
10531TIP3   OH231535   1.228   3.198   4.093
10531TIP3    H131536   1.168   3.272   4.085
10531TIP3    H231537   1.184   3.127   4.045
10532TIP3   OH231538   1.393   7.027   0.408
10532TIP3    H131539   1.327   6.992   0.349
10532TIP3    H231540   1.474   7.024   0.358
10533TIP3   OH231541   1.486   2.093   6.020
10533TIP3    H131542   1.557   2.067   6.079
10533TIP3    H231543   1.442   2.011   5.997
10534TIP3   OH231544   2.357   1.430   3.023
10534TIP3    H131545   2.307   1.504   2.989
10534TIP3    H231546   2.296   1.385   3.081
10535TIP3   OH231547   5.253   0.047   6.694
10535TIP3    H131548   5.318   0.013   6.756
10535TIP3    H231549   5.306   0.084   6.623
10536TIP3   OH231550   0.498   2.415   1.038
10536TIP3    H131551   0.493   2.510   1.026
10536TIP3    H231552   0.559   2.386   0.970
10537TIP3   OH231553   6.037   5.486   4.813
10537TIP3    H131554   6.068   5.411   4.762
10537TIP3    H231555   5.963   5.521   4.763
10538TIP3   OH231556   3.812   3.664   6.163
10538TIP3    H131557   3.872   3.633   6.231
10538TIP3    H231558   3.844   3.751   6.140
10539TIP3   OH231559   5.930   7.394   0.930
10539TIP3    H131560   5.929   7.490   0.926
10539TIP3    H231561   5.911   7.374   1.022
10540TIP3   OH231562   6.903   7.711   3.686
10540TIP3    H131563   6.855   7.650   3.741
10540TIP3    H231564   6.986   7.667   3.667
10541TIP3   OH231565   5.978   3.085   4.290
10541TIP3    H131566   6.024   3.155   4.244
10541TIP3    H231567   6.001   3.098   4.382
10542TIP3   OH231568   7.753   4.219   1.553
10542TIP3    H131569   7.687   4.243   1.619
10542TIP3    H231570   7.701   4.190   1.477
10543TIP3   OH231571   4.932   5.663   1.660
10543TIP3    H131572   5.009   5.697   1.705
10543TIP3    H231573   4.944   5.568   1.659
10544TIP3   OH231574   2.584   0.319   2.991
10544TIP3    H131575   2.622   0.268   2.920
10544TIP3    H231576   2.659   0.345   3.044
10545TIP3   OH231577   5.671   7.090   5.642
10545TIP3    H131578   5.685   7.175   5.599
10545TIP3    H231579   5.675   7.026   5.571
10546TIP3   OH231580   5.213   6.942   2.175
10546TIP3    H131581   5.287   7.002   2.181
10546TIP3    H231582   5.202   6.909   2.264
10547TIP3   OH231583   5.041   7.577   1.203
10547TIP3    H131584   4.950   7.551   1.189
10547TIP3    H231585   5.048   7.663   1.163
10548TIP3   OH231586   7.979   0.806   5.887
10548TIP3    H131587   8.009   0.830   5.974
10548TIP3    H231588   8.034   0.732   5.861
10549TIP3   OH231589   8.066   6.534   6.050
10549TIP3    H131590   8.043   6.495   5.965
10549TIP3    H231591   8.052   6.464   6.113
10550TIP3   OH231592   0.747   1.199   3.532
10550TIP3    H131593   0.817   1.259   3.506
10550TIP3    H231594   0.785   1.148   3.604
10551TIP3   OH231595   8.005   5.962   0.059
10551TIP3    H131596   7.916   5.993   0.038
10551TIP3    H231597   7.998   5.928   0.148
10552TIP3   OH231598   5.369   6.566   0.679
10552TIP3    H131599   5.324   6.497   0.631
10552TIP3    H231600   5.439   6.520   0.727
10553TIP3   OH231601   6.168   7.657   0.140
10553TIP3    H131602   6.174   7.751   0.125
10553TIP3    H231603   6.079   7.643   0.173
10554TIP3   OH231604   5.263   6.739   3.531
10554TIP3    H131605   5.249   6.679   3.604
10554TIP3    H231606   5.178   6.781   3.518
10555TIP3   OH231607   0.637   2.151   4.418
10555TIP3    H131608   0.571   2.194   4.363
10555TIP3    H231609   0.715   2.206   4.407
10556TIP3   OH231610   8.249   3.950   2.477
10556TIP3    H131611   8.297   4.028   2.449
10556TIP3    H231612   8.302   3.915   2.549
10557TIP3   OH231613   2.433   4.618   0.995
10557TIP3    H131614   2.441   4.682   1.066
10557TIP3    H231615   2.339   4.611   0.978
10558TIP3   OH231616   7.900   6.628   6.609
10558TIP3    H131617   7.884   6.691   6.679
10558TIP3    H231618   7.948   6.677   6.542
10559TIP3   OH231619   0.437   1.535   3.089
10559TIP3    H131620   0.464   1.447   3.115
10559TIP3    H231621   0.493   1.594   3.141
10560TIP3   OH231622   1.130   4.163   5.420
10560TIP3    H131623   1.042   4.199   5.408
10560TIP3    H231624   1.158   4.197   5.504
10561TIP3   OH231625   6.496   1.597   4.041
10561TIP3    H131626   6.483   1.689   4.065
10561TIP3    H231627   6.487   1.550   4.124
10562TIP3   OH231628   4.131   4.348   5.858
10562TIP3    H131629   4.036   4.363   5.859
10562TIP3    H231630   4.166   4.413   5.919
10563TIP3   OH231631   4.448   7.166   2.065
10563TIP3    H131632   4.358   7.157   2.098
10563TIP3    H231633   4.492   7.086   2.093
10564TIP3   OH231634   7.157   7.185   5.222
10564TIP3    H131635   7.062   7.176   5.220
10564TIP3    H231636   7.174   7.262   5.168
10565TIP3   OH231637   7.961   7.288   0.533
10565TIP3    H131638   7.982   7.219   0.470
10565TIP3    H231639   7.988   7.369   0.489
10566TIP3   OH231640   6.914   7.506   1.270
10566TIP3    H131641   6.882   7.552   1.193
10566TIP3    H231642   6.907   7.570   1.341
10567TIP3   OH231643   0.913   4.045   0.498
10567TIP3    H131644   0.868   4.124   0.527
10567TIP3    H231645   1.006   4.061   0.517
10568TIP3   OH231646   0.564   4.364   0.626
10568TIP3    H131647   0.580   4.457   0.611
10568TIP3    H231648   0.613   4.320   0.557
10569TIP3   OH231649   5.720   1.374   6.172
10569TIP3    H131650   5.795   1.416   6.128
10569TIP3    H231651   5.664   1.345   6.100
10570TIP3   OH231652   7.738   6.703   1.458
10570TIP3    H131653   7.779   6.765   1.520
10570TIP3    H231654   7.811   6.649   1.427
10571TIP3   OH231655   8.223   3.864   3.026
10571TIP3    H131656   8.159   3.933   3.044
10571TIP3    H231657   8.304   3.911   3.005
10572TIP3   OH231658   7.902   5.337   2.488
10572TIP3    H131659   7.839   5.330   2.416
10572TIP3    H231660   7.854   5.306   2.565
10573TIP3   OH231661   2.216   0.275   0.207
10573TIP3    H131662   2.266   0.329   0.145
10573TIP3    H231663   2.159   0.338   0.252
10574TIP3   OH231664   2.695   5.024   6.421
10574TIP3    H131665   2.758   5.033   6.493
10574TIP3    H231666   2.622   5.081   6.447
10575TIP3   OH231667   4.988   4.065   1.273
10575TIP3    H131668   4.935   3.987   1.291
10575TIP3    H231669   4.957   4.130   1.335
10576TIP3   OH231670   7.158   4.142   4.149
10576TIP3    H131671   7.084   4.134   4.210
10576TIP3    H231672   7.124   4.195   4.077
10577TIP3   OH231673   2.971   5.455   3.994
10577TIP3    H131674   2.969   5.505   4.075
10577TIP3    H231675   2.899   5.491   3.942
10578TIP3   OH231676   3.999   2.492   6.602
10578TIP3    H131677   4.083   2.468   6.642
10578TIP3    H231678   3.946   2.413   6.610
10579TIP3   OH231679   5.707   1.037   5.354
10579TIP3    H131680   5.646   1.021   5.282
10579TIP3    H231681   5.784   0.986   5.331
10580TIP3   OH231682   0.117   1.814   4.416
10580TIP3    H131683   0.105   1.908   4.402
10580TIP3    H231684   0.032   1.784   4.448
10581TIP3   OH231685   7.199   5.068   0.885
10581TIP3    H131686   7.241   4.993   0.842
10581TIP3    H231687   7.166   5.121   0.813
10582TIP3   OH231688   7.392   6.338   4.284
10582TIP3    H131689   7.389   6.280   4.361
10582TIP3    H231690   7.388   6.426   4.320
10583TIP3   OH231691   1.580   1.621   3.787
10583TIP3    H131692   1.510   1.675   3.823
10583TIP3    H231693   1.609   1.567   3.861
10584TIP3   OH231694   7.789   1.034   2.595
10584TIP3    H131695   7.695   1.023   2.581
10584TIP3    H231696   7.796   1.078   2.679
10585TIP3   OH231697   6.709   5.239   4.412
10585TIP3    H131698   6.787   5.245   4.358
10585TIP3    H231699   6.646   5.190   4.359
10586TIP3   OH231700   1.410   7.639   2.544
10586TIP3    H131701   1.381   7.698   2.614
10586TIP3    H231702   1.458   7.695   2.484
10587TIP3   OH231703   4.573   4.440   5.411
10587TIP3    H131704   4.619   4.440   5.495
10587TIP3    H231705   4.621   4.376   5.358
10588TIP3   OH231706   4.941   5.298   6.205
10588TIP3    H131707   4.937   5.204   6.187
10588TIP3    H231708   5.023   5.310   6.253
10589TIP3   OH231709   1.898   0.318   2.763
10589TIP3    H131710   1.939   0.293   2.680
10589TIP3    H231711   1.951   0.275   2.830
10590TIP3   OH231712   6.043   6.864   0.337
10590TIP3    H131713   6.123   6.898   0.376
10590TIP3    H231714   5.982   6.938   0.339
10591TIP3   OH231715   4.709   0.041   0.147
10591TIP3    H131716   4.763   0.009   0.075
10591TIP3    H231717   4.687   0.131   0.123
10592TIP3   OH231718   8.081   2.324   1.795
10592TIP3    H131719   8.000   2.372   1.809
10592TIP3    H231720   8.120   2.365   1.717
10593TIP3   OH231721   3.147   1.696   5.629
10593TIP3    H131722   3.082   1.725   5.565
10593TIP3    H231723   3.162   1.604   5.606
10594TIP3   OH231724   8.130   0.486   4.996
10594TIP3    H131725   8.063   0.419   4.979
10594TIP3    H231726   8.188   0.444   5.060
10595TIP3   OH231727   6.023   7.070   2.603
10595TIP3    H131728   6.043   7.001   2.540
10595TIP3    H231729   6.040   7.031   2.688
10596TIP3   OH231730   7.041   0.786   0.459
10596TIP3    H131731   6.979   0.791   0.387
10596TIP3    H231732   7.014   0.856   0.519
10597TIP3   OH231733   1.967   0.285   0.059
10597TIP3    H131734   2.045   0.260   0.109
10597TIP3    H231735   1.926   0.202   0.036
10598TIP3   OH231736   0.675   0.482   2.932
10598TIP3    H131737   0.740   0.550   2.916
10598TIP3    H231738   0.627   0.512   3.009
10599TIP3   OH231739   3.992   5.916   4.929
10599TIP3    H131740   3.994   5.961   5.014
10599TIP3    H231741   3.905   5.936   4.893
10600TIP3   OH231742   6.238   3.012   4.493
10600TIP3    H131743   6.226   2.963   4.573
10600TIP3    H231744   6.188   3.093   4.507
10601TIP3   OH231745   4.631   3.226   5.172
10601TIP3    H131746   4.660   3.187   5.254
10601TIP3    H231747   4.592   3.154   5.123
10602TIP3   OH231748   2.549   0.148   5.648
10602TIP3    H131749   2.634   0.151   5.604
10602TIP3    H231750   2.503   0.075   5.607
10603TIP3   OH231751   4.670   1.919   0.568
10603TIP3    H131752   4.670   1.998   0.514
10603TIP3    H231753   4.589   1.925   0.620
10604TIP3   OH231754   2.430   1.454   5.258
10604TIP3    H131755   2.438   1.534   5.205
10604TIP3    H231756   2.339   1.427   5.246
10605TIP3   OH231757   7.173   5.585   6.631
10605TIP3    H131758   7.192   5.663   6.579
10605TIP3    H231759   7.202   5.608   6.719
10606TIP3   OH231760   6.104   7.744   1.101
10606TIP3    H131761   6.012   7.755   1.078
10606TIP3    H231762   6.120   7.650   1.095
10607TIP3   OH231763   3.129   5.411   6.120
10607TIP3    H131764   3.128   5.340   6.056
10607TIP3    H231765   3.042   5.410   6.160
10608TIP3   OH231766   6.114   1.029   6.648
10608TIP3    H131767   6.025   0.994   6.651
10608TIP3    H231768   6.128   1.064   6.736
10609TIP3   OH231769   3.825   1.023   0.639
10609TIP3    H131770   3.761   1.092   0.623
10609TIP3    H231771   3.901   1.047   0.586
10610TIP3   OH231772   0.596   1.736   4.132
10610TIP3    H131773   0.540   1.697   4.199
10610TIP3    H231774   0.671   1.676   4.126
10611TIP3   OH231775   2.738   2.821   4.148
10611TIP3    H131776   2.737   2.736   4.192
10611TIP3    H231777   2.648   2.853   4.157
10612TIP3   OH231778   1.732   5.706   1.640
10612TIP3    H131779   1.760   5.791   1.675
10612TIP3    H231780   1.813   5.665   1.608
10613TIP3   OH231781   4.793   3.871   1.309
10613TIP3    H131782   4.803   3.875   1.404
10613TIP3    H231783   4.730   3.800   1.294
10614TIP3   OH231784   5.312   6.581   1.621
10614TIP3    H131785   5.396   6.565   1.579
10614TIP3    H231786   5.322   6.546   1.710
10615TIP3   OH231787   3.016   1.317   2.616
10615TIP3    H131788   2.989   1.402   2.651
10615TIP3    H231789   3.015   1.258   2.692
10616TIP3   OH231790   3.169   0.254   1.525
10616TIP3    H131791   3.126   0.181   1.480
10616TIP3    H231792   3.174   0.323   1.459
10617TIP3   OH231793   0.469   7.753   3.486
10617TIP3    H131794   0.531   7.825   3.496
10617TIP3    H231795   0.387   7.786   3.522
10618TIP3   OH231796   2.447   0.276   4.438
10618TIP3    H131797   2.361   0.298   4.402
10618TIP3    H231798   2.434   0.274   4.533
10619TIP3   OH231799   5.177   7.155   3.799
10619TIP3    H131800   5.183   7.228   3.861
10619TIP3    H231801   5.257   7.161   3.747
10620TIP3   OH231802   1.658   5.715   0.874
10620TIP3    H131803   1.739   5.733   0.827
10620TIP3    H231804   1.623   5.801   0.895
10621TIP3   OH231805   1.498   2.288   3.549
10621TIP3    H131806   1.500   2.286   3.454
10621TIP3    H231807   1.532   2.203   3.577
10622TIP3   OH231808   2.206   6.693   2.313
10622TIP3    H131809   2.213   6.781   2.276
10622TIP3    H231810   2.280   6.687   2.374
10623TIP3   OH231811   4.969   2.134   2.143
10623TIP3    H131812   5.052   2.090   2.164
10623TIP3    H231813   4.933   2.157   2.229
10624TIP3   OH231814   2.473   0.215   5.046
10624TIP3    H131815   2.424   0.134   5.029
10624TIP3    H231816   2.406   0.279   5.070
10625TIP3   OH231817   1.784   4.082   6.663
10625TIP3    H131818   1.868   4.039   6.646
10625TIP3    H231819   1.777   4.086   6.758
10626TIP3   OH231820   7.236   2.059   3.651
10626TIP3    H131821   7.245   2.122   3.723
10626TIP3    H231822   7.233   2.114   3.572
10627TIP3   OH231823   8.291   7.130   5.290
10627TIP3    H131824   8.199   7.111   5.273
10627TIP3    H231825   8.334   7.045   5.283
10628TIP3   OH231826   4.376   7.036   5.651
10628TIP3    H131827   4.309   6.995   5.706
10628TIP3    H231828   4.413   7.104   5.707
10629TIP3   OH231829   5.957   0.109   0.208
10629TIP3    H131830   5.873   0.108   0.255
10629TIP3    H231831   5.958   0.194   0.163
10630TIP3   OH231832   0.401   0.466   6.618
10630TIP3    H131833   0.370   0.545   6.575
10630TIP3    H231834   0.433   0.495   6.703
10631TIP3   OH231835   1.945   6.148   3.462
10631TIP3    H131836   1.886   6.077   3.435
10631TIP3    H231837   1.972   6.189   3.380
10632TIP3   OH231838   4.545   5.068   4.050
10632TIP3    H131839   4.586   5.128   4.112
10632TIP3    H231840   4.454   5.062   4.080
10633TIP3   OH231841   1.640   3.636   3.265
10633TIP3    H131842   1.600   3.618   3.349
10633TIP3    H231843   1.717   3.689   3.285
10634TIP3   OH231844   6.896   6.725   4.727
10634TIP3    H131845   6.876   6.802   4.673
10634TIP3    H231846   6.908   6.760   4.815
10635TIP3   OH231847   0.872   7.755   5.644
10635TIP3    H131848   0.870   7.662   5.623
10635TIP3    H231849   0.784   7.786   5.624
10636TIP3   OH231850   7.117   5.315   3.433
10636TIP3    H131851   7.075   5.249   3.377
10636TIP3    H231852   7.195   5.341   3.384
10637TIP3   OH231853   5.709   4.256   5.626
10637TIP3    H131854   5.729   4.288   5.538
10637TIP3    H231855   5.629   4.204   5.615
10638TIP3   OH231856   6.983   4.822   6.242
10638TIP3    H131857   6.915   4.831   6.175
10638TIP3    H231858   7.012   4.731   6.234
10639TIP3   OH231859   0.306   5.421   5.969
10639TIP3    H131860   0.383   5.408   5.913
10639TIP3    H231861   0.243   5.466   5.913
10640TIP3   OH231862   4.488   7.651   2.927
10640TIP3    H131863   4.477   7.669   2.833
10640TIP3    H231864   4.526   7.563   2.930
10641TIP3   OH231865   3.547   4.366   1.435
10641TIP3    H131866   3.532   4.420   1.512
10641TIP3    H231867   3.585   4.285   1.469
10642TIP3   OH231868   7.940   5.933   3.814
10642TIP3    H131869   7.924   5.902   3.903
10642TIP3    H231870   7.992   5.863   3.774
10643TIP3   OH231871   6.638   6.802   5.782
10643TIP3    H131872   6.680   6.735   5.837
10643TIP3    H231873   6.545   6.779   5.784
10644TIP3   OH231874   7.769   2.928   1.363
10644TIP3    H131875   7.695   2.909   1.421
10644TIP3    H231876   7.816   3.000   1.407
10645TIP3   OH231877   3.023   1.995   0.762
10645TIP3    H131878   2.965   1.920   0.774
10645TIP3    H231879   3.110   1.956   0.750
10646TIP3   OH231880   7.878   0.710   5.294
10646TIP3    H131881   7.804   0.680   5.242
10646TIP3    H231882   7.947   0.726   5.230
10647TIP3   OH231883   1.874   3.032   4.644
10647TIP3    H131884   1.782   3.013   4.627
10647TIP3    H231885   1.876   3.126   4.665
10648TIP3   OH231886   3.108   3.731   0.714
10648TIP3    H131887   3.099   3.676   0.792
10648TIP3    H231888   3.180   3.691   0.664
10649TIP3   OH231889   5.010   7.090   2.970
10649TIP3    H131890   4.965   7.174   2.963
10649TIP3    H231891   5.095   7.112   3.008
10650TIP3   OH231892   6.753   4.015   1.461
10650TIP3    H131893   6.799   4.049   1.384
10650TIP3    H231894   6.808   4.042   1.535
10651TIP3   OH231895   0.993   2.015   2.613
10651TIP3    H131896   0.988   2.083   2.546
10651TIP3    H231897   0.999   1.933   2.564
10652TIP3   OH231898   5.504   6.536   2.263
10652TIP3    H131899   5.473   6.565   2.349
10652TIP3    H231900   5.446   6.463   2.240
10653TIP3   OH231901   3.607   1.220   1.397
10653TIP3    H131902   3.674   1.210   1.466
10653TIP3    H231903   3.530   1.176   1.432
10654TIP3   OH231904   6.826   4.208   0.715
10654TIP3    H131905   6.868   4.179   0.634
10654TIP3    H231906   6.864   4.153   0.783
10655TIP3   OH231907   1.474   3.660   4.323
10655TIP3    H131908   1.530   3.591   4.288
10655TIP3    H231909   1.388   3.619   4.334
10656TIP3   OH231910   1.651   1.134   6.032
10656TIP3    H131911   1.715   1.199   6.063
10656TIP3    H231912   1.700   1.079   5.972
10657TIP3   OH231913   5.836   4.291   4.944
10657TIP3    H131914   5.828   4.376   4.901
10657TIP3    H231915   5.875   4.234   4.877
10658TIP3   OH231916   7.314   0.128   5.853
10658TIP3    H131917   7.303   0.036   5.828
10658TIP3    H231918   7.267   0.136   5.936
10659TIP3   OH231919   2.486   6.122   5.413
10659TIP3    H131920   2.532   6.098   5.333
10659TIP3    H231921   2.540   6.087   5.483
10660TIP3   OH231922   0.016   7.279   4.139
10660TIP3    H131923   0.006   7.304   4.231
10660TIP3    H231924   0.028   7.184   4.142
10661TIP3   OH231925   7.591   2.158   2.795
10661TIP3    H131926   7.678   2.198   2.797
10661TIP3    H231927   7.564   2.165   2.703
10662TIP3   OH231928   6.432   5.192   3.317
10662TIP3    H131929   6.348   5.153   3.291
10662TIP3    H231930   6.468   5.226   3.236
10663TIP3   OH231931   7.231   3.314   5.923
10663TIP3    H131932   7.167   3.244   5.937
10663TIP3    H231933   7.297   3.275   5.865
10664TIP3   OH231934   5.203   2.919   1.435
10664TIP3    H131935   5.238   2.934   1.348
10664TIP3    H231936   5.215   2.825   1.451
10665TIP3   OH231937   1.058   1.325   0.336
10665TIP3    H131938   0.997   1.378   0.388
10665TIP3    H231939   1.004   1.251   0.306
10666TIP3   OH231940   8.032   2.517   3.828
10666TIP3    H131941   8.003   2.522   3.737
10666TIP3    H231942   8.095   2.445   3.830
10667TIP3   OH231943   3.079   6.418   3.857
10667TIP3    H131944   3.136   6.341   3.854
10667TIP3    H231945   3.133   6.488   3.822
10668TIP3   OH231946   6.812   1.675   3.189
10668TIP3    H131947   6.839   1.609   3.253
10668TIP3    H231948   6.884   1.738   3.189
10669TIP3   OH231949   6.118   6.688   1.828
10669TIP3    H131950   6.174   6.613   1.808
10669TIP3    H231951   6.175   6.749   1.874
10670TIP3   OH231952   1.037   0.149   4.663
10670TIP3    H131953   1.119   0.165   4.711
10670TIP3    H231954   1.028   0.225   4.605
10671TIP3   OH231955   6.767   6.765   4.036
10671TIP3    H131956   6.811   6.813   3.965
10671TIP3    H231957   6.796   6.674   4.026
10672TIP3   OH231958   7.910   2.875   4.351
10672TIP3    H131959   7.954   2.838   4.274
10672TIP3    H231960   7.980   2.888   4.414
10673TIP3   OH231961   4.400   6.606   1.068
10673TIP3    H131962   4.457   6.624   1.143
10673TIP3    H231963   4.442   6.650   0.994
10674TIP3   OH231964   7.275   4.231   4.980
10674TIP3    H131965   7.232   4.149   4.957
10674TIP3    H231966   7.203   4.294   4.988
10675TIP3   OH231967   5.710   2.183   1.946
10675TIP3    H131968   5.645   2.155   2.011
10675TIP3    H231969   5.698   2.278   1.940
10676TIP3   OH231970   3.605   0.184   0.930
10676TIP3    H131971   3.582   0.254   0.869
10676TIP3    H231972   3.527   0.128   0.934
10677TIP3   OH231973   0.157   3.365   1.004
10677TIP3    H131974   0.102   3.345   0.927
10677TIP3    H231975   0.095   3.400   1.068
10678TIP3   OH231976   7.291   7.292   4.148
10678TIP3    H131977   7.355   7.225   4.124
10678TIP3    H231978   7.230   7.296   4.074
10679TIP3   OH231979   3.494   7.007   4.153
10679TIP3    H131980   3.513   7.085   4.205
10679TIP3    H231981   3.462   6.943   4.217
10680TIP3   OH231982   7.354   4.324   3.552
10680TIP3    H131983   7.311   4.267   3.615
10680TIP3    H231984   7.412   4.265   3.503
10681TIP3   OH231985   7.167   3.019   0.162
10681TIP3    H131986   7.202   3.031   0.250
10681TIP3    H231987   7.199   3.095   0.113
10682TIP3   OH231988   0.733   5.659   3.183
10682TIP3    H131989   0.668   5.599   3.147
10682TIP3    H231990   0.748   5.723   3.113
10683TIP3   OH231991   7.632   5.553   6.657
10683TIP3    H131992   7.720   5.590   6.667
10683TIP3    H231993   7.589   5.572   6.740
10684TIP3   OH231994   1.690   4.863   1.080
10684TIP3    H131995   1.722   4.947   1.113
10684TIP3    H231996   1.694   4.805   1.155
10685TIP3   OH231997   2.967   6.089   5.709
10685TIP3    H131998   2.965   6.184   5.724
10685TIP3    H231999   3.010   6.053   5.787
10686TIP3   OH232000   4.250   5.680   1.292
10686TIP3    H132001   4.333   5.702   1.333
10686TIP3    H232002   4.185   5.731   1.340
10687TIP3   OH232003   2.643   4.146   2.210
10687TIP3    H132004   2.711   4.175   2.149
10687TIP3    H232005   2.574   4.111   2.154
10688TIP3   OH232006   5.659   2.699   2.699
10688TIP3    H132007   5.653   2.736   2.610
10688TIP3    H232008   5.595   2.629   2.699
10689TIP3   OH232009   2.379   1.122   2.149
10689TIP3    H132010   2.427   1.197   2.184
10689TIP3    H232011   2.343   1.078   2.227
10690TIP3   OH232012   5.390   7.480   4.935
10690TIP3    H132013   5.437   7.399   4.950
10690TIP3    H232014   5.389   7.524   5.020
10691TIP3   OH232015   6.480   7.571   6.252
10691TIP3    H132016   6.560   7.590   6.203
10691TIP3    H232017   6.409   7.603   6.196
10692TIP3   OH232018   6.244   4.219   6.375
10692TIP3    H132019   6.170   4.179   6.330
10692TIP3    H232020   6.264   4.159   6.447
10693TIP3   OH232021   4.736   3.444   3.703
10693TIP3    H132022   4.677   3.483   3.638
10693TIP3    H232023   4.809   3.505   3.707
10694TIP3   OH232024   2.455   0.016   4.700
10694TIP3    H132025   2.472   0.109   4.711
10694TIP3    H232026   2.449  -0.018   4.789
10695TIP3   OH232027   6.697   7.292   5.949
10695TIP3    H132028   6.763   7.324   6.010
10695TIP3    H232029   6.738   7.215   5.909
10696TIP3   OH232030   4.488   2.657   2.449
10696TIP3    H132031   4.483   2.598   2.524
10696TIP3    H232032   4.419   2.721   2.464
10697TIP3   OH232033   3.091   2.882   6.360
10697TIP3    H132034   3.124   2.951   6.303
10697TIP3    H232035   2.997   2.899   6.366
10698TIP3   OH232036   3.244   4.264   0.415
10698TIP3    H132037   3.256   4.177   0.454
10698TIP3    H232038   3.229   4.247   0.322
10699TIP3   OH232039   1.338   4.768   0.992
10699TIP3    H132040   1.245   4.756   0.972
10699TIP3    H232041   1.380   4.770   0.906
10700TIP3   OH232042   4.005   1.438   6.078
10700TIP3    H132043   4.061   1.359   6.076
10700TIP3    H232044   4.060   1.507   6.041
10701TIP3   OH232045   0.331   4.542   3.279
10701TIP3    H132046   0.291   4.593   3.349
10701TIP3    H232047   0.406   4.499   3.320
10702TIP3   OH232048   8.274   3.716   5.718
10702TIP3    H132049   8.292   3.719   5.624
10702TIP3    H232050   8.182   3.743   5.725
10703TIP3   OH232051   6.680   6.681   0.401
10703TIP3    H132052   6.650   6.699   0.490
10703TIP3    H232053   6.628   6.739   0.346
10704TIP3   OH232054   7.302   1.219   1.050
10704TIP3    H132055   7.343   1.269   1.121
10704TIP3    H232056   7.232   1.169   1.093
10705TIP3   OH232057   3.846   7.383   2.190
10705TIP3    H132058   3.887   7.320   2.249
10705TIP3    H232059   3.913   7.402   2.124
10706TIP3   OH232060   4.473   2.166   1.727
10706TIP3    H132061   4.502   2.222   1.799
10706TIP3    H232062   4.544   2.170   1.663
10707TIP3   OH232063   3.090   5.561   1.927
10707TIP3    H132064   3.011   5.506   1.930
10707TIP3    H232065   3.157   5.505   1.887
10708TIP3   OH232066   3.050   6.466   2.846
10708TIP3    H132067   2.996   6.388   2.854
10708TIP3    H232068   3.139   6.435   2.861
10709TIP3   OH232069   2.507   1.699   5.093
10709TIP3    H132070   2.579   1.686   5.032
10709TIP3    H232071   2.439   1.742   5.040
10710TIP3   OH232072   0.597   2.735   0.218
10710TIP3    H132073   0.634   2.659   0.173
10710TIP3    H232074   0.629   2.728   0.308
10711TIP3   OH232075   7.747   7.207   4.856
10711TIP3    H132076   7.796   7.290   4.861
10711TIP3    H232077   7.655   7.234   4.860
10712TIP3   OH232078   0.860   7.641   1.365
10712TIP3    H132079   0.929   7.589   1.324
10712TIP3    H232080   0.900   7.727   1.378
10713TIP3   OH232081   4.687   5.821   4.216
10713TIP3    H132082   4.779   5.808   4.236
10713TIP3    H232083   4.641   5.793   4.295
10714TIP3   OH232084   2.919   3.013   4.165
10714TIP3    H132085   2.866   3.080   4.208
10714TIP3    H232086   2.866   2.933   4.172
10715TIP3   OH232087   7.328   0.097   6.637
10715TIP3    H132088   7.366   0.176   6.600
10715TIP3    H232089   7.234   0.105   6.620
10716TIP3   OH232090   6.418   2.034   0.830
10716TIP3    H132091   6.477   2.094   0.785
10716TIP3    H232092   6.462   2.014   0.913
10717TIP3   OH232093   6.461   6.120   3.369
10717TIP3    H132094   6.407   6.189   3.407
10717TIP3    H232095   6.475   6.058   3.440
10718TIP3   OH232096   2.014   1.773   1.657
10718TIP3    H132097   1.958   1.847   1.681
10718TIP3    H232098   2.100   1.796   1.692
10719TIP3   OH232099   4.120   4.264   5.385
10719TIP3    H132100   4.060   4.338   5.384
10719TIP3    H232101   4.096   4.214   5.463
10720TIP3   OH232102   3.861   0.545   3.393
10720TIP3    H132103   3.777   0.580   3.364
10720TIP3    H232104   3.839   0.469   3.446
10721TIP3   OH232105   5.903   1.693   1.608
10721TIP3    H132106   5.922   1.613   1.559
10721TIP3    H232107   5.807   1.700   1.606
10722TIP3   OH232108   2.362   1.246   4.091
10722TIP3    H132109   2.439   1.255   4.148
10722TIP3    H232110   2.288   1.239   4.151
10723TIP3   OH232111   0.347   2.018   3.242
10723TIP3    H132112   0.442   2.022   3.232
10723TIP3    H232113   0.312   2.019   3.153
10724TIP3   OH232114   4.285   2.802   2.527
10724TIP3    H132115   4.203   2.850   2.534
10724TIP3    H232116   4.281   2.739   2.599
10725TIP3   OH232117   4.496   0.849   4.165
10725TIP3    H132118   4.416   0.891   4.197
10725TIP3    H232119   4.481   0.756   4.178
10726TIP3   OH232120   5.091   0.817   6.615
10726TIP3    H132121   5.011   0.847   6.572
10726TIP3    H232122   5.067   0.734   6.657
10727TIP3   OH232123   4.171   3.735   2.640
10727TIP3    H132124   4.183   3.807   2.578
10727TIP3    H232125   4.181   3.656   2.588
10728TIP3   OH232126   0.372   3.504   4.710
10728TIP3    H132127   0.362   3.425   4.765
10728TIP3    H232128   0.403   3.470   4.626
10729TIP3   OH232129   0.547   0.232   4.595
10729TIP3    H132130   0.597   0.272   4.524
10729TIP3    H232131   0.612   0.209   4.661
10730TIP3   OH232132   2.384   1.237   4.749
10730TIP3    H132133   2.303   1.188   4.735
10730TIP3    H232134   2.399   1.282   4.665
10731TIP3   OH232135   0.305   4.121   6.436
10731TIP3    H132136   0.220   4.158   6.411
10731TIP3    H232137   0.288   4.074   6.517
10732TIP3   OH232138   5.942   1.583   1.223
10732TIP3    H132139   5.935   1.489   1.206
10732TIP3    H232140   5.852   1.615   1.214
10733TIP3   OH232141   0.876   7.264   3.335
10733TIP3    H132142   0.945   7.282   3.271
10733TIP3    H232143   0.822   7.343   3.335
10734TIP3   OH232144   0.747   6.200   5.512
10734TIP3    H132145   0.671   6.176   5.459
10734TIP3    H232146   0.730   6.161   5.597
10735TIP3   OH232147   0.145   5.653   2.236
10735TIP3    H132148   0.213   5.610   2.185
10735TIP3    H232149   0.129   5.593   2.310
10736TIP3   OH232150   3.570   6.306   0.188
10736TIP3    H132151   3.605   6.356   0.114
10736TIP3    H232152   3.597   6.216   0.170
10737TIP3   OH232153   2.537   6.701   4.408
10737TIP3    H132154   2.583   6.772   4.363
10737TIP3    H232155   2.577   6.697   4.495
10738TIP3   OH232156   0.478   2.588   2.183
10738TIP3    H132157   0.442   2.670   2.149
10738TIP3    H232158   0.422   2.520   2.147
10739TIP3   OH232159   7.644   5.344   3.870
10739TIP3    H132160   7.680   5.406   3.806
10739TIP3    H232161   7.549   5.350   3.859
10740TIP3   OH232162   5.143   5.762   1.281
10740TIP3    H132163   5.231   5.766   1.318
10740TIP3    H232164   5.096   5.833   1.325
10741TIP3   OH232165   6.551   7.792   5.974
10741TIP3    H132166   6.621   7.729   5.956
10741TIP3    H232167   6.471   7.742   5.959
10742TIP3   OH232168   0.761   6.324   0.333
10742TIP3    H132169   0.743   6.417   0.316
10742TIP3    H232170   0.851   6.322   0.364
10743TIP3   OH232171   2.041   1.621   1.037
10743TIP3    H132172   2.006   1.708   1.054
10743TIP3    H232173   1.964   1.565   1.028
10744TIP3   OH232174   8.227   7.463   2.479
10744TIP3    H132175   8.318   7.489   2.462
10744TIP3    H232176   8.190   7.534   2.531
10745TIP3   OH232177   2.161   4.561   1.006
10745TIP3    H132178   2.168   4.520   1.092
10745TIP3    H232179   2.142   4.653   1.025
10746TIP3   OH232180   6.453   1.333   2.354
10746TIP3    H132181   6.417   1.273   2.420
10746TIP3    H232182   6.377   1.376   2.316
10747TIP3   OH232183   7.879   0.814   6.564
10747TIP3    H132184   7.915   0.848   6.646
10747TIP3    H232185   7.871   0.720   6.579
10748TIP3   OH232186   2.299   0.336   3.813
10748TIP3    H132187   2.351   0.416   3.821
10748TIP3    H232188   2.304   0.295   3.899
10749TIP3   OH232189   2.753   0.947   6.269
10749TIP3    H132190   2.722   1.037   6.256
10749TIP3    H232191   2.714   0.898   6.197
10750TIP3   OH232192   8.150   2.589   2.014
10750TIP3    H132193   8.079   2.531   2.042
10750TIP3    H232194   8.206   2.533   1.960
10751TIP3   OH232195   1.722   5.592   4.029
10751TIP3    H132196   1.804   5.543   4.017
10751TIP3    H232197   1.740   5.649   4.104
10752TIP3   OH232198   6.793   1.215   4.337
10752TIP3    H132199   6.731   1.226   4.410
10752TIP3    H232200   6.868   1.269   4.361
10753TIP3   OH232201   0.848   4.485   2.041
10753TIP3    H132202   0.874   4.422   1.973
10753TIP3    H232203   0.833   4.431   2.119
10754TIP3   OH232204   7.053   3.698   4.025
10754TIP3    H132205   7.084   3.754   3.954
10754TIP3    H232206   7.007   3.626   3.981
10755TIP3   OH232207   7.630   0.537   5.204
10755TIP3    H132208   7.625   0.487   5.123
10755TIP3    H232209   7.551   0.591   5.204
10756TIP3   OH232210   8.036   0.714   0.525
10756TIP3    H132211   7.990   0.681   0.448
10756TIP3    H232212   8.127   0.723   0.497
10757TIP3   OH232213   3.911   0.833   1.191
10757TIP3    H132214   3.903   0.915   1.241
10757TIP3    H232215   3.833   0.831   1.136
10758TIP3   OH232216   1.819   2.241   4.284
10758TIP3    H132217   1.761   2.201   4.219
10758TIP3    H232218   1.907   2.223   4.251
10759TIP3   OH232219   1.083   0.388   0.651
10759TIP3    H132220   1.083   0.480   0.625
10759TIP3    H232221   1.033   0.385   0.733
10760TIP3   OH232222   3.311   4.012   3.201
10760TIP3    H132223   3.356   4.077   3.255
10760TIP3    H232224   3.276   4.063   3.128
10761TIP3   OH232225   6.992   1.160   2.336
10761TIP3    H132226   6.902   1.154   2.370
10761TIP3    H232227   6.987   1.226   2.267
10762TIP3   OH232228   3.301   3.265   5.317
10762TIP3    H132229   3.324   3.315   5.395
10762TIP3    H232230   3.273   3.180   5.350
10763TIP3   OH232231   7.987   4.139   6.590
10763TIP3    H132232   7.990   4.202   6.518
10763TIP3    H232233   7.953   4.059   6.551
10764TIP3   OH232234   4.844   3.364   1.086
10764TIP3    H132235   4.785   3.333   1.017
10764TIP3    H232236   4.917   3.403   1.039
10765TIP3   OH232237   4.243   1.962   0.899
10765TIP3    H132238   4.253   1.870   0.921
10765TIP3    H232239   4.223   2.005   0.982
10766TIP3   OH232240   0.125   1.216   2.178
10766TIP3    H132241   0.197   1.276   2.202
10766TIP3    H232242   0.112   1.232   2.084
10767TIP3   OH232243   3.107   5.878   3.249
10767TIP3    H132244   3.130   5.889   3.341
10767TIP3    H232245   3.118   5.784   3.233
10768TIP3   OH232246   3.346   1.789   0.223
10768TIP3    H132247   3.417   1.739   0.183
10768TIP3    H232248   3.335   1.865   0.166
10769TIP3   OH232249   7.338   1.671   3.582
10769TIP3    H132250   7.358   1.610   3.511
10769TIP3    H232251   7.308   1.615   3.654
10770TIP3   OH232252   1.160   1.256   4.335
10770TIP3    H132253   1.183   1.335   4.384
10770TIP3    H232254   1.080   1.224   4.377
10771TIP3   OH232255   5.224   5.633   4.465
10771TIP3    H132256   5.150   5.672   4.511
10771TIP3    H232257   5.256   5.565   4.525
10772TIP3   OH232258   0.539   2.939   0.687
10772TIP3    H132259   0.477   2.939   0.614
10772TIP3    H232260   0.603   2.872   0.665
10773TIP3   OH232261   7.712   5.440   0.051
10773TIP3    H132262   7.715   5.364  -0.008
10773TIP3    H232263   7.736   5.514  -0.005
10774TIP3   OH232264   4.699   6.020   3.153
10774TIP3    H132265   4.753   5.944   3.172
10774TIP3    H232266   4.660   6.043   3.237
10775TIP3   OH232267   7.638   0.497   5.501
10775TIP3    H132268   7.650   0.496   5.406
10775TIP3    H232269   7.701   0.433   5.534
10776TIP3   OH232270   2.295   2.658   3.546
10776TIP3    H132271   2.311   2.746   3.513
10776TIP3    H232272   2.336   2.601   3.480
10777TIP3   OH232273   3.351   4.107   1.720
10777TIP3    H132274   3.371   4.029   1.772
10777TIP3    H232275   3.341   4.075   1.630
10778TIP3   OH232276   5.617   0.588   2.615
10778TIP3    H132277   5.622   0.650   2.543
10778TIP3    H232278   5.668   0.513   2.585
10779TIP3   OH232279   6.167   5.597   5.118
10779TIP3    H132280   6.220   5.521   5.095
10779TIP3    H232281   6.221   5.646   5.180
10780TIP3   OH232282   4.006   5.318   0.276
10780TIP3    H132283   4.095   5.338   0.304
10780TIP3    H232284   4.016   5.252   0.207
10781TIP3   OH232285   3.407   5.779   3.234
10781TIP3    H132286   3.347   5.716   3.273
10781TIP3    H232287   3.411   5.851   3.298
10782TIP3   OH232288   2.398   0.660   0.026
10782TIP3    H132289   2.378   0.569   0.044
10782TIP3    H232290   2.315   0.706   0.036
10783TIP3   OH232291   5.293   1.536   4.564
10783TIP3    H132292   5.313   1.483   4.487
10783TIP3    H232293   5.342   1.494   4.635
10784TIP3   OH232294   1.518   4.472   5.813
10784TIP3    H132295   1.543   4.390   5.772
10784TIP3    H232296   1.493   4.529   5.740
10785TIP3   OH232297   3.859   5.520   5.360
10785TIP3    H132298   3.765   5.534   5.347
10785TIP3    H232299   3.901   5.582   5.300
10786TIP3   OH232300   5.153   4.578   2.272
10786TIP3    H132301   5.221   4.550   2.211
10786TIP3    H232302   5.074   4.531   2.243
10787TIP3   OH232303   7.277   6.309   6.760
10787TIP3    H132304   7.186   6.300   6.790
10787TIP3    H232305   7.282   6.398   6.724
10788TIP3   OH232306   1.314   5.538   0.174
10788TIP3    H132307   1.320   5.512   0.266
10788TIP3    H232308   1.369   5.616   0.168
10789TIP3   OH232309   6.574   0.420   5.433
10789TIP3    H132310   6.483   0.405   5.456
10789TIP3    H232311   6.592   0.354   5.366
10790TIP3   OH232312   6.278   7.804   4.562
10790TIP3    H132313   6.370   7.786   4.585
10790TIP3    H232314   6.237   7.717   4.559
10791TIP3   OH232315   0.841   7.743   4.452
10791TIP3    H132316   0.793   7.760   4.533
10791TIP3    H232317   0.809   7.810   4.391
10792TIP3   OH232318   8.185   1.927   1.980
10792TIP3    H132319   8.113   1.873   2.012
10792TIP3    H232320   8.192   1.998   2.044
10793TIP3   OH232321   2.046   5.267   2.159
10793TIP3    H132322   2.064   5.361   2.163
10793TIP3    H232323   1.967   5.260   2.105
10794TIP3   OH232324   0.126   6.283   1.592
10794TIP3    H132325   0.142   6.216   1.526
10794TIP3    H232326   0.182   6.356   1.565
10795TIP3   OH232327   2.679   4.544   2.170
10795TIP3    H132328   2.732   4.547   2.250
10795TIP3    H232329   2.605   4.601   2.188
10796TIP3   OH232330   4.420   0.710   0.125
10796TIP3    H132331   4.357   0.754   0.182
10796TIP3    H232332   4.369   0.641   0.083
10797TIP3   OH232333   4.268   3.721   1.621
10797TIP3    H132334   4.287   3.713   1.715
10797TIP3    H232335   4.174   3.736   1.617
10798TIP3   OH232336   5.441   6.110   6.692
10798TIP3    H132337   5.534   6.103   6.669
10798TIP3    H232338   5.410   6.020   6.696
10799TIP3   OH232339   5.957   7.678   6.651
10799TIP3    H132340   5.946   7.761   6.606
10799TIP3    H232341   6.047   7.652   6.631
10800TIP3   OH232342   1.142   7.169   0.193
10800TIP3    H132343   1.184   7.196   0.111
10800TIP3    H232344   1.152   7.074   0.195
10801TIP3   OH232345   5.883   6.425   4.069
10801TIP3    H132346   5.978   6.426   4.084
10801TIP3    H232347   5.874   6.433   3.974
10802TIP3   OH232348   2.784   6.403   4.937
10802TIP3    H132349   2.871   6.363   4.935
10802TIP3    H232350   2.788   6.467   5.008
10803TIP3   OH232351   3.061   4.810   4.070
10803TIP3    H132352   3.139   4.779   4.116
10803TIP3    H232353   3.006   4.847   4.138
10804TIP3   OH232354   1.408   7.629  -0.018
10804TIP3    H132355   1.458   7.596  -0.093
10804TIP3    H232356   1.424   7.566   0.052
10805TIP3   OH232357   5.239   3.483   6.125
10805TIP3    H132358   5.250   3.405   6.071
10805TIP3    H232359   5.327   3.506   6.154
10806TIP3   OH232360   5.489   6.880   6.144
10806TIP3    H132361   5.448   6.884   6.230
10806TIP3    H232362   5.431   6.932   6.088
10807TIP3   OH232363   6.253   4.888   0.518
10807TIP3    H132364   6.319   4.855   0.457
10807TIP3    H232365   6.227   4.811   0.569
10808TIP3   OH232366   6.697   3.473   1.941
10808TIP3    H132367   6.704   3.497   2.033
10808TIP3    H232368   6.677   3.380   1.941
10809TIP3   OH232369   3.426   2.387   4.054
10809TIP3    H132370   3.337   2.410   4.080
10809TIP3    H232371   3.421   2.375   3.960
10810TIP3   OH232372   3.022   3.016   3.909
10810TIP3    H132373   3.116   3.030   3.898
10810TIP3    H232374   3.008   3.023   4.004
10811TIP3   OH232375   7.302   2.558   1.783
10811TIP3    H132376   7.369   2.624   1.801
10811TIP3    H232377   7.273   2.530   1.870
10812TIP3   OH232378   1.179   0.666   1.100
10812TIP3    H132379   1.172   0.714   1.183
10812TIP3    H232380   1.146   0.728   1.034
10813TIP3   OH232381   4.047   2.040   5.685
10813TIP3    H132382   4.044   2.123   5.732
10813TIP3    H232383   3.981   1.985   5.728
10814TIP3   OH232384   3.448   6.499   5.731
10814TIP3    H132385   3.519   6.436   5.717
10814TIP3    H232386   3.369   6.452   5.702
10815TIP3   OH232387   0.506   3.459   0.414
10815TIP3    H132388   0.512   3.554   0.419
10815TIP3    H232389   0.471   3.432   0.500
10816TIP3   OH232390   6.039   4.031   5.287
10816TIP3    H132391   6.022   4.125   5.280
10816TIP3    H232392   6.058   4.017   5.380
10817TIP3   OH232393   3.401   0.099   2.924
10817TIP3    H132394   3.402   0.149   2.842
10817TIP3    H232395   3.317   0.052   2.922
10818TIP3   OH232396   5.032   6.926   4.904
10818TIP3    H132397   5.122   6.953   4.885
10818TIP3    H232398   5.035   6.899   4.996
10819TIP3   OH232399   8.283   3.479   6.336
10819TIP3    H132400   8.264   3.514   6.422
10819TIP3    H232401   8.248   3.389   6.338
10820TIP3   OH232402   4.061   0.192   0.256
10820TIP3    H132403   4.024   0.114   0.214
10820TIP3    H232404   4.009   0.264   0.221
10821TIP3   OH232405   5.125   5.770   1.803
10821TIP3    H132406   5.120   5.855   1.847
10821TIP3    H232407   5.209   5.734   1.832
10822TIP3   OH232408   7.973   5.877   0.829
10822TIP3    H132409   7.991   5.846   0.741
10822TIP3    H232410   7.889   5.924   0.821
10823TIP3   OH232411  -0.009   0.932   5.477
10823TIP3    H132412   0.066   0.918   5.419
10823TIP3    H232413   0.008   1.017   5.518
10824TIP3   OH232414   5.796   7.047   5.890
10824TIP3    H132415   5.742   7.057   5.812
10824TIP3    H232416   5.862   6.982   5.866
10825TIP3   OH232417   8.051   2.042   1.768
10825TIP3    H132418   8.099   2.016   1.847
10825TIP3    H232419   8.078   2.133   1.753
10826TIP3   OH232420   2.475   5.544   6.458
10826TIP3    H132421   2.498   5.570   6.547
10826TIP3    H232422   2.381   5.530   6.460
10827TIP3   OH232423   4.362   3.342   5.664
10827TIP3    H132424   4.313   3.416   5.701
10827TIP3    H232425   4.361   3.275   5.732
10828TIP3   OH232426   3.544   2.860   3.068
10828TIP3    H132427   3.481   2.788   3.060
10828TIP3    H232428   3.580   2.850   3.156
10829TIP3   OH232429   3.571   3.064   6.466
10829TIP3    H132430   3.538   3.005   6.534
10829TIP3    H232431   3.577   3.008   6.388
10830TIP3   OH232432   2.482   1.716   1.211
10830TIP3    H132433   2.421   1.648   1.183
10830TIP3    H232434   2.440   1.758   1.286
10831TIP3   OH232435   5.605   1.338   1.323
10831TIP3    H132436   5.551   1.319   1.400
10831TIP3    H232437   5.554   1.304   1.250
10832TIP3   OH232438   6.093   5.612   0.268
10832TIP3    H132439   6.100   5.541   0.204
10832TIP3    H232440   6.182   5.626   0.300
10833TIP3   OH232441   0.350   0.503   3.553
10833TIP3    H132442   0.353   0.589   3.513
10833TIP3    H232443   0.422   0.455   3.512
10834TIP3   OH232444   3.101   5.828   1.887
10834TIP3    H132445   3.011   5.840   1.918
10834TIP3    H232446   3.115   5.733   1.892
10835TIP3   OH232447   7.176   4.661   4.419
10835TIP3    H132448   7.213   4.658   4.507
10835TIP3    H232449   7.151   4.571   4.401
10836TIP3   OH232450   2.400   6.692   5.133
10836TIP3    H132451   2.480   6.719   5.179
10836TIP3    H232452   2.398   6.597   5.143
10837TIP3   OH232453   7.688   1.801   3.838
10837TIP3    H132454   7.679   1.827   3.746
10837TIP3    H232455   7.617   1.738   3.852
10838TIP3   OH232456   1.071   2.758   1.524
10838TIP3    H132457   1.138   2.691   1.514
10838TIP3    H232458   0.995   2.723   1.477
10839TIP3   OH232459   6.263   4.333   1.003
10839TIP3    H132460   6.307   4.412   0.974
10839TIP3    H232461   6.331   4.265   1.000
10840TIP3   OH232462   6.854   2.245   6.201
10840TIP3    H132463   6.787   2.305   6.169
10840TIP3    H232464   6.829   2.160   6.168
10841TIP3   OH232465   2.863   5.221   2.982
10841TIP3    H132466   2.906   5.183   3.059
10841TIP3    H232467   2.785   5.167   2.969
10842TIP3   OH232468   6.059   2.799   4.301
10842TIP3    H132469   6.140   2.844   4.323
10842TIP3    H232470   5.992   2.868   4.301
10843TIP3   OH232471   6.635   1.685   2.783
10843TIP3    H132472   6.557   1.685   2.728
10843TIP3    H232473   6.616   1.623   2.853
10844TIP3   OH232474   1.098   7.368   5.408
10844TIP3    H132475   1.127   7.450   5.448
10844TIP3    H232476   1.022   7.393   5.356
10845TIP3   OH232477   5.420   2.097   3.828
10845TIP3    H132478   5.381   2.022   3.784
10845TIP3    H232479   5.453   2.152   3.756
10846TIP3   OH232480   4.535   1.747   1.659
10846TIP3    H132481   4.497   1.672   1.612
10846TIP3    H232482   4.462   1.808   1.670
10847TIP3   OH232483   3.883   0.213   1.220
10847TIP3    H132484   3.899   0.307   1.225
10847TIP3    H232485   3.787   0.205   1.224
10848TIP3   OH232486   5.259   6.701   4.562
10848TIP3    H132487   5.172   6.719   4.597
10848TIP3    H232488   5.307   6.783   4.572
10849TIP3   OH232489   7.781   2.966   0.712
10849TIP3    H132490   7.721   2.898   0.683
10849TIP3    H232491   7.730   3.047   0.708
10850TIP3   OH232492   5.845   2.529   3.183
10850TIP3    H132493   5.840   2.488   3.097
10850TIP3    H232494   5.770   2.589   3.186
10851TIP3   OH232495   4.779   7.818   0.429
10851TIP3    H132496   4.864   7.777   0.415
10851TIP3    H232497   4.798   7.912   0.427
10852TIP3   OH232498   1.663   4.110   3.103
10852TIP3    H132499   1.639   4.030   3.057
10852TIP3    H232500   1.756   4.122   3.085
10853TIP3   OH232501   8.160   7.560   2.163
10853TIP3    H132502   8.098   7.519   2.103
10853TIP3    H232503   8.180   7.492   2.227
10854TIP3   OH232504   4.548   1.854   6.563
10854TIP3    H132505   4.483   1.924   6.563
10854TIP3    H232506   4.620   1.887   6.618
10855TIP3   OH232507   3.729   4.766   1.680
10855TIP3    H132508   3.685   4.751   1.763
10855TIP3    H232509   3.822   4.777   1.704
10856TIP3   OH232510   6.766   5.123   2.240
10856TIP3    H132511   6.766   5.032   2.270
10856TIP3    H232512   6.845   5.161   2.279
10857TIP3   OH232513   4.682   7.542   5.313
10857TIP3    H132514   4.770   7.535   5.276
10857TIP3    H232515   4.676   7.632   5.343
10858TIP3   OH232516   5.547   7.300   6.135
10858TIP3    H132517   5.518   7.281   6.224
10858TIP3    H232518   5.564   7.394   6.135
10859TIP3   OH232519   2.521   3.093   5.166
10859TIP3    H132520   2.534   3.132   5.253
10859TIP3    H232521   2.533   3.166   5.105
10860TIP3   OH232522   3.868   1.878   1.579
10860TIP3    H132523   3.953   1.920   1.591
10860TIP3    H232524   3.806   1.932   1.628
10861TIP3   OH232525   1.719   4.633   0.945
10861TIP3    H132526   1.801   4.636   0.896
10861TIP3    H232527   1.714   4.717   0.990
10862TIP3   OH232528   4.172   4.361   3.009
10862TIP3    H132529   4.092   4.414   3.007
10862TIP3    H232530   4.142   4.274   3.036
10863TIP3   OH232531   8.068   1.997   0.855
10863TIP3    H132532   8.035   1.997   0.945
10863TIP3    H232533   7.989   1.981   0.801
10864TIP3   OH232534   1.568   0.089   3.831
10864TIP3    H132535   1.534   0.166   3.784
10864TIP3    H232536   1.582   0.024   3.762
10865TIP3   OH232537   3.165   0.180   5.035
10865TIP3    H132538   3.125   0.137   5.111
10865TIP3    H232539   3.128   0.269   5.036
10866TIP3   OH232540   5.829   7.369   0.395
10866TIP3    H132541   5.921   7.390   0.413
10866TIP3    H232542   5.781   7.446   0.425
10867TIP3   OH232543   1.717   2.839   3.619
10867TIP3    H132544   1.693   2.916   3.669
10867TIP3    H232545   1.795   2.804   3.662
10868TIP3   OH232546   7.200   7.310   0.377
10868TIP3    H132547   7.223   7.396   0.344
10868TIP3    H232548   7.136   7.327   0.446
10869TIP3   OH232549   8.041   3.613   2.215
10869TIP3    H132550   8.010   3.524   2.195
10869TIP3    H232551   8.014   3.628   2.305
10870TIP3   OH232552   3.770   7.722   5.080
10870TIP3    H132553   3.800   7.637   5.111
10870TIP3    H232554   3.677   7.724   5.102
10871TIP3   OH232555   4.191   6.841   6.697
10871TIP3    H132556   4.241   6.832   6.615
10871TIP3    H232557   4.230   6.776   6.755
10872TIP3   OH232558   3.580   1.450   4.526
10872TIP3    H132559   3.531   1.431   4.446
10872TIP3    H232560   3.664   1.406   4.514
10873TIP3   OH232561   2.253   7.497   4.886
10873TIP3    H132562   2.273   7.474   4.796
10873TIP3    H232563   2.331   7.472   4.935
10874TIP3   OH232564   2.012   6.017   5.688
10874TIP3    H132565   1.929   6.061   5.671
10874TIP3    H232566   2.032   5.972   5.606
10875TIP3   OH232567   2.265   6.534   4.499
10875TIP3    H132568   2.356   6.557   4.479
10875TIP3    H232569   2.267   6.506   4.591
10876TIP3   OH232570   8.128   6.783   5.468
10876TIP3    H132571   8.218   6.795   5.499
10876TIP3    H232572   8.077   6.843   5.522
10877TIP3   OH232573   8.050   7.229   1.711
10877TIP3    H132574   8.026   7.169   1.640
10877TIP3    H232575   7.966   7.266   1.740
10878TIP3   OH232576   5.853   7.357   5.825
10878TIP3    H132577   5.837   7.437   5.875
10878TIP3    H232578   5.848   7.287   5.890
10879TIP3   OH232579   3.765   1.389   1.677
10879TIP3    H132580   3.837   1.366   1.619
10879TIP3    H232581   3.752   1.482   1.664
10880TIP3   OH232582   5.266   5.198   0.609
10880TIP3    H132583   5.325   5.260   0.651
10880TIP3    H232584   5.256   5.232   0.520
10881TIP3   OH232585   7.826   4.732   0.896
10881TIP3    H132586   7.883   4.655   0.897
10881TIP3    H232587   7.859   4.786   0.825
10882TIP3   OH232588   4.391   7.480   2.150
10882TIP3    H132589   4.359   7.567   2.175
10882TIP3    H232590   4.454   7.498   2.080
10883TIP3   OH232591   5.782   2.945   1.604
10883TIP3    H132592   5.730   2.966   1.682
10883TIP3    H232593   5.872   2.939   1.636
10884TIP3   OH232594   0.243   4.825   3.218
10884TIP3    H132595   0.298   4.821   3.297
10884TIP3    H232596   0.255   4.740   3.176
10885TIP3   OH232597   5.669   7.578   1.082
10885TIP3    H132598   5.583   7.563   1.121
10885TIP3    H232599   5.656   7.559   0.989
10886TIP3   OH232600   4.127   7.527   5.683
10886TIP3    H132601   4.168   7.476   5.613
10886TIP3    H232602   4.034   7.508   5.674
10887TIP3   OH232603   2.105   7.375   4.508
10887TIP3    H132604   2.190   7.373   4.551
10887TIP3    H232605   2.122   7.340   4.420
10888TIP3   OH232606   0.986   2.632   6.427
10888TIP3    H132607   1.056   2.570   6.411
10888TIP3    H232608   1.030   2.717   6.434
10889TIP3   OH232609   3.076   5.932   2.358
10889TIP3    H132610   3.064   6.023   2.332
10889TIP3    H232611   3.001   5.886   2.319
10890TIP3   OH232612   0.650   4.762   0.188
10890TIP3    H132613   0.716   4.809   0.239
10890TIP3    H232614   0.580   4.826   0.176
10891TIP3   OH232615   2.928   0.744   3.536
10891TIP3    H132616   2.944   0.678   3.469
10891TIP3    H232617   2.938   0.827   3.490
10892TIP3   OH232618   8.240   2.405   4.605
10892TIP3    H132619   8.278   2.470   4.663
10892TIP3    H232620   8.224   2.451   4.523
10893TIP3   OH232621   4.374   4.385   2.676
10893TIP3    H132622   4.451   4.375   2.621
10893TIP3    H232623   4.408   4.418   2.760
10894TIP3   OH232624   3.068   3.432   5.234
10894TIP3    H132625   3.075   3.511   5.288
10894TIP3    H232626   3.157   3.398   5.230
10895TIP3   OH232627   7.086   2.013   5.575
10895TIP3    H132628   7.092   2.000   5.670
10895TIP3    H232629   7.077   2.108   5.565
10896TIP3   OH232630   3.438   5.362   0.721
10896TIP3    H132631   3.410   5.355   0.812
10896TIP3    H232632   3.360   5.339   0.670
10897TIP3   OH232633   6.922   3.445   0.369
10897TIP3    H132634   7.004   3.397   0.377
10897TIP3    H232635   6.934   3.500   0.291
10898TIP3   OH232636   6.013   1.158   6.078
10898TIP3    H132637   6.043   1.181   6.166
10898TIP3    H232638   6.029   1.063   6.072
10899TIP3   OH232639   5.515   4.941   2.468
10899TIP3    H132640   5.550   4.935   2.379
10899TIP3    H232641   5.564   5.012   2.509
10900TIP3   OH232642   7.292   6.686   1.022
10900TIP3    H132643   7.239   6.607   1.022
10900TIP3    H232644   7.377   6.659   1.058
10901TIP3   OH232645   1.597   3.990   2.223
10901TIP3    H132646   1.639   4.015   2.141
10901TIP3    H232647   1.616   4.064   2.282
10902TIP3   OH232648   4.537   7.557   6.667
10902TIP3    H132649   4.503   7.491   6.728
10902TIP3    H232650   4.569   7.628   6.723
10903TIP3   OH232651   0.175   0.176   4.043
10903TIP3    H132652   0.231   0.244   4.080
10903TIP3    H232653   0.206   0.166   3.953
10904TIP3   OH232654   1.470   0.639   0.979
10904TIP3    H132655   1.430   0.653   1.065
10904TIP3    H232656   1.427   0.704   0.923
10905TIP3   OH232657   2.106   7.019   1.594
10905TIP3    H132658   2.158   6.950   1.634
10905TIP3    H232659   2.036   6.972   1.548
10906TIP3   OH232660   0.485   6.889   4.393
10906TIP3    H132661   0.456   6.804   4.359
10906TIP3    H232662   0.521   6.869   4.480
10907TIP3   OH232663   4.510   7.354   4.132
10907TIP3    H132664   4.569   7.278   4.134
10907TIP3    H232665   4.559   7.421   4.084
10908TIP3   OH232666   5.344   0.013   5.667
10908TIP3    H132667   5.336   0.104   5.640
10908TIP3    H232668   5.338  -0.037   5.585
10909TIP3   OH232669   6.221   0.855   0.431
10909TIP3    H132670   6.128   0.863   0.453
10909TIP3    H232671   6.262   0.933   0.468
10910TIP3   OH232672   6.348   5.272   2.591
10910TIP3    H132673   6.435   5.239   2.567
10910TIP3    H232674   6.318   5.213   2.661
10911TIP3   OH232675   0.001   5.270   2.466
10911TIP3    H132676   0.090   5.300   2.488
10911TIP3    H232677  -0.057   5.326   2.517
10912TIP3   OH232678   4.823   4.615   4.235
10912TIP3    H132679   4.779   4.673   4.172
10912TIP3    H232680   4.915   4.642   4.232
10913TIP3   OH232681   4.241   3.299   4.075
10913TIP3    H132682   4.252   3.206   4.054
10913TIP3    H232683   4.147   3.314   4.068
10914TIP3   OH232684   1.223   0.024   5.696
10914TIP3    H132685   1.225   0.099   5.636
10914TIP3    H232686   1.283  -0.040   5.657
10915TIP3   OH232687   2.844   4.520   5.531
10915TIP3    H132688   2.808   4.472   5.456
10915TIP3    H232689   2.790   4.492   5.605
10916TIP3   OH232690   7.642   1.641   4.545
10916TIP3    H132691   7.695   1.581   4.598
10916TIP3    H232692   7.697   1.719   4.536
10917TIP3   OH232693   2.732   3.324   0.632
10917TIP3    H132694   2.690   3.408   0.650
10917TIP3    H232695   2.811   3.325   0.686
10918TIP3   OH232696   4.406   1.104   1.844
10918TIP3    H132697   4.344   1.112   1.916
10918TIP3    H232698   4.387   1.018   1.806
10919TIP3   OH232699   7.762   3.152   5.167
10919TIP3    H132700   7.815   3.075   5.150
10919TIP3    H232701   7.822   3.213   5.210
10920TIP3   OH232702   1.878   1.959   5.384
10920TIP3    H132703   1.852   2.021   5.451
10920TIP3    H232704   1.906   1.881   5.433
10921TIP3   OH232705   6.912   1.276   3.458
10921TIP3    H132706   6.978   1.227   3.507
10921TIP3    H232707   6.839   1.285   3.519
10922TIP3   OH232708   8.089   7.401   5.426
10922TIP3    H132709   8.131   7.414   5.341
10922TIP3    H232710   8.158   7.363   5.481
10923TIP3   OH232711   7.489   0.475   1.374
10923TIP3    H132712   7.557   0.538   1.396
10923TIP3    H232713   7.452   0.449   1.459
10924TIP3   OH232714   0.224   1.693   0.533
10924TIP3    H132715   0.198   1.648   0.613
10924TIP3    H232716   0.154   1.756   0.517
10925TIP3   OH232717   3.724   2.812   4.209
10925TIP3    H132718   3.814   2.786   4.191
10925TIP3    H232719   3.672   2.758   4.150
10926TIP3   OH232720   4.022   6.192   5.881
10926TIP3    H132721   3.935   6.231   5.872
10926TIP3    H232722   4.027   6.127   5.811
10927TIP3   OH232723   3.221   6.334   6.610
10927TIP3    H132724   3.207   6.403   6.674
10927TIP3    H232725   3.190   6.371   6.527
10928TIP3   OH232726   2.209   2.288   1.168
10928TIP3    H132727   2.265   2.337   1.229
10928TIP3    H232728   2.254   2.205   1.155
10929TIP3   OH232729   2.570   2.678   5.742
10929TIP3    H132730   2.502   2.655   5.805
10929TIP3    H232731   2.645   2.704   5.795
10930TIP3   OH232732   6.444   6.395   6.568
10930TIP3    H132733   6.488   6.383   6.652
10930TIP3    H232734   6.376   6.327   6.566
10931TIP3   OH232735   4.829   2.093   5.118
10931TIP3    H132736   4.799   2.004   5.136
10931TIP3    H232737   4.808   2.141   5.198
10932TIP3   OH232738   4.643   4.742   2.819
10932TIP3    H132739   4.633   4.833   2.849
10932TIP3    H232740   4.689   4.698   2.891
10933TIP3   OH232741   4.202   6.584   6.787
10933TIP3    H132742   4.110   6.599   6.766
10933TIP3    H232743   4.232   6.520   6.723
10934TIP3   OH232744   0.209   5.035   0.078
10934TIP3    H132745   0.141   4.969   0.092
10934TIP3    H232746   0.187   5.106   0.138
10935TIP3   OH232747   4.936   6.266   1.098
10935TIP3    H132748   5.004   6.227   1.153
10935TIP3    H232749   4.918   6.351   1.138
10936TIP3   OH232750   6.443   1.638   2.588
10936TIP3    H132751   6.377   1.580   2.552
10936TIP3    H232752   6.477   1.686   2.512
10937TIP3   OH232753   6.904   4.559   2.277
10937TIP3    H132754   6.928   4.568   2.184
10937TIP3    H232755   6.988   4.564   2.323
10938TIP3   OH232756   6.969   4.285   0.274
10938TIP3    H132757   6.945   4.230   0.348
10938TIP3    H232758   6.920   4.250   0.200
10939TIP3   OH232759   1.569   0.108   1.772
10939TIP3    H132760   1.490   0.131   1.821
10939TIP3    H232761   1.596   0.190   1.730
10940TIP3   OH232762   5.141   4.774   5.125
10940TIP3    H132763   5.174   4.690   5.093
10940TIP3    H232764   5.203   4.839   5.094
10941TIP3   OH232765   4.270   4.545   5.684
10941TIP3    H132766   4.275   4.533   5.779
10941TIP3    H232767   4.177   4.533   5.663
10942TIP3   OH232768   2.472   1.023   5.051
10942TIP3    H132769   2.411   1.063   5.112
10942TIP3    H232770   2.496   0.940   5.092
10943TIP3   OH232771   2.835   4.515   2.877
10943TIP3    H132772   2.920   4.509   2.920
10943TIP3    H232773   2.848   4.580   2.807
10944TIP3   OH232774   5.709   7.018   4.993
10944TIP3    H132775   5.752   7.001   4.909
10944TIP3    H232776   5.693   7.113   4.993
10945TIP3   OH232777   3.591   6.008   5.615
10945TIP3    H132778   3.538   6.032   5.691
10945TIP3    H232779   3.539   6.037   5.540
10946TIP3   OH232780   6.005   1.310   4.109
10946TIP3    H132781   6.042   1.396   4.131
10946TIP3    H232782   5.912   1.326   4.100
10947TIP3   OH232783   4.775   4.496   2.402
10947TIP3    H132784   4.820   4.553   2.341
10947TIP3    H232785   4.794   4.533   2.488
10948TIP3   OH232786   5.977   5.347   3.119
10948TIP3    H132787   6.050   5.398   3.155
10948TIP3    H232788   6.014   5.261   3.100
10949TIP3   OH232789   3.307   2.149   0.394
10949TIP3    H132790   3.252   2.186   0.463
10949TIP3    H232791   3.396   2.174   0.418
10950TIP3   OH232792   0.878   3.487   5.848
10950TIP3    H132793   0.801   3.488   5.904
10950TIP3    H232794   0.952   3.480   5.908
10951TIP3   OH232795   1.902   2.806   1.594
10951TIP3    H132796   1.982   2.847   1.561
10951TIP3    H232797   1.834   2.836   1.533
10952TIP3   OH232798   0.604   4.667   4.519
10952TIP3    H132799   0.651   4.606   4.461
10952TIP3    H232800   0.653   4.664   4.601
10953TIP3   OH232801   7.061   5.399   1.633
10953TIP3    H132802   7.151   5.398   1.667
10953TIP3    H232803   7.011   5.349   1.697
10954TIP3   OH232804   1.141   2.222   5.182
10954TIP3    H132805   1.231   2.253   5.171
10954TIP3    H232806   1.088   2.302   5.185
10955TIP3   OH232807   1.953   5.089   5.279
10955TIP3    H132808   2.026   5.143   5.250
10955TIP3    H232809   1.985   5.044   5.357
10956TIP3   OH232810   2.845   4.642   0.040
10956TIP3    H132811   2.918   4.584   0.065
10956TIP3    H232812   2.809   4.601  -0.039
10957TIP3   OH232813   4.095   6.113   4.355
10957TIP3    H132814   4.059   6.193   4.393
10957TIP3    H232815   4.109   6.135   4.263
10958TIP3   OH232816   3.151   4.855   3.036
10958TIP3    H132817   3.240   4.886   3.051
10958TIP3    H232818   3.158   4.796   2.961
10959TIP3   OH232819   0.926   4.272   3.626
10959TIP3    H132820   1.020   4.280   3.644
10959TIP3    H232821   0.922   4.250   3.532
10960TIP3   OH232822   2.914   4.079   3.792
10960TIP3    H132823   2.934   4.004   3.735
10960TIP3    H232824   2.928   4.046   3.881
10961TIP3   OH232825   2.608   4.938   2.355
10961TIP3    H132826   2.686   4.915   2.405
10961TIP3    H232827   2.637   5.006   2.295
10962TIP3   OH232828   5.716   3.771   0.254
10962TIP3    H132829   5.698   3.844   0.314
10962TIP3    H232830   5.777   3.715   0.302
10963TIP3   OH232831   6.951   5.588   5.181
10963TIP3    H132832   6.987   5.675   5.167
10963TIP3    H232833   6.953   5.576   5.276
10964TIP3   OH232834   5.961   0.172   2.647
10964TIP3    H132835   5.967   0.252   2.596
10964TIP3    H232836   5.900   0.117   2.598
10965TIP3   OH232837   2.113   5.006   4.072
10965TIP3    H132838   2.195   4.995   4.024
10965TIP3    H232839   2.132   5.074   4.137
10966TIP3   OH232840   7.588   7.548   1.665
10966TIP3    H132841   7.528   7.538   1.740
10966TIP3    H232842   7.547   7.497   1.595
10967TIP3   OH232843   3.387   4.492   2.305
10967TIP3    H132844   3.292   4.491   2.291
10967TIP3    H232845   3.415   4.403   2.282
10968TIP3   OH232846   4.613   2.817   3.149
10968TIP3    H132847   4.613   2.808   3.245
10968TIP3    H232848   4.652   2.903   3.133
10969TIP3   OH232849   1.243  -0.004   1.672
10969TIP3    H132850   1.297  -0.041   1.601
10969TIP3    H232851   1.289   0.076   1.697
10970TIP3   OH232852   3.188   5.101   6.002
10970TIP3    H132853   3.118   5.139   5.948
10970TIP3    H232854   3.142   5.048   6.067
10971TIP3   OH232855   6.773   3.190   3.575
10971TIP3    H132856   6.719   3.121   3.613
10971TIP3    H232857   6.858   3.180   3.618
10972TIP3   OH232858   5.679   7.548   5.039
10972TIP3    H132859   5.622   7.595   4.978
10972TIP3    H232860   5.765   7.548   4.996
10973TIP3   OH232861   7.289   7.743   5.905
10973TIP3    H132862   7.357   7.677   5.912
10973TIP3    H232863   7.283   7.763   5.812
10974TIP3   OH232864   5.153   1.378   3.543
10974TIP3    H132865   5.220   1.335   3.491
10974TIP3    H232866   5.191   1.386   3.631
10975TIP3   OH232867   7.203   1.513   2.140
10975TIP3    H132868   7.138   1.580   2.164
10975TIP3    H232869   7.279   1.534   2.193
10976TIP3   OH232870   7.526   0.360   4.050
10976TIP3    H132871   7.552   0.278   4.092
10976TIP3    H232872   7.572   0.359   3.966
10977TIP3   OH232873   4.345   5.353   5.961
10977TIP3    H132874   4.303   5.271   5.933
10977TIP3    H232875   4.371   5.395   5.879
10978TIP3   OH232876   7.841   7.593   0.108
10978TIP3    H132877   7.883   7.677   0.129
10978TIP3    H232878   7.859   7.579   0.015
10979TIP3   OH232879   6.630   6.191   2.445
10979TIP3    H132880   6.543   6.172   2.480
10979TIP3    H232881   6.618   6.271   2.395
10980TIP3   OH232882   1.403   6.935   6.034
10980TIP3    H132883   1.365   7.019   6.008
10980TIP3    H232884   1.407   6.884   5.953
10981TIP3   OH232885   5.543   5.399   3.042
10981TIP3    H132886   5.455   5.377   3.072
10981TIP3    H232887   5.535   5.489   3.009
10982TIP3   OH232888   3.772   4.028   0.132
10982TIP3    H132889   3.712   4.089   0.090
10982TIP3    H232890   3.731   3.942   0.121
10983TIP3   OH232891   7.394   0.950   3.690
10983TIP3    H132892   7.428   0.887   3.628
10983TIP3    H232893   7.299   0.939   3.687
10984TIP3   OH232894   7.552   0.961   1.232
10984TIP3    H132895   7.601   1.031   1.189
10984TIP3    H232896   7.476   1.004   1.270
10985TIP3   OH232897   4.347   3.283   4.537
10985TIP3    H132898   4.270   3.320   4.579
10985TIP3    H232899   4.314   3.208   4.488
10986TIP3   OH232900   8.240   6.621   1.520
10986TIP3    H132901   8.255   6.674   1.442
10986TIP3    H232902   8.321   6.627   1.570
10987TIP3   OH232903   2.179   7.796   4.171
10987TIP3    H132904   2.154   7.828   4.084
10987TIP3    H232905   2.107   7.738   4.196
10988TIP3   OH232906   4.077   6.218   6.446
10988TIP3    H132907   4.141   6.146   6.453
10988TIP3    H232908   4.090   6.253   6.358
10989TIP3   OH232909   3.232   1.584   2.840
10989TIP3    H132910   3.211   1.604   2.749
10989TIP3    H232911   3.148   1.593   2.886
10990TIP3   OH232912   6.100   4.594   6.685
10990TIP3    H132913   6.066   4.516   6.731
10990TIP3    H232914   6.081   4.666   6.744
10991TIP3   OH232915   8.015   3.748   5.738
10991TIP3    H132916   8.010   3.681   5.806
10991TIP3    H232917   7.956   3.817   5.767
10992TIP3   OH232918   8.103   7.000   2.700
10992TIP3    H132919   8.064   7.081   2.733
10992TIP3    H232920   8.105   6.941   2.776
10993TIP3   OH232921   4.936   5.707   4.171
10993TIP3    H132922   4.973   5.792   4.147
10993TIP3    H232923   4.908   5.669   4.088
10994TIP3   OH232924   5.380   0.198   0.291
10994TIP3    H132925   5.342   0.281   0.262
10994TIP3    H232926   5.328   0.174   0.368
10995TIP3   OH232927   0.777   3.352   0.946
10995TIP3    H132928   0.683   3.360   0.959
10995TIP3    H232929   0.786   3.299   0.867
10996TIP3   OH232930   3.155   1.210   5.055
10996TIP3    H132931   3.067   1.188   5.087
10996TIP3    H232932   3.162   1.305   5.069
10997TIP3   OH232933   8.264   3.316   1.904
10997TIP3    H132934   8.316   3.236   1.902
10997TIP3    H232935   8.185   3.294   1.855
10998TIP3   OH232936   4.995   5.951   5.148
10998TIP3    H132937   5.006   6.038   5.186
10998TIP3    H232938   5.084   5.918   5.138
10999TIP3   OH232939   2.158   2.951   1.930
10999TIP3    H132940   2.174   2.891   2.003
10999TIP3    H232941   2.064   2.969   1.934
11000TIP3   OH232942   2.801   1.008   6.667
11000TIP3    H132943   2.866   1.046   6.727
11000TIP3    H232944   2.786   1.077   6.602
11001TIP3   OH232945   3.463   1.677   4.063
11001TIP3    H132946   3.515   1.668   3.983
11001TIP3    H232947   3.521   1.722   4.124
11002TIP3   OH232948   7.147   4.612   2.171
11002TIP3    H132949   7.236   4.578   2.161
11002TIP3    H232950   7.122   4.641   2.084
11003TIP3   OH232951   4.525   0.219   6.416
11003TIP3    H132952   4.616   0.243   6.401
11003TIP3    H232953   4.529   0.130   6.450
11004TIP3   OH232954   2.009   1.031   1.222
11004TIP3    H132955   2.061   0.987   1.155
11004TIP3    H232956   2.012   1.124   1.198
11005TIP3   OH232957   0.685   6.192   3.753
11005TIP3    H132958   0.599   6.194   3.793
11005TIP3    H232959   0.744   6.164   3.823
11006TIP3   OH232960   3.292   1.229   5.447
11006TIP3    H132961   3.273   1.143   5.408
11006TIP3    H232962   3.227   1.288   5.408
11007TIP3   OH232963   4.381   7.412   4.375
11007TIP3    H132964   4.308   7.350   4.375
11007TIP3    H232965   4.397   7.431   4.282
11008TIP3   OH232966   2.798   2.424   2.060
11008TIP3    H132967   2.880   2.394   2.022
11008TIP3    H232968   2.751   2.463   1.986
11009TIP3   OH232969   5.642   6.760   3.936
11009TIP3    H132970   5.655   6.710   4.017
11009TIP3    H232971   5.547   6.769   3.929
11010TIP3   OH232972   7.070   5.036   3.754
11010TIP3    H132973   7.161   5.025   3.781
11010TIP3    H232974   7.028   5.079   3.829
11011TIP3   OH232975   4.447   0.876   2.094
11011TIP3    H132976   4.495   0.943   2.142
11011TIP3    H232977   4.514   0.827   2.047
11012TIP3   OH232978   3.282   1.506   2.384
11012TIP3    H132979   3.245   1.557   2.456
11012TIP3    H232980   3.374   1.493   2.408
11013TIP3   OH232981   7.223   7.146   4.776
11013TIP3    H132982   7.207   7.167   4.684
11013TIP3    H232983   7.292   7.079   4.773
11014TIP3   OH232984   3.648   1.403   0.256
11014TIP3    H132985   3.724   1.423   0.311
11014TIP3    H232986   3.684   1.351   0.184
11015TIP3   OH232987   3.203   2.708   3.521
11015TIP3    H132988   3.164   2.791   3.546
11015TIP3    H232989   3.257   2.683   3.595
11016TIP3   OH232990   5.001   5.976   3.635
11016TIP3    H132991   4.974   6.050   3.689
11016TIP3    H232992   5.096   5.982   3.631
11017TIP3   OH232993   1.211   1.431   3.012
11017TIP3    H132994   1.272   1.417   3.085
11017TIP3    H232995   1.129   1.455   3.055
11018TIP3   OH232996   0.642   6.044   5.723
11018TIP3    H132997   0.716   5.983   5.715
11018TIP3    H232998   0.581   6.000   5.782
11019TIP3   OH232999   0.180   6.519   4.265
11019TIP3    H133000   0.119   6.448   4.282
11019TIP3    H233001   0.255   6.477   4.223
11020TIP3   OH233002   3.205   1.679   2.570
11020TIP3    H133003   3.253   1.756   2.540
11020TIP3    H233004   3.114   1.709   2.578
11021TIP3   OH233005   6.252   6.060   4.837
11021TIP3    H133006   6.320   6.049   4.771
11021TIP3    H233007   6.199   5.981   4.829
11022TIP3   OH233008   3.619   6.308   5.652
11022TIP3    H133009   3.574   6.230   5.618
11022TIP3    H233010   3.706   6.304   5.612
11023TIP3   OH233011   4.996   3.406   1.443
11023TIP3    H133012   4.934   3.416   1.370
11023TIP3    H233013   4.970   3.324   1.485
11024TIP3   OH233014   7.338   3.041   1.408
11024TIP3    H133015   7.362   3.033   1.501
11024TIP3    H233016   7.421   3.055   1.363
11025TIP3   OH233017   4.712   6.764   4.575
11025TIP3    H133018   4.683   6.685   4.622
11025TIP3    H233019   4.801   6.780   4.607
11026TIP3   OH233020   3.099   0.909   3.741
11026TIP3    H133021   3.092   0.869   3.655
11026TIP3    H233022   3.164   0.979   3.729
11027TIP3   OH233023   8.086   7.120   4.468
11027TIP3    H133024   8.114   7.054   4.404
11027TIP3    H233025   8.012   7.164   4.426
11028TIP3   OH233026   1.170   6.814   3.187
11028TIP3    H133027   1.084   6.773   3.181
11028TIP3    H233028   1.232   6.741   3.186
11029TIP3   OH233029   0.494   0.585   3.118
11029TIP3    H133030   0.399   0.575   3.107
11029TIP3    H233031   0.514   0.669   3.078
11030TIP3   OH233032   8.006   3.787   4.438
11030TIP3    H133033   8.099   3.783   4.415
11030TIP3    H233034   7.962   3.735   4.371
11031TIP3   OH233035   7.456   4.900   2.884
11031TIP3    H133036   7.404   4.977   2.857
11031TIP3    H233037   7.391   4.831   2.897
11032TIP3   OH233038   8.253   5.429   0.266
11032TIP3    H133039   8.220   5.363   0.206
11032TIP3    H233040   8.265   5.507   0.212
11033TIP3   OH233041   1.063   5.554   0.077
11033TIP3    H133042   1.073   5.641   0.037
11033TIP3    H233043   1.152   5.530   0.103
11034TIP3   OH233044   7.062   0.741   4.007
11034TIP3    H133045   7.135   0.697   3.964
11034TIP3    H233046   7.012   0.671   4.049
11035TIP3   OH233047   3.626   0.673   3.664
11035TIP3    H133048   3.629   0.768   3.654
11035TIP3    H233049   3.586   0.642   3.582
11036TIP3   OH233050   2.333   6.379   2.521
11036TIP3    H133051   2.271   6.333   2.577
11036TIP3    H233052   2.305   6.359   2.432
11037TIP3   OH233053   1.058   3.669   0.935
11037TIP3    H133054   0.994   3.626   0.991
11037TIP3    H233055   1.018   3.753   0.912
11038TIP3   OH233056   5.941   7.519   5.454
11038TIP3    H133057   6.025   7.491   5.418
11038TIP3    H233058   5.895   7.560   5.381
11039TIP3   OH233059   0.726   2.670   6.361
11039TIP3    H133060   0.706   2.584   6.397
11039TIP3    H233061   0.821   2.674   6.358
11040TIP3   OH233062   2.284   6.044   0.387
11040TIP3    H133063   2.268   6.025   0.294
11040TIP3    H233064   2.358   5.989   0.411
11041TIP3   OH233065   3.003   4.080   5.226
11041TIP3    H133066   2.929   4.128   5.263
11041TIP3    H233067   3.079   4.114   5.273
11042TIP3   OH233068   3.998   4.925   4.366
11042TIP3    H133069   3.941   4.851   4.386
11042TIP3    H233070   3.938   4.997   4.344
11043TIP3   OH233071   6.341   1.398   1.598
11043TIP3    H133072   6.257   1.360   1.624
11043TIP3    H233073   6.344   1.482   1.645
11044TIP3   OH233074   6.893   0.720   1.368
11044TIP3    H133075   6.921   0.646   1.423
11044TIP3    H233076   6.930   0.797   1.411
11045TIP3   OH233077   1.914   2.861   4.147
11045TIP3    H133078   1.835   2.868   4.093
11045TIP3    H233079   1.900   2.924   4.218
11046TIP3   OH233080   4.007   4.046   5.525
11046TIP3    H133081   3.924   4.090   5.545
11046TIP3    H233082   4.047   4.031   5.611
11047TIP3   OH233083   1.061   5.065   5.956
11047TIP3    H133084   0.988   5.006   5.975
11047TIP3    H233085   1.089   5.097   6.041
11048TIP3   OH233086   8.057   1.096   1.076
11048TIP3    H133087   7.978   1.149   1.081
11048TIP3    H233088   8.032   1.012   1.115
11049TIP3   OH233089   7.112   1.872   3.820
11049TIP3    H133090   7.138   1.932   3.752
11049TIP3    H233091   7.177   1.884   3.890
11050TIP3   OH233092   2.161   6.418   6.353
11050TIP3    H133093   2.076   6.448   6.388
11050TIP3    H233094   2.139   6.379   6.269
11051TIP3   OH233095   5.848   4.317   4.349
11051TIP3    H133096   5.892   4.242   4.310
11051TIP3    H233097   5.787   4.347   4.281
11052TIP3   OH233098   7.762   5.252   0.712
11052TIP3    H133099   7.669   5.276   0.705
11052TIP3    H233100   7.808   5.336   0.703
11053TIP3   OH233101   0.336   4.952   4.349
11053TIP3    H133102   0.313   4.862   4.326
11053TIP3    H233103   0.287   5.006   4.288
11054TIP3   OH233104   3.168   4.451   6.088
11054TIP3    H133105   3.125   4.476   6.006
11054TIP3    H233106   3.138   4.517   6.151
11055TIP3   OH233107   3.583   3.416   5.677
11055TIP3    H133108   3.625   3.377   5.600
11055TIP3    H233109   3.596   3.352   5.747
11056TIP3   OH233110   7.822   0.094   5.567
11056TIP3    H133111   7.890   0.091   5.500
11056TIP3    H233112   7.802   0.002   5.585
11057TIP3   OH233113   4.106   5.699   0.284
11057TIP3    H133114   4.073   5.665   0.367
11057TIP3    H233115   4.183   5.751   0.307
11058TIP3   OH233116   7.628   6.535   6.514
11058TIP3    H133117   7.604   6.625   6.538
11058TIP3    H233118   7.720   6.541   6.488
11059TIP3   OH233119   4.900   2.720   3.695
11059TIP3    H133120   4.972   2.667   3.726
11059TIP3    H233121   4.829   2.658   3.677
11060TIP3   OH233122   0.489   1.824   1.281
11060TIP3    H133123   0.462   1.883   1.351
11060TIP3    H233124   0.434   1.747   1.292
11061TIP3   OH233125   4.727   3.979   1.723
11061TIP3    H133126   4.793   3.955   1.659
11061TIP3    H233127   4.655   3.917   1.708
11062TIP3   OH233128   6.943   7.491   6.504
11062TIP3    H133129   7.029   7.499   6.544
11062TIP3    H233130   6.917   7.400   6.519
11063TIP3   OH233131   3.439   6.108   2.124
11063TIP3    H133132   3.410   6.178   2.065
11063TIP3    H233133   3.376   6.038   2.112
11064TIP3   OH233134   2.317   5.715   5.053
11064TIP3    H133135   2.341   5.791   5.106
11064TIP3    H233136   2.271   5.751   4.978
11065TIP3   OH233137   4.861   3.868   5.189
11065TIP3    H133138   4.925   3.927   5.148
11065TIP3    H233139   4.776   3.897   5.154
11066TIP3   OH233140   6.488   7.760   2.690
11066TIP3    H133141   6.462   7.851   2.683
11066TIP3    H233142   6.574   7.756   2.648
11067TIP3   OH233143   4.818   4.099   4.495
11067TIP3    H133144   4.881   4.170   4.506
11067TIP3    H233145   4.787   4.081   4.584
11068TIP3   OH233146   3.277   1.915   2.404
11068TIP3    H133147   3.261   1.898   2.312
11068TIP3    H233148   3.215   1.985   2.427
11069TIP3   OH233149   3.367   4.699   1.337
11069TIP3    H133150   3.419   4.752   1.277
11069TIP3    H233151   3.370   4.747   1.420
11070TIP3   OH233152   7.158   7.791   2.876
11070TIP3    H133153   7.211   7.712   2.888
11070TIP3    H233154   7.068   7.761   2.877
11071TIP3   OH233155   2.128   1.104   3.677
11071TIP3    H133156   2.205   1.130   3.625
11071TIP3    H233157   2.093   1.186   3.711
11072TIP3   OH233158   2.081   4.786   0.376
11072TIP3    H133159   2.050   4.697   0.390
11072TIP3    H233160   2.172   4.777   0.349
11073TIP3   OH233161   2.589   3.208   5.392
11073TIP3    H133162   2.630   3.292   5.413
11073TIP3    H233163   2.536   3.188   5.470
11074TIP3   OH233164   5.948   3.536   0.890
11074TIP3    H133165   5.954   3.625   0.857
11074TIP3    H233166   5.960   3.481   0.812
11075TIP3   OH233167   6.365   5.256   5.666
11075TIP3    H133168   6.323   5.336   5.697
11075TIP3    H233169   6.458   5.275   5.668
11076TIP3   OH233170   1.781   1.985   1.480
11076TIP3    H133171   1.752   1.919   1.543
11076TIP3    H233172   1.748   2.068   1.515
11077TIP3   OH233173   7.704   7.850   2.105
11077TIP3    H133174   7.733   7.768   2.145
11077TIP3    H233175   7.614   7.861   2.136
11078TIP3   OH233176   2.812   6.187   3.301
11078TIP3    H133177   2.815   6.127   3.227
11078TIP3    H233178   2.896   6.175   3.345
11079TIP3   OH233179   6.347   6.725   2.280
11079TIP3    H133180   6.268   6.671   2.274
11079TIP3    H233181   6.377   6.712   2.370
11080TIP3   OH233182   4.380   7.684   3.936
11080TIP3    H133183   4.339   7.616   3.882
11080TIP3    H233184   4.345   7.670   4.024
11081TIP3   OH233185   6.424   6.309   4.835
11081TIP3    H133186   6.500   6.281   4.783
11081TIP3    H233187   6.443   6.279   4.923
11082TIP3   OH233188   2.188   6.481   2.808
11082TIP3    H133189   2.260   6.542   2.795
11082TIP3    H233190   2.223   6.414   2.867
11083TIP3   OH233191   5.454   4.674   6.629
11083TIP3    H133192   5.445   4.624   6.711
11083TIP3    H233193   5.397   4.750   6.641
11084TIP3   OH233194   3.438   7.253   5.283
11084TIP3    H133195   3.532   7.261   5.298
11084TIP3    H233196   3.429   7.172   5.233
11085TIP3   OH233197   1.017   4.808   5.510
11085TIP3    H133198   1.078   4.820   5.437
11085TIP3    H233199   0.930   4.816   5.471
11086TIP3   OH233200   1.158   2.126   0.425
11086TIP3    H133201   1.201   2.175   0.355
11086TIP3    H233202   1.135   2.192   0.490
11087TIP3   OH233203   2.014   0.457   1.044
11087TIP3    H133204   2.042   0.395   1.111
11087TIP3    H233205   1.920   0.466   1.057
11088TIP3   OH233206   5.446   5.981   4.886
11088TIP3    H133207   5.481   5.942   4.806
11088TIP3    H233208   5.416   5.907   4.939
11089TIP3   OH233209   5.529   3.302   6.618
11089TIP3    H133210   5.586   3.369   6.579
11089TIP3    H233211   5.571   3.280   6.701
11090TIP3   OH233212   5.603   0.242   5.808
11090TIP3    H133213   5.631   0.233   5.717
11090TIP3    H233214   5.684   0.245   5.859
11091TIP3   OH233215   2.518   0.091   2.522
11091TIP3    H133216   2.492   0.175   2.561
11091TIP3    H233217   2.551   0.114   2.436
11092TIP3   OH233218   6.565   1.154   1.773
11092TIP3    H133219   6.630   1.167   1.843
11092TIP3    H233220   6.616   1.120   1.699
11093TIP3   OH233221   4.140   2.833   4.398
11093TIP3    H133222   4.193   2.753   4.400
11093TIP3    H233223   4.055   2.806   4.433
11094TIP3   OH233224   2.739   6.027   5.556
11094TIP3    H133225   2.830   6.057   5.559
11094TIP3    H233226   2.724   5.988   5.642
11095TIP3   OH233227   3.638   7.393   2.375
11095TIP3    H133228   3.691   7.393   2.295
11095TIP3    H233229   3.682   7.455   2.433
11096TIP3   OH233230   3.728   0.631   2.322
11096TIP3    H133231   3.653   0.674   2.282
11096TIP3    H233232   3.737   0.548   2.274
11097TIP3   OH233233   1.884   7.840   3.788
11097TIP3    H133234   1.857   7.748   3.798
11097TIP3    H233235   1.890   7.852   3.693
11098TIP3   OH233236   2.523   2.011   1.799
11098TIP3    H133237   2.544   2.093   1.845
11098TIP3    H233238   2.524   1.945   1.868
11099TIP3   OH233239   0.684   7.501   6.185
11099TIP3    H133240   0.710   7.458   6.104
11099TIP3    H233241   0.604   7.549   6.162
11100TIP3   OH233242   6.856   6.951   4.561
11100TIP3    H133243   6.773   6.982   4.598
11100TIP3    H233244   6.835   6.926   4.471
11101TIP3   OH233245   0.145   1.152   5.577
11101TIP3    H133246   0.183   1.207   5.645
11101TIP3    H233247   0.093   1.212   5.523
11102TIP3   OH233248   0.378   3.397   1.804
11102TIP3    H133249   0.333   3.356   1.877
11102TIP3    H233250   0.432   3.465   1.844
11103TIP3   OH233251   3.674   0.985   2.305
11103TIP3    H133252   3.612   0.968   2.376
11103TIP3    H233253   3.622   0.980   2.225
11104TIP3   OH233254   1.668   2.883   3.111
11104TIP3    H133255   1.712   2.959   3.071
11104TIP3    H233256   1.714   2.808   3.075
11105TIP3   OH233257   2.802   2.367   2.912
11105TIP3    H133258   2.833   2.357   2.822
11105TIP3    H233259   2.882   2.365   2.965
11106TIP3   OH233260   7.808   5.324   2.735
11106TIP3    H133261   7.844   5.283   2.814
11106TIP3    H233262   7.726   5.365   2.765
11107TIP3   OH233263   2.403   0.758   3.144
11107TIP3    H133264   2.410   0.850   3.172
11107TIP3    H233265   2.431   0.759   3.053
11108TIP3   OH233266   2.999   6.503   1.764
11108TIP3    H133267   2.909   6.492   1.734
11108TIP3    H233268   3.022   6.592   1.737
11109TIP3   OH233269   4.398   2.413   3.452
11109TIP3    H133270   4.362   2.357   3.521
11109TIP3    H233271   4.421   2.353   3.381
11110TIP3   OH233272   3.910   5.530   2.497
11110TIP3    H133273   3.885   5.608   2.448
11110TIP3    H233274   3.830   5.501   2.539
11111TIP3   OH233275   2.356   4.283   0.109
11111TIP3    H133276   2.447   4.271   0.137
11111TIP3    H233277   2.308   4.214   0.155
11112TIP3   OH233278   7.360   0.344   2.811
11112TIP3    H133279   7.273   0.330   2.849
11112TIP3    H233280   7.359   0.434   2.779
11113TIP3   OH233281   7.711   0.385   0.991
11113TIP3    H133282   7.697   0.331   1.068
11113TIP3    H233283   7.635   0.443   0.988
11114TIP3   OH233284   0.711   3.375   4.642
11114TIP3    H133285   0.670   3.448   4.596
11114TIP3    H233286   0.792   3.412   4.679
11115TIP3   OH233287   5.036   6.821   1.148
11115TIP3    H133288   5.022   6.912   1.121
11115TIP3    H233289   5.062   6.827   1.240
11116TIP3   OH233290   1.825   3.042   4.351
11116TIP3    H133291   1.866   3.074   4.432
11116TIP3    H233292   1.731   3.046   4.368
11117TIP3   OH233293   4.154   7.128   3.287
11117TIP3    H133294   4.164   7.038   3.316
11117TIP3    H233295   4.063   7.150   3.309
11118TIP3   OH233296   1.607   2.972   4.694
11118TIP3    H133297   1.551   2.907   4.736
11118TIP3    H233298   1.612   3.044   4.756
11119TIP3   OH233299   7.391   2.455   3.013
11119TIP3    H133300   7.389   2.519   2.941
11119TIP3    H233301   7.402   2.508   3.092
11120TIP3   OH233302   3.199   7.156   2.358
11120TIP3    H133303   3.282   7.189   2.324
11120TIP3    H233304   3.201   7.175   2.452
11121TIP3   OH233305   5.435   6.990   2.515
11121TIP3    H133306   5.461   7.069   2.562
11121TIP3    H233307   5.516   6.940   2.507
11122TIP3   OH233308   6.232   3.560   4.646
11122TIP3    H133309   6.165   3.575   4.712
11122TIP3    H233310   6.261   3.470   4.662
11123TIP3   OH233311   7.743   0.952   3.409
11123TIP3    H133312   7.693   0.904   3.344
11123TIP3    H233313   7.826   0.972   3.366
11124TIP3   OH233314   1.066   3.562   0.107
11124TIP3    H133315   1.091   3.652   0.128
11124TIP3    H233316   1.128   3.535   0.039
11125TIP3   OH233317   4.322   2.589   4.391
11125TIP3    H133318   4.413   2.585   4.363
11125TIP3    H233319   4.275   2.532   4.329
11126TIP3   OH233320   8.029   3.026   0.546
11126TIP3    H133321   7.981   3.054   0.469
11126TIP3    H233322   7.965   2.979   0.599
11127TIP3   OH233323   0.699   5.914   4.775
11127TIP3    H133324   0.703   6.008   4.763
11127TIP3    H233325   0.625   5.886   4.721
11128TIP3   OH233326   1.078   2.967   4.368
11128TIP3    H133327   1.172   2.963   4.352
11128TIP3    H233328   1.064   2.911   4.444
11129TIP3   OH233329   3.660   7.712   2.126
11129TIP3    H133330   3.580   7.663   2.104
11129TIP3    H233331   3.644   7.799   2.089
11130TIP3   OH233332   2.392   0.364   5.487
11130TIP3    H133333   2.469   0.343   5.540
11130TIP3    H233334   2.326   0.299   5.514
11131TIP3   OH233335   2.772   5.962   3.790
11131TIP3    H133336   2.830   6.023   3.746
11131TIP3    H233337   2.826   5.925   3.860
11132TIP3   OH233338   2.013   5.131   0.816
11132TIP3    H133339   1.943   5.067   0.830
11132TIP3    H233340   1.995   5.200   0.879
11133TIP3   OH233341   1.035   5.976   0.325
11133TIP3    H133342   1.037   5.997   0.419
11133TIP3    H233343   1.030   5.880   0.323
11134TIP3   OH233344   3.730   2.348   5.598
11134TIP3    H133345   3.653   2.292   5.602
11134TIP3    H233346   3.710   2.410   5.526
11135TIP3   OH233347   0.843   3.811   2.462
11135TIP3    H133348   0.790   3.877   2.506
11135TIP3    H233349   0.855   3.845   2.373
11136TIP3   OH233350   7.467   6.750   3.900
11136TIP3    H133351   7.382   6.780   3.931
11136TIP3    H233352   7.453   6.658   3.875
11137TIP3   OH233353   6.848   7.680   5.473
11137TIP3    H133354   6.884   7.769   5.468
11137TIP3    H233355   6.917   7.624   5.436
11138TIP3   OH233356   3.261   6.064   0.008
11138TIP3    H133357   3.166   6.057   0.004
11138TIP3    H233358   3.283   6.042   0.098
11139TIP3   OH233359   5.516   5.716   3.524
11139TIP3    H133360   5.479   5.703   3.612
11139TIP3    H233361   5.608   5.737   3.540
11140TIP3   OH233362   2.542   0.369   2.468
11140TIP3    H133363   2.456   0.344   2.502
11140TIP3    H233364   2.529   0.379   2.374
11141TIP3   OH233365   1.008   3.214   0.010
11141TIP3    H133366   1.075   3.145   0.012
11141TIP3    H233367   0.926   3.167   0.024
11142TIP3   OH233368   6.740   4.012   2.272
11142TIP3    H133369   6.804   4.074   2.236
11142TIP3    H233370   6.696   4.061   2.341
11143TIP3   OH233371   6.781   2.008   6.494
11143TIP3    H133372   6.815   1.927   6.533
11143TIP3    H233373   6.734   1.980   6.416
11144TIP3   OH233374   6.769   4.502   1.060
11144TIP3    H133375   6.769   4.436   1.129
11144TIP3    H233376   6.831   4.569   1.090
11145TIP3   OH233377   7.664   6.653   3.584
11145TIP3    H133378   7.582   6.613   3.612
11145TIP3    H233379   7.713   6.667   3.665
11146TIP3   OH233380   7.011   4.935   1.063
11146TIP3    H133381   7.068   4.978   0.999
11146TIP3    H233382   7.037   4.973   1.147
11147TIP3   OH233383   7.065   6.942   4.921
11147TIP3    H133384   7.120   6.890   4.979
11147TIP3    H233385   7.126   6.978   4.856
11148TIP3   OH233386   0.090   0.715   5.087
11148TIP3    H133387   0.103   0.637   5.032
11148TIP3    H233388   0.132   0.786   5.038
11149TIP3   OH233389  -0.013   5.098   4.386
11149TIP3    H133390   0.038   5.098   4.467
11149TIP3    H233391   0.049   5.071   4.319
11150TIP3   OH233392   6.764   5.105   4.710
11150TIP3    H133393   6.705   5.030   4.702
11150TIP3    H233394   6.806   5.113   4.624
11151TIP3   OH233395   7.968   6.090   0.546
11151TIP3    H133396   8.013   6.169   0.577
11151TIP3    H233397   8.038   6.025   0.538
11152TIP3   OH233398   1.149   2.524   6.142
11152TIP3    H133399   1.218   2.483   6.193
11152TIP3    H233400   1.144   2.474   6.061
11153TIP3   OH233401   7.735   6.251   3.028
11153TIP3    H133402   7.712   6.204   3.107
11153TIP3    H233403   7.670   6.223   2.963
11154TIP3   OH233404   0.047   7.755   3.959
11154TIP3    H133405   0.054   7.803   4.041
11154TIP3    H233406  -0.043   7.722   3.958
11155TIP3   OH233407   7.551   6.781   6.654
11155TIP3    H133408   7.514   6.787   6.566
11155TIP3    H233409   7.477   6.763   6.711
11156TIP3   OH233410   2.593   6.463   0.735
11156TIP3    H133411   2.537   6.410   0.678
11156TIP3    H233412   2.661   6.403   0.766
11157TIP3   OH233413   5.892   5.544   2.444
11157TIP3    H133414   5.900   5.476   2.512
11157TIP3    H233415   5.934   5.506   2.367
11158TIP3   OH233416   4.781   2.594   5.485
11158TIP3    H133417   4.863   2.584   5.534
11158TIP3    H233418   4.807   2.591   5.393
11159TIP3   OH233419   0.476   5.273   5.116
11159TIP3    H133420   0.435   5.208   5.059
11159TIP3    H233421   0.544   5.225   5.162
11160TIP3   OH233422   4.006   4.045   3.337
11160TIP3    H133423   3.955   4.091   3.404
11160TIP3    H233424   4.086   4.017   3.382
11161TIP3   OH233425   7.358   1.897   6.052
11161TIP3    H133426   7.322   1.849   6.126
11161TIP3    H233427   7.283   1.910   5.994
11162TIP3   OH233428   4.801   6.113   5.772
11162TIP3    H133429   4.871   6.113   5.706
11162TIP3    H233430   4.738   6.178   5.740
11163TIP3   OH233431   3.940   4.219   3.572
11163TIP3    H133432   3.944   4.260   3.658
11163TIP3    H233433   4.007   4.151   3.574
11164TIP3   OH233434   1.175   5.075   5.721
11164TIP3    H133435   1.254   5.022   5.712
11164TIP3    H233436   1.132   5.041   5.799
11165TIP3   OH233437   7.383   2.590   2.272
11165TIP3    H133438   7.329   2.574   2.349
11165TIP3    H233439   7.473   2.592   2.306
11166TIP3   OH233440   3.776   4.818   0.624
11166TIP3    H133441   3.692   4.861   0.641
11166TIP3    H233442   3.769   4.786   0.534
11167TIP3   OH233443   5.265   2.657   5.884
11167TIP3    H133444   5.303   2.727   5.937
11167TIP3    H233445   5.271   2.689   5.794
11168TIP3   OH233446   6.695   5.306   2.659
11168TIP3    H133447   6.718   5.376   2.598
11168TIP3    H233448   6.749   5.321   2.736
11169TIP3   OH233449   0.478   1.880   1.948
11169TIP3    H133450   0.482   1.908   2.039
11169TIP3    H233451   0.567   1.893   1.915
11170TIP3   OH233452   7.545   1.383   2.051
11170TIP3    H133453   7.466   1.411   2.005
11170TIP3    H233454   7.554   1.444   2.124
11171TIP3   OH233455   3.686   7.508   3.502
11171TIP3    H133456   3.737   7.518   3.583
11171TIP3    H233457   3.628   7.434   3.520
11172TIP3   OH233458   6.030   3.832   2.153
11172TIP3    H133459   5.997   3.780   2.226
11172TIP3    H233460   5.988   3.793   2.076
11173TIP3   OH233461   1.503   5.312   0.582
11173TIP3    H133462   1.436   5.245   0.568
11173TIP3    H233463   1.472   5.362   0.658
11174TIP3   OH233464   5.322   6.498   5.617
11174TIP3    H133465   5.288   6.507   5.527
11174TIP3    H233466   5.290   6.412   5.645
11175TIP3   OH233467   1.438   6.763   3.618
11175TIP3    H133468   1.464   6.688   3.564
11175TIP3    H233469   1.343   6.769   3.605
11176TIP3   OH233470   0.695   4.722   1.722
11176TIP3    H133471   0.615   4.670   1.717
11176TIP3    H233472   0.734   4.716   1.635
11177TIP3   OH233473   6.834   1.440   5.058
11177TIP3    H133474   6.749   1.435   5.102
11177TIP3    H233475   6.860   1.532   5.065
11178TIP3   OH233476   5.694   6.582   4.462
11178TIP3    H133477   5.650   6.570   4.546
11178TIP3    H233478   5.759   6.512   4.459
11179TIP3   OH233479   4.636   2.876   3.439
11179TIP3    H133480   4.706   2.893   3.502
11179TIP3    H233481   4.600   2.791   3.464
11180TIP3   OH233482   1.908   6.580   0.104
11180TIP3    H133483   1.934   6.589   0.196
11180TIP3    H233484   1.975   6.630   0.056
11181TIP3   OH233485   4.259   2.437   4.144
11181TIP3    H133486   4.293   2.446   4.055
11181TIP3    H233487   4.171   2.401   4.131
11182TIP3   OH233488   3.364   7.426   6.659
11182TIP3    H133489   3.451   7.464   6.652
11182TIP3    H233490   3.351   7.412   6.753
11183TIP3   OH233491   0.050   4.089   1.176
11183TIP3    H133492  -0.001   4.168   1.191
11183TIP3    H233493  -0.014   4.018   1.181
11184TIP3   OH233494   3.706   4.701   1.393
11184TIP3    H133495   3.701   4.672   1.484
11184TIP3    H233496   3.750   4.786   1.397
11185TIP3   OH233497   1.760   6.816   5.652
11185TIP3    H133498   1.836   6.783   5.606
11185TIP3    H233499   1.790   6.825   5.743
11186TIP3   OH233500   3.687   2.566   5.768
11186TIP3    H133501   3.734   2.638   5.726
11186TIP3    H233502   3.696   2.493   5.707
11187TIP3   OH233503   2.818   2.487   4.600
11187TIP3    H133504   2.805   2.560   4.660
11187TIP3    H233505   2.767   2.416   4.638
11188TIP3   OH233506   4.506   7.247   6.230
11188TIP3    H133507   4.494   7.223   6.322
11188TIP3    H233508   4.444   7.319   6.216
11189TIP3   OH233509   5.212   6.612   3.763
11189TIP3    H133510   5.118   6.627   3.768
11189TIP3    H233511   5.226   6.527   3.806
11190TIP3   OH233512   6.620   2.521   5.600
11190TIP3    H133513   6.710   2.509   5.629
11190TIP3    H233514   6.628   2.554   5.510
11191TIP3   OH233515   7.791   2.455   0.053
11191TIP3    H133516   7.835   2.513   0.115
11191TIP3    H233517   7.754   2.514  -0.013
11192TIP3   OH233518   2.930   4.851   3.760
11192TIP3    H133519   2.963   4.846   3.850
11192TIP3    H233520   2.837   4.872   3.769
11193TIP3   OH233521   4.018   6.112   4.090
11193TIP3    H133522   3.931   6.137   4.059
11193TIP3    H233523   4.029   6.021   4.061
11194TIP3   OH233524   3.232   6.852   3.737
11194TIP3    H133525   3.184   6.928   3.770
11194TIP3    H233526   3.185   6.777   3.773
11195TIP3   OH233527   3.939   2.138   2.669
11195TIP3    H133528   4.029   2.169   2.661
11195TIP3    H233529   3.885   2.215   2.651
11196TIP3   OH233530   5.339   0.166   3.860
11196TIP3    H133531   5.326   0.092   3.919
11196TIP3    H233532   5.287   0.237   3.898
11197TIP3   OH233533   6.530   2.157   4.684
11197TIP3    H133534   6.624   2.174   4.690
11197TIP3    H233535   6.500   2.153   4.775
11198TIP3   OH233536   3.736   1.635   4.322
11198TIP3    H133537   3.754   1.614   4.414
11198TIP3    H233538   3.678   1.711   4.326
11199TIP3   OH233539   5.617   5.615   5.490
11199TIP3    H133540   5.574   5.547   5.438
11199TIP3    H233541   5.631   5.687   5.429
11200TIP3   OH233542   6.315   5.038   2.367
11200TIP3    H133543   6.374   5.100   2.324
11200TIP3    H233544   6.349   4.951   2.342
11201TIP3   OH233545   5.795   6.970   6.429
11201TIP3    H133546   5.756   7.052   6.461
11201TIP3    H233547   5.794   6.978   6.334
11202TIP3   OH233548   7.606   0.929   1.816
11202TIP3    H133549   7.597   0.881   1.898
11202TIP3    H233550   7.676   0.992   1.832
11203TIP3   OH233551   6.720   1.427   2.248
11203TIP3    H133552   6.789   1.468   2.300
11203TIP3    H233553   6.689   1.355   2.302
11204TIP3   OH233554   2.223   6.005   0.889
11204TIP3    H133555   2.153   6.062   0.856
11204TIP3    H233556   2.178   5.942   0.946
11205TIP3   OH233557   3.725   1.272   4.232
11205TIP3    H133558   3.809   1.306   4.262
11205TIP3    H233559   3.694   1.218   4.304
11206TIP3   OH233560   2.662   6.032   4.275
11206TIP3    H133561   2.612   6.043   4.193
11206TIP3    H233562   2.662   6.119   4.315
11207TIP3   OH233563   5.168   4.943   2.033
11207TIP3    H133564   5.074   4.922   2.034
11207TIP3    H233565   5.171   5.037   2.047
11208TIP3   OH233566   7.689   4.011   1.343
11208TIP3    H133567   7.628   3.966   1.284
11208TIP3    H233568   7.728   4.080   1.290
11209TIP3   OH233569   1.746   4.211   3.440
11209TIP3    H133570   1.779   4.286   3.390
11209TIP3    H233571   1.787   4.221   3.527
11210TIP3   OH233572   4.661   7.335   6.524
11210TIP3    H133573   4.598   7.265   6.535
11210TIP3    H233574   4.614   7.415   6.548
11211TIP3   OH233575   2.325   6.239   4.836
11211TIP3    H133576   2.266   6.299   4.881
11211TIP3    H233577   2.382   6.295   4.784
11212TIP3   OH233578   1.824   6.542   3.223
11212TIP3    H133579   1.786   6.491   3.152
11212TIP3    H233580   1.751   6.596   3.255
11213TIP3   OH233581   1.888   4.552   3.982
11213TIP3    H133582   1.909   4.488   3.914
11213TIP3    H233583   1.895   4.637   3.937
11214TIP3   OH233584   7.664   7.123   4.396
11214TIP3    H133585   7.637   7.200   4.346
11214TIP3    H233586   7.583   7.077   4.415
11215TIP3   OH233587   3.356   2.662   2.657
11215TIP3    H133588   3.316   2.603   2.594
11215TIP3    H233589   3.407   2.724   2.604
11216TIP3   OH233590   6.561   2.369   3.257
11216TIP3    H133591   6.474   2.374   3.295
11216TIP3    H233592   6.621   2.373   3.331
11217TIP3   OH233593   4.370   7.656   0.865
11217TIP3    H133594   4.459   7.624   0.849
11217TIP3    H233595   4.377   7.751   0.854
11218TIP3   OH233596   7.211   1.428   5.660
11218TIP3    H133597   7.166   1.437   5.577
11218TIP3    H233598   7.278   1.497   5.660
11219TIP3   OH233599   2.727   4.393   4.615
11219TIP3    H133600   2.742   4.352   4.700
11219TIP3    H233601   2.778   4.340   4.553
11220TIP3   OH233602   5.168   1.869   2.567
11220TIP3    H133603   5.172   1.893   2.474
11220TIP3    H233604   5.091   1.813   2.574
11221TIP3   OH233605   4.487   5.450   1.178
11221TIP3    H133606   4.472   5.428   1.270
11221TIP3    H233607   4.523   5.370   1.139
11222TIP3   OH233608   2.135   0.134   2.798
11222TIP3    H133609   2.060   0.075   2.801
11222TIP3    H233610   2.204   0.087   2.846
11223TIP3   OH233611   7.711   5.147   0.347
11223TIP3    H133612   7.747   5.217   0.293
11223TIP3    H233613   7.641   5.189   0.397
11224TIP3   OH233614   0.152   6.506   0.404
11224TIP3    H133615   0.225   6.473   0.352
11224TIP3    H233616   0.167   6.601   0.408
11225TIP3   OH233617   1.494   1.399   1.277
11225TIP3    H133618   1.570   1.440   1.234
11225TIP3    H233619   1.532   1.334   1.336
11226TIP3   OH233620   7.990   4.571   2.030
11226TIP3    H133621   7.957   4.485   2.007
11226TIP3    H233622   8.085   4.561   2.031
11227TIP3   OH233623   3.849   1.082   0.267
11227TIP3    H133624   3.836   0.999   0.221
11227TIP3    H233625   3.927   1.068   0.320
11228TIP3   OH233626   3.009   2.167   1.616
11228TIP3    H133627   3.058   2.247   1.601
11228TIP3    H233628   2.951   2.160   1.540
11229TIP3   OH233629   7.020   0.016   2.958
11229TIP3    H133630   7.073   0.096   2.954
11229TIP3    H233631   6.998   0.007   3.051
11230TIP3   OH233632   4.124   0.078   3.589
11230TIP3    H133633   4.057   0.041   3.646
11230TIP3    H233634   4.109   0.172   3.591
11231TIP3   OH233635   2.001   3.219   2.144
11231TIP3    H133636   2.021   3.136   2.186
11231TIP3    H233637   2.053   3.283   2.190
11232TIP3   OH233638   5.870   4.905   5.347
11232TIP3    H133639   5.827   4.856   5.277
11232TIP3    H233640   5.948   4.853   5.368
11233TIP3   OH233641   4.465   0.181   1.545
11233TIP3    H133642   4.501   0.258   1.502
11233TIP3    H233643   4.484   0.193   1.638
11234TIP3   OH233644   1.294   0.202   4.752
11234TIP3    H133645   1.364   0.137   4.749
11234TIP3    H233646   1.276   0.213   4.846
11235TIP3   OH233647   4.035   7.493   0.606
11235TIP3    H133648   4.045   7.491   0.702
11235TIP3    H233649   4.030   7.401   0.581
11236TIP3   OH233650   7.032   2.904   3.167
11236TIP3    H133651   7.037   2.999   3.174
11236TIP3    H233652   6.956   2.887   3.112
11237TIP3   OH233653   1.516   2.957   2.443
11237TIP3    H133654   1.501   2.934   2.351
11237TIP3    H233655   1.561   2.881   2.479
11238TIP3   OH233656   7.773   2.037   3.955
11238TIP3    H133657   7.757   1.947   3.927
11238TIP3    H233658   7.819   2.077   3.881
11239TIP3   OH233659   6.996   7.447   0.928
11239TIP3    H133660   6.958   7.419   1.011
11239TIP3    H233661   7.085   7.475   0.950
11240TIP3   OH233662   1.732   4.888   4.664
11240TIP3    H133663   1.735   4.911   4.571
11240TIP3    H233664   1.806   4.935   4.703
11241TIP3   OH233665   5.022   5.708   1.045
11241TIP3    H133666   5.107   5.725   1.004
11241TIP3    H233667   5.040   5.709   1.139
11242TIP3   OH233668   7.290   1.381   6.066
11242TIP3    H133669   7.311   1.287   6.062
11242TIP3    H233670   7.326   1.410   6.150
11243TIP3   OH233671   7.432   0.875   2.043
11243TIP3    H133672   7.347   0.886   1.999
11243TIP3    H233673   7.451   0.961   2.080
11244TIP3   OH233674   3.112   5.566   0.935
11244TIP3    H133675   3.078   5.649   0.967
11244TIP3    H233676   3.131   5.581   0.842
11245TIP3   OH233677   6.888   1.882   0.913
11245TIP3    H133678   6.972   1.925   0.923
11245TIP3    H233679   6.895   1.800   0.963
11246TIP3   OH233680   5.271   6.010   5.278
11246TIP3    H133681   5.305   6.074   5.340
11246TIP3    H233682   5.278   5.926   5.324
11247TIP3   OH233683   7.350   7.068   6.238
11247TIP3    H133684   7.335   7.024   6.155
11247TIP3    H233685   7.389   7.001   6.294
11248TIP3   OH233686   0.672   2.717   1.803
11248TIP3    H133687   0.714   2.641   1.765
11248TIP3    H233688   0.726   2.740   1.878
11249TIP3   OH233689   1.448   6.520   6.426
11249TIP3    H133690   1.534   6.485   6.403
11249TIP3    H233691   1.386   6.458   6.389
11250TIP3   OH233692   1.793   5.270   1.701
11250TIP3    H133693   1.830   5.312   1.778
11250TIP3    H233694   1.801   5.176   1.719
11251TIP3   OH233695   1.277   7.531   3.259
11251TIP3    H133696   1.282   7.473   3.335
11251TIP3    H233697   1.301   7.617   3.293
11252TIP3   OH233698   7.016   5.937   3.372
11252TIP3    H133699   7.043   6.028   3.359
11252TIP3    H233700   7.095   5.893   3.405
11253TIP3   OH233701   7.089   0.581   3.417
11253TIP3    H133702   7.105   0.520   3.345
11253TIP3    H233703   6.996   0.601   3.412
11254TIP3   OH233704   4.751   3.121   4.559
11254TIP3    H133705   4.709   3.048   4.513
11254TIP3    H233706   4.744   3.098   4.652
11255TIP3   OH233707   3.534   0.822   2.838
11255TIP3    H133708   3.490   0.742   2.806
11255TIP3    H233709   3.518   0.822   2.932
11256TIP3   OH233710   6.870   1.252   6.627
11256TIP3    H133711   6.850   1.191   6.698
11256TIP3    H233712   6.931   1.315   6.666
11257TIP3   OH233713   0.187   0.875   5.304
11257TIP3    H133714   0.202   0.919   5.220
11257TIP3    H233715   0.152   0.789   5.279
11258TIP3   OH233716   1.497   2.610   5.554
11258TIP3    H133717   1.536   2.588   5.470
11258TIP3    H233718   1.534   2.546   5.615
11259TIP3   OH233719   7.487   3.722   0.468
11259TIP3    H133720   7.533   3.770   0.399
11259TIP3    H233721   7.396   3.752   0.463
11260TIP3   OH233722   3.249   5.228   3.202
11260TIP3    H133723   3.168   5.177   3.208
11260TIP3    H233724   3.250   5.281   3.282
11261TIP3   OH233725   3.263   6.982   6.729
11261TIP3    H133726   3.325   6.917   6.695
11261TIP3    H233727   3.306   7.016   6.808
11262TIP3   OH233728   6.985   0.544   0.748
11262TIP3    H133729   7.019   0.623   0.705
11262TIP3    H233730   6.907   0.521   0.697
11263TIP3   OH233731   6.456   0.066   5.426
11263TIP3    H133732   6.530   0.086   5.370
11263TIP3    H233733   6.383   0.051   5.366
11264TIP3   OH233734   5.125   6.627   1.406
11264TIP3    H133735   5.157   6.624   1.497
11264TIP3    H233736   5.197   6.666   1.357
11265TIP3   OH233737   2.809   6.477   5.929
11265TIP3    H133738   2.727   6.500   5.973
11265TIP3    H233739   2.859   6.559   5.928
11266TIP3   OH233740   7.487   7.013   0.349
11266TIP3    H133741   7.438   6.973   0.276
11266TIP3    H233742   7.442   6.982   0.427
11267TIP3   OH233743   1.856   2.267   5.971
11267TIP3    H133744   1.900   2.321   6.036
11267TIP3    H233745   1.923   2.205   5.942
11268TIP3   OH233746   3.779   0.266   6.367
11268TIP3    H133747   3.704   0.326   6.375
11268TIP3    H233748   3.751   0.203   6.301
11269TIP3   OH233749   2.666   5.333   6.116
11269TIP3    H133750   2.573   5.350   6.134
11269TIP3    H233751   2.676   5.239   6.128
11270TIP3   OH233752   5.223   4.549   6.428
11270TIP3    H133753   5.187   4.618   6.483
11270TIP3    H233754   5.307   4.528   6.467
11271TIP3   OH233755   2.854   3.999   1.013
11271TIP3    H133756   2.888   3.911   1.030
11271TIP3    H233757   2.779   4.008   1.071
11272TIP3   OH233758   4.471   2.513   6.006
11272TIP3    H133759   4.493   2.421   6.022
11272TIP3    H233760   4.437   2.515   5.917
11273TIP3   OH233761   2.006   4.865   4.818
11273TIP3    H133762   2.038   4.846   4.730
11273TIP3    H233763   1.991   4.959   4.818
11274TIP3   OH233764   3.677   3.693   4.547
11274TIP3    H133765   3.733   3.617   4.564
11274TIP3    H233766   3.593   3.655   4.522
11275TIP3   OH233767   5.816   0.529   1.270
11275TIP3    H133768   5.832   0.526   1.175
11275TIP3    H233769   5.882   0.589   1.304
11276TIP3   OH233770   3.185   4.294   4.900
11276TIP3    H133771   3.271   4.283   4.940
11276TIP3    H233772   3.173   4.389   4.895
11277TIP3   OH233773   7.615   3.304   0.444
11277TIP3    H133774   7.689   3.332   0.498
11277TIP3    H233775   7.539   3.347   0.484
11278TIP3   OH233776   7.245   0.142   3.615
11278TIP3    H133777   7.304   0.143   3.690
11278TIP3    H233778   7.166   0.101   3.647
11279TIP3   OH233779   5.366   4.008   0.911
11279TIP3    H133780   5.335   4.021   1.001
11279TIP3    H233781   5.382   3.914   0.905
11280TIP3   OH233782   2.864   1.087   3.809
11280TIP3    H133783   2.839   1.070   3.719
11280TIP3    H233784   2.960   1.088   3.808
11281TIP3   OH233785   4.237   6.007   0.142
11281TIP3    H133786   4.277   6.092   0.159
11281TIP3    H233787   4.299   5.962   0.084
11282TIP3   OH233788   6.272   1.390   2.604
11282TIP3    H133789   6.329   1.384   2.681
11282TIP3    H233790   6.218   1.467   2.621
11283TIP3   OH233791  -0.016   6.148   4.521
11283TIP3    H133792   0.005   6.115   4.609
11283TIP3    H233793  -0.062   6.076   4.479
11284TIP3   OH233794   1.625   3.326   5.441
11284TIP3    H133795   1.576   3.361   5.367
11284TIP3    H233796   1.693   3.391   5.459
11285TIP3   OH233797   1.485   2.478   1.662
11285TIP3    H133798   1.397   2.515   1.671
11285TIP3    H233799   1.470   2.383   1.657
11286TIP3   OH233800   4.706   6.035   2.437
11286TIP3    H133801   4.697   5.959   2.496
11286TIP3    H233802   4.616   6.060   2.417
11287TIP3   OH233803   4.051   2.016   6.659
11287TIP3    H133804   4.022   1.946   6.718
11287TIP3    H233805   4.010   1.995   6.575
11288TIP3   OH233806   1.382   2.215   6.363
11288TIP3    H133807   1.358   2.123   6.372
11288TIP3    H233808   1.332   2.260   6.432
11289TIP3   OH233809   2.337   1.855   4.906
11289TIP3    H133810   2.279   1.930   4.893
11289TIP3    H233811   2.277   1.783   4.929
11290TIP3   OH233812   5.269   2.858   2.125
11290TIP3    H133813   5.243   2.949   2.136
11290TIP3    H233814   5.360   2.855   2.152
11291TIP3   OH233815   0.448   4.000   1.962
11291TIP3    H133816   0.397   4.057   2.019
11291TIP3    H233817   0.477   4.058   1.891
11292TIP3   OH233818   4.408   7.643   6.035
11292TIP3    H133819   4.375   7.567   6.082
11292TIP3    H233820   4.481   7.610   5.983
11293TIP3   OH233821   0.779   5.801   5.764
11293TIP3    H133822   0.741   5.714   5.751
11293TIP3    H233823   0.781   5.813   5.859
11294TIP3   OH233824   6.312   7.443   3.177
11294TIP3    H133825   6.379   7.442   3.108
11294TIP3    H233826   6.247   7.506   3.146
11295TIP3   OH233827   1.675   1.238   2.215
11295TIP3    H133828   1.709   1.251   2.304
11295TIP3    H233829   1.665   1.144   2.206
11296TIP3   OH233830   1.425   3.795   1.292
11296TIP3    H133831   1.478   3.839   1.226
11296TIP3    H233832   1.341   3.779   1.249
11297TIP3   OH233833   5.388   3.981   5.063
11297TIP3    H133834   5.354   3.969   4.974
11297TIP3    H233835   5.356   4.068   5.088
11298TIP3   OH233836   0.200   4.903   1.086
11298TIP3    H133837   0.276   4.861   1.046
11298TIP3    H233838   0.235   4.949   1.162
11299TIP3   OH233839   0.965   3.207   4.639
11299TIP3    H133840   0.999   3.245   4.720
11299TIP3    H233841   0.870   3.211   4.649
11300TIP3   OH233842   7.388   1.080   1.688
11300TIP3    H133843   7.445   1.145   1.645
11300TIP3    H233844   7.445   1.038   1.752
11301TIP3   OH233845   3.797   2.735   0.867
11301TIP3    H133846   3.869   2.727   0.805
11301TIP3    H233847   3.719   2.712   0.817
11302TIP3   OH233848   1.996   6.617   5.421
11302TIP3    H133849   2.044   6.641   5.342
11302TIP3    H233850   1.981   6.700   5.467
11303TIP3   OH233851   6.869   1.757   1.492
11303TIP3    H133852   6.820   1.691   1.542
11303TIP3    H233853   6.906   1.815   1.559
11304TIP3   OH233854   6.836   5.403   3.505
11304TIP3    H133855   6.926   5.433   3.496
11304TIP3    H233856   6.824   5.392   3.600
11305TIP3   OH233857   4.931   2.023   2.796
11305TIP3    H133858   4.927   2.118   2.804
11305TIP3    H233859   4.885   2.003   2.715
11306TIP3   OH233860   4.180   5.688   2.411
11306TIP3    H133861   4.167   5.644   2.327
11306TIP3    H233862   4.195   5.617   2.473
11307TIP3   OH233863   2.776   3.599   5.873
11307TIP3    H133864   2.843   3.625   5.937
11307TIP3    H233865   2.723   3.535   5.921
11308TIP3   OH233866   2.150   3.365   2.340
11308TIP3    H133867   2.220   3.368   2.405
11308TIP3    H233868   2.170   3.438   2.280
11309TIP3   OH233869   8.007   2.534   6.534
11309TIP3    H133870   8.007   2.443   6.564
11309TIP3    H233871   8.044   2.584   6.607
11310TIP3   OH233872   3.360   7.591   2.958
11310TIP3    H133873   3.417   7.654   3.003
11310TIP3    H233874   3.371   7.611   2.865
11311TIP3   OH233875   4.713   0.892   4.482
11311TIP3    H133876   4.663   0.812   4.498
11311TIP3    H233877   4.804   0.864   4.477
11312TIP3   OH233878   6.190   0.540   0.999
11312TIP3    H133879   6.133   0.496   1.063
11312TIP3    H233880   6.264   0.482   0.988
11313TIP3   OH233881   6.556   3.514   2.926
11313TIP3    H133882   6.489   3.582   2.932
11313TIP3    H233883   6.546   3.479   2.838
11314TIP3   OH233884   7.771   1.000   0.117
11314TIP3    H133885   7.682   0.978   0.142
11314TIP3    H233886   7.761   1.069   0.051
11315TIP3   OH233887   4.907   5.768   3.402
11315TIP3    H133888   4.962   5.693   3.379
11315TIP3    H233889   4.955   5.813   3.472
11316TIP3   OH233890   7.664   4.187   2.269
11316TIP3    H133891   7.645   4.096   2.292
11316TIP3    H233892   7.712   4.222   2.344
11317TIP3   OH233893   0.332   1.973   6.096
11317TIP3    H133894   0.248   1.955   6.054
11317TIP3    H233895   0.367   1.887   6.119
11318TIP3   OH233896   1.987   7.834   1.979
11318TIP3    H133897   2.004   7.808   1.889
11318TIP3    H233898   2.070   7.818   2.025
11319TIP3   OH233899   6.506   4.792   1.433
11319TIP3    H133900   6.579   4.767   1.488
11319TIP3    H233901   6.542   4.856   1.371
11320TIP3   OH233902   3.885   6.629   0.489
11320TIP3    H133903   3.879   6.620   0.584
11320TIP3    H233904   3.802   6.597   0.456
11321TIP3   OH233905   0.732   3.223   6.770
11321TIP3    H133906   0.640   3.223   6.796
11321TIP3    H233907   0.763   3.135   6.794
11322TIP3   OH233908   4.839   0.174   4.362
11322TIP3    H133909   4.886   0.255   4.342
11322TIP3    H233910   4.876   0.109   4.303
11323TIP3   OH233911   4.919   4.175   3.237
11323TIP3    H133912   4.865   4.222   3.172
11323TIP3    H233913   4.966   4.109   3.186
11324TIP3   OH233914   5.158   5.597   6.527
11324TIP3    H133915   5.228   5.585   6.591
11324TIP3    H233916   5.081   5.556   6.567
11325TIP3   OH233917   5.018   3.925   4.301
11325TIP3    H133918   5.019   3.999   4.241
11325TIP3    H233919   4.927   3.894   4.300
11326TIP3   OH233920   0.512   3.727   4.857
11326TIP3    H133921   0.443   3.747   4.920
11326TIP3    H233922   0.483   3.647   4.813
11327TIP3   OH233923   5.283   2.699   5.213
11327TIP3    H133924   5.238   2.676   5.132
11327TIP3    H233925   5.269   2.793   5.223
11328TIP3   OH233926   2.159   2.742   2.117
11328TIP3    H133927   2.230   2.702   2.166
11328TIP3    H233928   2.108   2.668   2.084
11329TIP3   OH233929   8.243   6.413   5.190
11329TIP3    H133930   8.334   6.432   5.212
11329TIP3    H233931   8.198   6.497   5.201
11330TIP3   OH233932   2.884   2.350   5.797
11330TIP3    H133933   2.806   2.377   5.750
11330TIP3    H233934   2.936   2.301   5.733
11331TIP3   OH233935   5.258   0.328   1.974
11331TIP3    H133936   5.250   0.407   2.027
11331TIP3    H233937   5.352   0.315   1.963
11332TIP3   OH233938   8.069   7.109   3.535
11332TIP3    H133939   8.163   7.091   3.529
11332TIP3    H233940   8.060   7.199   3.505
11333TIP3   OH233941   4.361   2.073   5.287
11333TIP3    H133942   4.415   2.089   5.209
11333TIP3    H233943   4.415   2.101   5.360
11334TIP3   OH233944   5.909   6.029   3.085
11334TIP3    H133945   5.985   5.988   3.044
11334TIP3    H233946   5.942   6.113   3.117
11335TIP3   OH233947   1.585   6.937   1.505
11335TIP3    H133948   1.664   6.887   1.484
11335TIP3    H233949   1.576   6.927   1.600
11336TIP3   OH233950   0.774   5.940   3.310
11336TIP3    H133951   0.702   5.936   3.248
11336TIP3    H233952   0.851   5.912   3.260
11337TIP3   OH233953   1.616   0.924   0.375
11337TIP3    H133954   1.614   0.829   0.374
11337TIP3    H233955   1.670   0.946   0.451
11338TIP3   OH233956   7.481   7.220   5.425
11338TIP3    H133957   7.499   7.137   5.381
11338TIP3    H233958   7.532   7.216   5.506
11339TIP3   OH233959   5.513   6.704   5.478
11339TIP3    H133960   5.495   6.647   5.403
11339TIP3    H233961   5.592   6.752   5.453
11340TIP3   OH233962   1.756   6.359   1.739
11340TIP3    H133963   1.761   6.362   1.834
11340TIP3    H233964   1.821   6.293   1.714
11341TIP3   OH233965   0.801   0.738   2.965
11341TIP3    H133966   0.711   0.768   2.983
11341TIP3    H233967   0.843   0.814   2.923
11342TIP3   OH233968   4.149   1.197   0.119
11342TIP3    H133969   4.179   1.192   0.029
11342TIP3    H233970   4.174   1.113   0.158
11343TIP3   OH233971   7.864   3.539   4.685
11343TIP3    H133972   7.900   3.451   4.697
11343TIP3    H233973   7.893   3.565   4.597
11344TIP3   OH233974   0.310   4.215   2.055
11344TIP3    H133975   0.226   4.255   2.032
11344TIP3    H233976   0.343   4.268   2.127
11345TIP3   OH233977   5.732   3.955   6.058
11345TIP3    H133978   5.823   3.974   6.036
11345TIP3    H233979   5.682   3.992   5.985
11346TIP3   OH233980   5.447   2.735   4.745
11346TIP3    H133981   5.437   2.677   4.821
11346TIP3    H233982   5.365   2.786   4.743
11347TIP3   OH233983   6.880   2.354   1.117
11347TIP3    H133984   6.975   2.356   1.111
11347TIP3    H233985   6.856   2.437   1.158
11348TIP3   OH233986   3.380   1.097   0.672
11348TIP3    H133987   3.391   1.132   0.760
11348TIP3    H233988   3.454   1.133   0.623
11349TIP3   OH233989   1.179   1.955   6.631
11349TIP3    H133990   1.096   1.918   6.602
11349TIP3    H233991   1.221   1.987   6.551
11350TIP3   OH233992   1.652   7.186   1.225
11350TIP3    H133993   1.631   7.218   1.313
11350TIP3    H233994   1.707   7.109   1.240
11351TIP3   OH233995   5.107   2.349   5.059
11351TIP3    H133996   5.095   2.443   5.045
11351TIP3    H233997   5.023   2.310   5.035
11352TIP3   OH233998   3.811   6.243   5.463
11352TIP3    H133999   3.821   6.310   5.396
11352TIP3    H234000   3.736   6.190   5.434
11353TIP3   OH234001   1.661   1.348   6.504
11353TIP3    H134002   1.588   1.287   6.518
11353TIP3    H234003   1.645   1.384   6.417
11354TIP3   OH234004   4.183   1.120   1.045
11354TIP3    H134005   4.109   1.085   0.996
11354TIP3    H234006   4.251   1.052   1.039
11355TIP3   OH234007   2.259   2.341   3.585
11355TIP3    H134008   2.191   2.273   3.581
11355TIP3    H234009   2.229   2.400   3.654
11356TIP3   OH234010   0.871   2.977   2.639
11356TIP3    H134011   0.887   2.950   2.548
11356TIP3    H234012   0.883   2.897   2.690
11357TIP3   OH234013   8.247   0.722   4.405
11357TIP3    H134014   8.194   0.649   4.439
11357TIP3    H234015   8.242   0.713   4.310
11358TIP3   OH234016   1.119   3.773   2.811
11358TIP3    H134017   1.185   3.842   2.818
11358TIP3    H234018   1.120   3.748   2.719
11359TIP3   OH234019   7.980   1.268   2.920
11359TIP3    H134020   7.961   1.266   3.014
11359TIP3    H234021   7.894   1.260   2.879
11360TIP3   OH234022   7.299   6.333   5.143
11360TIP3    H134023   7.316   6.427   5.137
11360TIP3    H234024   7.264   6.320   5.231
11361TIP3   OH234025   5.877   0.510   2.173
11361TIP3    H134026   5.810   0.577   2.160
11361TIP3    H234027   5.949   0.555   2.217
11362TIP3   OH234028   2.243   1.260   6.489
11362TIP3    H134029   2.272   1.299   6.572
11362TIP3    H234030   2.194   1.182   6.515
11363TIP3   OH234031   7.977   6.671   2.359
11363TIP3    H134032   8.009   6.668   2.268
11363TIP3    H234033   8.044   6.625   2.409
11364TIP3   OH234034   5.854   2.169   5.077
11364TIP3    H134035   5.881   2.260   5.084
11364TIP3    H234036   5.922   2.128   5.024
11365TIP3   OH234037   6.606   0.814   2.961
11365TIP3    H134038   6.525   0.828   3.011
11365TIP3    H234039   6.576   0.776   2.878
11366TIP3   OH234040   6.885   3.114   6.704
11366TIP3    H134041   6.840   3.040   6.745
11366TIP3    H234042   6.857   3.111   6.613
11367TIP3   OH234043   5.682   7.545   1.389
11367TIP3    H134044   5.662   7.632   1.356
11367TIP3    H234045   5.751   7.559   1.453
11368TIP3   OH234046   2.137   4.578   1.671
11368TIP3    H134047   2.182   4.647   1.720
11368TIP3    H234048   2.204   4.512   1.654
11369TIP3   OH234049   0.342   2.956   5.168
11369TIP3    H134050   0.379   3.035   5.128
11369TIP3    H234051   0.253   2.981   5.192
11370TIP3   OH234052   0.689   2.480   0.186
11370TIP3    H134053   0.679   2.387   0.166
11370TIP3    H234054   0.783   2.491   0.201
11371TIP3   OH234055   3.329   0.042   0.896
11371TIP3    H134056   3.335  -0.036   0.952
11371TIP3    H234057   3.237   0.068   0.900
11372TIP3   OH234058   6.134   7.087   1.596
11372TIP3    H134059   6.056   7.030   1.591
11372TIP3    H234060   6.208   7.027   1.595
11373TIP3   OH234061   7.620   2.510   4.668
11373TIP3    H134062   7.666   2.564   4.604
11373TIP3    H234063   7.551   2.566   4.702
11374TIP3   OH234064   7.054   1.650   2.574
11374TIP3    H134065   7.037   1.613   2.661
11374TIP3    H234066   7.105   1.729   2.592
11375TIP3   OH234067   5.639   7.421   0.838
11375TIP3    H134068   5.678   7.349   0.888
11375TIP3    H234069   5.548   7.395   0.826
11376TIP3   OH234070   0.716   6.735   1.210
11376TIP3    H134071   0.693   6.719   1.119
11376TIP3    H234072   0.777   6.809   1.206
11377TIP3   OH234073  -0.004   7.256   3.432
11377TIP3    H134074   0.059   7.307   3.381
11377TIP3    H234075   0.046   7.226   3.508
11378TIP3   OH234076   6.583   2.148   2.062
11378TIP3    H134077   6.546   2.150   1.973
11378TIP3    H234078   6.677   2.156   2.049
11379TIP3   OH234079   0.052   7.161   0.617
11379TIP3    H134080   0.064   7.175   0.711
11379TIP3    H234081   0.006   7.078   0.611
11380TIP3   OH234082   5.114   3.532   0.986
11380TIP3    H134083   5.196   3.566   1.022
11380TIP3    H234084   5.049   3.599   1.007
11381TIP3   OH234085   5.904   3.342   2.770
11381TIP3    H134086   5.902   3.348   2.865
11381TIP3    H234087   5.874   3.254   2.749
11382TIP3   OH234088   5.877   5.459   3.400
11382TIP3    H134089   5.874   5.388   3.465
11382TIP3    H234090   5.967   5.459   3.368
11383TIP3   OH234091   4.461   4.662   5.111
11383TIP3    H134092   4.541   4.692   5.155
11383TIP3    H234093   4.414   4.742   5.089
11384TIP3   OH234094   0.897   2.946   6.149
11384TIP3    H134095   0.814   2.962   6.193
11384TIP3    H234096   0.902   2.850   6.141
11385TIP3   OH234097   0.528   7.422   5.058
11385TIP3    H134098   0.580   7.370   4.997
11385TIP3    H234099   0.477   7.480   5.002
11386TIP3   OH234100   6.944   1.233   1.423
11386TIP3    H134101   6.904   1.282   1.494
11386TIP3    H234102   6.918   1.280   1.343
11387TIP3   OH234103   1.268   3.163   5.885
11387TIP3    H134104   1.326   3.099   5.846
11387TIP3    H234105   1.219   3.199   5.811
11388TIP3   OH234106   5.397   0.225   4.206
11388TIP3    H134107   5.450   0.242   4.127
11388TIP3    H234108   5.324   0.172   4.174
11389TIP3   OH234109   3.116   0.182   3.132
11389TIP3    H134110   3.133   0.094   3.165
11389TIP3    H234111   3.201   0.216   3.107
11390TIP3   OH234112   7.331   5.955   4.715
11390TIP3    H134113   7.349   5.869   4.677
11390TIP3    H234114   7.348   5.944   4.808
11391TIP3   OH234115   3.401   6.779   4.868
11391TIP3    H134116   3.378   6.771   4.961
11391TIP3    H234117   3.484   6.826   4.868
11392TIP3   OH234118   7.548   3.909   1.563
11392TIP3    H134119   7.613   3.961   1.515
11392TIP3    H234120   7.575   3.914   1.655
11393TIP3   OH234121   1.204   6.447   3.369
11393TIP3    H134122   1.131   6.507   3.354
11393TIP3    H234123   1.244   6.435   3.283
11394TIP3   OH234124   5.296   5.041   6.253
11394TIP3    H134125   5.275   5.071   6.342
11394TIP3    H234126   5.329   4.952   6.265
11395TIP3   OH234127   4.619   1.460   4.518
11395TIP3    H134128   4.633   1.373   4.555
11395TIP3    H234129   4.524   1.471   4.517
11396TIP3   OH234130   3.271   0.546   2.114
11396TIP3    H134131   3.250   0.538   2.021
11396TIP3    H234132   3.229   0.628   2.141
11397TIP3   OH234133   3.123   7.146   4.960
11397TIP3    H134134   3.076   7.223   4.929
11397TIP3    H234135   3.124   7.086   4.885
11398TIP3   OH234136   0.090   2.404   6.465
11398TIP3    H134137   0.053   2.368   6.546
11398TIP3    H234138   0.154   2.469   6.495
11399TIP3   OH234139   4.224   4.682   2.002
11399TIP3    H134140   4.130   4.672   1.985
11399TIP3    H234141   4.264   4.602   1.968
11400TIP3   OH234142   2.099   5.376   4.125
11400TIP3    H134143   2.157   5.309   4.160
11400TIP3    H234144   2.079   5.432   4.200
11401TIP3   OH234145   1.250   6.191   1.896
11401TIP3    H134146   1.336   6.196   1.853
11401TIP3    H234147   1.269   6.165   1.986
11402TIP3   OH234148   7.720   3.612   3.747
11402TIP3    H134149   7.694   3.651   3.663
11402TIP3    H234150   7.672   3.529   3.750
11403TIP3   OH234151   2.610   7.302   6.607
11403TIP3    H134152   2.550   7.341   6.543
11403TIP3    H234153   2.578   7.333   6.691
11404TIP3   OH234154   3.522   6.894   3.907
11404TIP3    H134155   3.491   6.952   3.976
11404TIP3    H234156   3.574   6.827   3.952
11405TIP3   OH234157   1.802   1.851   2.539
11405TIP3    H134158   1.738   1.780   2.528
11405TIP3    H234159   1.758   1.913   2.597
11406TIP3   OH234160   6.816   5.936   3.157
11406TIP3    H134161   6.886   5.956   3.220
11406TIP3    H234162   6.810   6.015   3.103
11407TIP3   OH234163   2.025   6.084   6.531
11407TIP3    H134164   2.008   6.176   6.549
11407TIP3    H234165   2.032   6.079   6.436
11408TIP3   OH234166   5.517   3.666   0.072
11408TIP3    H134167   5.575   3.713   0.132
11408TIP3    H234168   5.576   3.609   0.021
11409TIP3   OH234169   4.972   7.358   2.436
11409TIP3    H134170   4.921   7.307   2.373
11409TIP3    H234171   5.059   7.366   2.396
11410TIP3   OH234172   4.978   6.116   5.573
11410TIP3    H134173   4.957   6.037   5.523
11410TIP3    H234174   5.012   6.177   5.507
11411TIP3   OH234175   1.713   7.533   5.565
11411TIP3    H134176   1.624   7.530   5.598
11411TIP3    H234177   1.762   7.581   5.632
11412TIP3   OH234178   2.526   4.359   1.138
11412TIP3    H134179   2.547   4.418   1.065
11412TIP3    H234180   2.480   4.415   1.201
11413TIP3   OH234181   4.723   2.284   2.282
11413TIP3    H134182   4.776   2.250   2.354
11413TIP3    H234183   4.767   2.366   2.256
11414TIP3   OH234184   2.094   4.709   4.577
11414TIP3    H134185   2.042   4.676   4.504
11414TIP3    H234186   2.184   4.684   4.555
11415TIP3   OH234187   4.485   4.497   6.476
11415TIP3    H134188   4.538   4.568   6.513
11415TIP3    H234189   4.475   4.435   6.548
11416TIP3   OH234190   4.809   4.580   1.528
11416TIP3    H134191   4.769   4.590   1.614
11416TIP3    H234192   4.737   4.548   1.472
11417TIP3   OH234193   2.923   6.392   1.396
11417TIP3    H134194   2.935   6.394   1.491
11417TIP3    H234195   2.897   6.482   1.374
11418TIP3   OH234196   6.909   0.354   3.427
11418TIP3    H134197   6.828   0.403   3.437
11418TIP3    H234198   6.942   0.342   3.516
11419TIP3   OH234199   8.189   0.060   1.987
11419TIP3    H134200   8.173   0.054   1.893
11419TIP3    H234201   8.250  -0.011   2.006
11420TIP3   OH234202   4.568   0.407   1.416
11420TIP3    H134203   4.653   0.383   1.453
11420TIP3    H234204   4.564   0.359   1.333
11421TIP3   OH234205   4.467   0.658   4.491
11421TIP3    H134206   4.460   0.610   4.409
11421TIP3    H234207   4.490   0.592   4.556
11422TIP3   OH234208   1.605   1.680   4.229
11422TIP3    H134209   1.651   1.761   4.207
11422TIP3    H234210   1.672   1.622   4.264
11423TIP3   OH234211   2.305   5.042   0.121
11423TIP3    H134212   2.364   5.058   0.194
11423TIP3    H234213   2.356   5.067   0.043
11424TIP3   OH234214   2.548   2.417   5.173
11424TIP3    H134215   2.504   2.477   5.112
11424TIP3    H234216   2.540   2.331   5.132
11425TIP3   OH234217   6.446   7.800   0.197
11425TIP3    H134218   6.414   7.806   0.107
11425TIP3    H234219   6.380   7.846   0.249
11426TIP3   OH234220   7.874   6.709   5.967
11426TIP3    H134221   7.933   6.651   6.015
11426TIP3    H234222   7.808   6.735   6.031
11427TIP3   OH234223   4.050   5.539   3.848
11427TIP3    H134224   4.034   5.572   3.759
11427TIP3    H234225   4.139   5.566   3.868
11428TIP3   OH234226   6.483   2.326   2.416
11428TIP3    H134227   6.553   2.267   2.387
11428TIP3    H234228   6.475   2.390   2.346
11429TIP3   OH234229   6.360   4.902   4.630
11429TIP3    H134230   6.318   4.988   4.630
11429TIP3    H234231   6.291   4.841   4.604
11430TIP3   OH234232   5.857   7.458   3.785
11430TIP3    H134233   5.841   7.400   3.859
11430TIP3    H234234   5.952   7.466   3.782
11431TIP3   OH234235   1.555   5.314   4.962
11431TIP3    H134236   1.616   5.362   5.017
11431TIP3    H234237   1.570   5.347   4.874
11432TIP3   OH234238   4.790   4.969   2.504
11432TIP3    H134239   4.785   5.033   2.433
11432TIP3    H234240   4.879   4.977   2.538
11433TIP3   OH234241   2.977   6.719   0.191
11433TIP3    H134242   3.009   6.798   0.234
11433TIP3    H234243   2.896   6.696   0.238
11434TIP3   OH234244   3.528   2.457   0.103
11434TIP3    H134245   3.581   2.380   0.081
11434TIP3    H234246   3.438   2.426   0.101
11435TIP3   OH234247   2.874   3.683   6.335
11435TIP3    H134248   2.820   3.638   6.270
11435TIP3    H234249   2.839   3.654   6.419
11436TIP3   OH234250   5.625   5.489   2.361
11436TIP3    H134251   5.655   5.492   2.270
11436TIP3    H234252   5.689   5.540   2.409
11437TIP3   OH234253   1.205   4.090   0.942
11437TIP3    H134254   1.264   4.159   0.974
11437TIP3    H234255   1.264   4.023   0.906
11438TIP3   OH234256   1.042   0.122   6.204
11438TIP3    H134257   1.018   0.058   6.137
11438TIP3    H234258   1.136   0.135   6.192
11439TIP3   OH234259   5.421   2.478   6.486
11439TIP3    H134260   5.410   2.504   6.395
11439TIP3    H234261   5.343   2.424   6.505
11440TIP3   OH234262   7.257   0.255   3.191
11440TIP3    H134263   7.347   0.269   3.219
11440TIP3    H234264   7.225   0.185   3.247
11441TIP3   OH234265   3.521   0.293   3.333
11441TIP3    H134266   3.487   0.315   3.246
11441TIP3    H234267   3.456   0.328   3.393
11442TIP3   OH234268   4.612   4.474   1.346
11442TIP3    H134269   4.536   4.511   1.301
11442TIP3    H234270   4.665   4.437   1.276
11443TIP3   OH234271   7.112   2.362   5.859
11443TIP3    H134272   7.107   2.455   5.880
11443TIP3    H234273   7.129   2.319   5.943
11444TIP3   OH234274   0.082   0.474   6.503
11444TIP3    H134275   0.164   0.507   6.468
11444TIP3    H234276   0.015   0.531   6.464
11445TIP3   OH234277   5.530   1.020   5.142
11445TIP3    H134278   5.478   1.093   5.176
11445TIP3    H234279   5.570   1.055   5.062
11446TIP3   OH234280   1.391   5.318   3.845
11446TIP3    H134281   1.437   5.402   3.849
11446TIP3    H234282   1.400   5.282   3.934
11447TIP3   OH234283   6.338   0.773   1.050
11447TIP3    H134284   6.309   0.682   1.042
11447TIP3    H234285   6.316   0.813   0.967
11448TIP3   OH234286   0.348   2.207   0.934
11448TIP3    H134287   0.355   2.298   0.963
11448TIP3    H234288   0.422   2.195   0.875
11449TIP3   OH234289   3.355   7.141   1.725
11449TIP3    H134290   3.297   7.217   1.721
11449TIP3    H234291   3.313   7.082   1.787
11450TIP3   OH234292   1.862   1.119   6.493
11450TIP3    H134293   1.879   1.133   6.400
11450TIP3    H234294   1.795   1.183   6.515
11451TIP3   OH234295   0.325   5.716   1.570
11451TIP3    H134296   0.327   5.806   1.536
11451TIP3    H234297   0.418   5.690   1.573
11452TIP3   OH234298   7.200   7.150   0.000
11452TIP3    H134299   7.265   7.220   0.013
11452TIP3    H234300   7.120   7.197  -0.023
11453TIP3   OH234301   5.286   4.919   6.617
11453TIP3    H134302   5.223   4.882   6.556
11453TIP3    H234303   5.232   4.954   6.688
11454TIP3   OH234304   6.465   7.546   1.559
11454TIP3    H134305   6.503   7.623   1.602
11454TIP3    H234306   6.479   7.475   1.621
11455TIP3   OH234307   3.236   3.900   2.734
11455TIP3    H134308   3.262   3.893   2.642
11455TIP3    H234309   3.150   3.859   2.738
11456TIP3   OH234310   2.763   7.351   5.159
11456TIP3    H134311   2.853   7.383   5.168
11456TIP3    H234312   2.757   7.322   5.068
11457TIP3   OH234313   1.776   3.531   5.913
11457TIP3    H134314   1.868   3.556   5.922
11457TIP3    H234315   1.727   3.609   5.939
11458TIP3   OH234316   1.508   6.960   3.785
11458TIP3    H134317   1.517   6.877   3.738
11458TIP3    H234318   1.452   6.940   3.859
11459TIP3   OH234319   6.498   2.967   1.738
11459TIP3    H134320   6.530   2.923   1.817
11459TIP3    H234321   6.403   2.951   1.739
11460TIP3   OH234322   2.163   7.209   2.186
11460TIP3    H134323   2.210   7.150   2.246
11460TIP3    H234324   2.103   7.152   2.138
11461TIP3   OH234325   3.723   6.111   2.124
11461TIP3    H134326   3.630   6.126   2.136
11461TIP3    H234327   3.735   6.103   2.029
11462TIP3   OH234328   5.862   2.888   5.368
11462TIP3    H134329   5.926   2.819   5.349
11462TIP3    H234330   5.848   2.932   5.284
11463TIP3   OH234331   4.390   2.179   0.286
11463TIP3    H134332   4.316   2.213   0.235
11463TIP3    H234333   4.438   2.124   0.225
11464TIP3   OH234334   1.458   4.949   1.813
11464TIP3    H134335   1.474   4.919   1.903
11464TIP3    H234336   1.389   5.014   1.821
11465TIP3   OH234337   1.375   6.673   4.190
11465TIP3    H134338   1.332   6.588   4.180
11465TIP3    H234339   1.449   6.670   4.128
11466TIP3   OH234340   8.112   3.212   5.850
11466TIP3    H134341   8.189   3.236   5.901
11466TIP3    H234342   8.137   3.132   5.805
11467TIP3   OH234343   6.921   1.809   4.797
11467TIP3    H134344   6.937   1.755   4.720
11467TIP3    H234345   6.950   1.896   4.772
11468TIP3   OH234346   6.950   2.265   1.907
11468TIP3    H134347   6.886   2.200   1.881
11468TIP3    H234348   6.898   2.341   1.935
11469TIP3   OH234349   3.540   3.935   1.149
11469TIP3    H134350   3.487   3.886   1.086
11469TIP3    H234351   3.487   4.012   1.170
11470TIP3   OH234352   6.383   4.131   4.505
11470TIP3    H134353   6.339   4.198   4.557
11470TIP3    H234354   6.373   4.161   4.414
11471TIP3   OH234355   2.394   0.350   1.251
11471TIP3    H134356   2.423   0.265   1.216
11471TIP3    H234357   2.367   0.400   1.174
11472TIP3   OH234358   6.661   1.325   0.362
11472TIP3    H134359   6.705   1.269   0.298
11472TIP3    H234360   6.694   1.413   0.344
11473TIP3   OH234361   1.133   3.691   0.376
11473TIP3    H134362   1.087   3.655   0.452
11473TIP3    H234363   1.170   3.615   0.331
11474TIP3   OH234364   7.958   0.138   4.761
11474TIP3    H134365   8.039   0.184   4.738
11474TIP3    H234366   7.894   0.208   4.778
11475TIP3   OH234367   4.822   7.302   4.926
11475TIP3    H134368   4.782   7.347   4.852
11475TIP3    H234369   4.910   7.338   4.932
11476TIP3   OH234370   7.695   2.034   0.515
11476TIP3    H134371   7.607   1.995   0.513
11476TIP3    H234372   7.744   1.983   0.451
11477TIP3   OH234373   0.526   3.957   6.364
11477TIP3    H134374   0.588   3.993   6.428
11477TIP3    H234375   0.440   3.982   6.397
11478TIP3   OH234376   6.770   5.078   0.936
11478TIP3    H134377   6.844   5.028   0.971
11478TIP3    H234378   6.724   5.110   1.014
11479TIP3   OH234379   0.952   2.640   1.000
11479TIP3    H134380   1.027   2.698   1.005
11479TIP3    H234381   0.989   2.552   1.008
11480TIP3   OH234382   2.982   3.628   4.957
11480TIP3    H134383   2.961   3.627   5.050
11480TIP3    H234384   2.951   3.713   4.926
11481TIP3   OH234385   3.670   1.616   3.218
11481TIP3    H134386   3.683   1.597   3.311
11481TIP3    H234387   3.576   1.634   3.210
11482TIP3   OH234388   4.323   3.509   2.436
11482TIP3    H134389   4.390   3.462   2.485
11482TIP3    H234390   4.299   3.450   2.364
11483TIP3   OH234391   7.658   2.478   0.332
11483TIP3    H134392   7.588   2.515   0.279
11483TIP3    H234393   7.677   2.545   0.398
11484TIP3   OH234394   5.344   6.264   1.525
11484TIP3    H134395   5.350   6.350   1.483
11484TIP3    H234396   5.281   6.277   1.596
11485TIP3   OH234397   4.834   2.954   2.868
11485TIP3    H134398   4.893   3.002   2.810
11485TIP3    H234399   4.746   2.986   2.845
11486TIP3   OH234400   5.073   7.733   0.074
11486TIP3    H134401   5.025   7.815   0.061
11486TIP3    H234402   5.036   7.673   0.009
11487TIP3   OH234403   3.437   4.514   4.232
11487TIP3    H134404   3.425   4.568   4.310
11487TIP3    H234405   3.529   4.487   4.235
11488TIP3   OH234406   4.559   6.560   5.007
11488TIP3    H134407   4.558   6.640   4.955
11488TIP3    H234408   4.475   6.519   4.990
11489TIP3   OH234409   5.428   5.722   5.657
11489TIP3    H134410   5.496   5.780   5.691
11489TIP3    H234411   5.467   5.681   5.580
11490TIP3   OH234412   7.744   3.258   5.936
11490TIP3    H134413   7.681   3.246   6.007
11490TIP3    H234414   7.726   3.347   5.903
11491TIP3   OH234415   7.605   1.324   3.943
11491TIP3    H134416   7.547   1.286   3.877
11491TIP3    H234417   7.693   1.311   3.909
11492TIP3   OH234418   2.460   4.101   6.618
11492TIP3    H134419   2.453   4.153   6.538
11492TIP3    H234420   2.455   4.164   6.689
11493TIP3   OH234421   1.651  -0.007   5.468
11493TIP3    H134422   1.631   0.033   5.384
11493TIP3    H234423   1.615   0.053   5.534
11494TIP3   OH234424   8.180   0.987   4.336
11494TIP3    H134425   8.206   0.995   4.244
11494TIP3    H234426   8.222   0.907   4.365
11495TIP3   OH234427   1.091   7.326   4.878
11495TIP3    H134428   1.149   7.337   4.953
11495TIP3    H234429   1.036   7.405   4.878
11496TIP3   OH234430   0.426   2.243   3.472
11496TIP3    H134431   0.395   2.333   3.481
11496TIP3    H234432   0.369   2.192   3.529
11497TIP3   OH234433   6.861   5.266   5.096
11497TIP3    H134434   6.823   5.304   5.016
11497TIP3    H234435   6.939   5.221   5.066
11498TIP3   OH234436   5.345   5.936   0.361
11498TIP3    H134437   5.252   5.948   0.379
11498TIP3    H234438   5.389   5.981   0.433
11499TIP3   OH234439   2.384   7.491   2.341
11499TIP3    H134440   2.312   7.553   2.331
11499TIP3    H234441   2.364   7.445   2.422
11500TIP3   OH234442   7.339   2.207   5.823
11500TIP3    H134443   7.321   2.288   5.872
11500TIP3    H234444   7.316   2.229   5.732
11501TIP3   OH234445   3.318   6.860   0.132
11501TIP3    H134446   3.349   6.783   0.180
11501TIP3    H234447   3.258   6.826   0.066
11502TIP3   OH234448   7.934   1.624   6.260
11502TIP3    H134449   7.885   1.704   6.272
11502TIP3    H234450   7.869   1.559   6.234
11503TIP3   OH234451   0.287   3.942   0.426
11503TIP3    H134452   0.345   4.009   0.388
11503TIP3    H234453   0.339   3.862   0.427
11504TIP3   OH234454   4.363   1.573   5.717
11504TIP3    H134455   4.425   1.535   5.655
11504TIP3    H234456   4.412   1.577   5.799
11505TIP3   OH234457   2.114   1.389   3.691
11505TIP3    H134458   2.080   1.476   3.708
11505TIP3    H234459   2.132   1.388   3.597
11506TIP3   OH234460   2.100   2.615   6.346
11506TIP3    H134461   2.148   2.697   6.342
11506TIP3    H234462   2.011   2.641   6.370
11507TIP3   OH234463   2.933   3.004   1.138
11507TIP3    H134464   3.006   2.943   1.125
11507TIP3    H234465   2.948   3.042   1.224
11508TIP3   OH234466   3.862   0.376   0.214
11508TIP3    H134467   3.818   0.385   0.299
11508TIP3    H234468   3.807   0.425   0.153
11509TIP3   OH234469   2.023   1.930   4.003
11509TIP3    H134470   2.096   1.892   3.955
11509TIP3    H234471   1.975   1.855   4.038
11510TIP3   OH234472   4.169   6.402   3.091
11510TIP3    H134473   4.211   6.322   3.060
11510TIP3    H234474   4.125   6.437   3.014
11511TIP3   OH234475   1.356   0.264   6.404
11511TIP3    H134476   1.443   0.290   6.433
11511TIP3    H234477   1.302   0.341   6.419
11512TIP3   OH234478   7.206   3.642   3.118
11512TIP3    H134479   7.261   3.589   3.175
11512TIP3    H234480   7.120   3.641   3.160
11513TIP3   OH234481   2.536   6.324   4.585
11513TIP3    H134482   2.628   6.334   4.607
11513TIP3    H234483   2.524   6.230   4.572
11514TIP3   OH234484   4.814   4.605   3.640
11514TIP3    H134485   4.754   4.668   3.600
11514TIP3    H234486   4.806   4.620   3.734
11515TIP3   OH234487   3.254   1.906   4.218
11515TIP3    H134488   3.336   1.860   4.237
11515TIP3    H234489   3.268   1.946   4.133
11516TIP3   OH234490   7.231   2.326   3.886
11516TIP3    H134491   7.308   2.317   3.942
11516TIP3    H234492   7.265   2.353   3.801
11517TIP3   OH234493   5.627   7.642   6.626
11517TIP3    H134494   5.573   7.603   6.558
11517TIP3    H234495   5.693   7.576   6.647
11518TIP3   OH234496   2.911   0.096   0.575
11518TIP3    H134497   2.896   0.032   0.506
11518TIP3    H234498   2.842   0.079   0.639
11519TIP3   OH234499   5.930   5.809   0.157
11519TIP3    H134500   5.956   5.884   0.210
11519TIP3    H234501   5.978   5.735   0.195
11520TIP3   OH234502   0.005   2.019   2.804
11520TIP3    H134503  -0.031   2.098   2.843
11520TIP3    H234504   0.015   2.040   2.711
11521TIP3   OH234505   1.393   0.076   1.381
11521TIP3    H134506   1.430   0.157   1.416
11521TIP3    H234507   1.444   0.058   1.302
11522TIP3   OH234508   6.893   0.427   6.122
11522TIP3    H134509   6.843   0.424   6.040
11522TIP3    H234510   6.840   0.482   6.180
11523TIP3   OH234511   1.486   0.587   4.096
11523TIP3    H134512   1.401   0.629   4.113
11523TIP3    H234513   1.468   0.494   4.103
11524TIP3   OH234514   8.097   7.043   6.363
11524TIP3    H134515   8.190   7.045   6.341
11524TIP3    H234516   8.053   7.071   6.282
11525TIP3   OH234517   3.710   1.135   5.967
11525TIP3    H134518   3.786   1.110   5.915
11525TIP3    H234519   3.636   1.126   5.907
11526TIP3   OH234520   3.678   5.215   2.040
11526TIP3    H134521   3.605   5.263   2.080
11526TIP3    H234522   3.752   5.233   2.097
11527TIP3   OH234523   4.009   4.293   1.599
11527TIP3    H134524   4.037   4.334   1.517
11527TIP3    H234525   3.988   4.367   1.656
11528TIP3   OH234526   1.008   5.378   6.139
11528TIP3    H134527   0.989   5.359   6.047
11528TIP3    H234528   1.065   5.307   6.167
11529TIP3   OH234529   7.838   2.855   5.228
11529TIP3    H134530   7.758   2.875   5.277
11529TIP3    H234531   7.809   2.843   5.138
11530TIP3   OH234532   4.591   4.781   2.540
11530TIP3    H134533   4.614   4.752   2.629
11530TIP3    H234534   4.656   4.848   2.519
11531TIP3   OH234535   6.749   2.610   6.655
11531TIP3    H134536   6.714   2.620   6.567
11531TIP3    H234537   6.672   2.613   6.712
11532TIP3   OH234538   1.345   6.839   0.590
11532TIP3    H134539   1.316   6.768   0.533
11532TIP3    H234540   1.356   6.914   0.532
11533TIP3   OH234541   2.443   5.596   3.695
11533TIP3    H134542   2.462   5.616   3.603
11533TIP3    H234543   2.448   5.680   3.740
11534TIP3   OH234544   5.345   2.264   5.908
11534TIP3    H134545   5.398   2.343   5.921
11534TIP3    H234546   5.400   2.206   5.855
11535TIP3   OH234547   7.666   5.538   0.888
11535TIP3    H134548   7.745   5.587   0.913
11535TIP3    H234549   7.656   5.472   0.956
11536TIP3   OH234550   3.615   3.947   3.276
11536TIP3    H134551   3.695   3.901   3.248
11536TIP3    H234552   3.545   3.904   3.228
11537TIP3   OH234553   7.943   4.211   3.357
11537TIP3    H134554   7.995   4.133   3.339
11537TIP3    H234555   8.005   4.274   3.394
11538TIP3   OH234556   5.634   5.239   6.434
11538TIP3    H134557   5.724   5.262   6.457
11538TIP3    H234558   5.590   5.324   6.426
11539TIP3   OH234559   4.833   6.930   3.103
11539TIP3    H134560   4.788   6.878   3.036
11539TIP3    H234561   4.908   6.969   3.057
11540TIP3   OH234562   0.717   1.879   5.609
11540TIP3    H134563   0.811   1.888   5.618
11540TIP3    H234564   0.681   1.922   5.687
11541TIP3   OH234565   1.993   6.176   6.262
11541TIP3    H134566   2.067   6.199   6.207
11541TIP3    H234567   1.951   6.259   6.283
11542TIP3   OH234568   3.894   7.018   2.830
11542TIP3    H134569   3.953   7.012   2.906
11542TIP3    H234570   3.905   7.107   2.798
11543TIP3   OH234571   2.679   1.231   4.561
11543TIP3    H134572   2.676   1.181   4.479
11543TIP3    H234573   2.596   1.279   4.562
11544TIP3   OH234574   7.212   2.212   2.318
11544TIP3    H134575   7.303   2.240   2.320
11544TIP3    H234576   7.187   2.220   2.225
11545TIP3   OH234577   1.643   1.728   2.018
11545TIP3    H134578   1.629   1.634   2.007
11545TIP3    H234579   1.732   1.734   2.055
11546TIP3   OH234580   6.429   4.527   0.899
11546TIP3    H134581   6.451   4.614   0.865
11546TIP3    H234582   6.506   4.473   0.877
11547TIP3   OH234583   1.175   0.651   1.557
11547TIP3    H134584   1.126   0.710   1.616
11547TIP3    H234585   1.172   0.695   1.472
11548TIP3   OH234586   3.187   6.052   0.639
11548TIP3    H134587   3.282   6.045   0.649
11548TIP3    H234588   3.173   6.046   0.545
11549TIP3   OH234589   0.132   1.851   5.684
11549TIP3    H134590   0.119   1.856   5.589
11549TIP3    H234591   0.159   1.939   5.710
11550TIP3   OH234592   0.151   3.096   5.905
11550TIP3    H134593   0.090   3.022   5.904
11550TIP3    H234594   0.109   3.161   5.963
11551TIP3   OH234595   7.173   4.369   1.462
11551TIP3    H134596   7.148   4.392   1.551
11551TIP3    H234597   7.269   4.372   1.462
11552TIP3   OH234598   2.411   4.549   3.089
11552TIP3    H134599   2.410   4.562   2.994
11552TIP3    H234600   2.398   4.636   3.126
11553TIP3   OH234601   5.920   3.529   2.001
11553TIP3    H134602   5.864   3.470   1.950
11553TIP3    H234603   5.899   3.509   2.092
11554TIP3   OH234604   3.057   3.990   2.022
11554TIP3    H134605   3.043   3.993   1.927
11554TIP3    H234606   3.071   3.897   2.041
11555TIP3   OH234607   5.259   3.086   4.346
11555TIP3    H134608   5.253   3.176   4.379
11555TIP3    H234609   5.194   3.037   4.396
11556TIP3   OH234610   3.344   4.507   3.946
11556TIP3    H134611   3.349   4.429   4.000
11556TIP3    H234612   3.397   4.572   3.992
11557TIP3   OH234613   5.654   5.952   3.925
11557TIP3    H134614   5.731   5.977   3.977
11557TIP3    H234615   5.651   6.018   3.855
11558TIP3   OH234616   7.191   2.173   0.435
11558TIP3    H134617   7.270   2.126   0.461
11558TIP3    H234618   7.144   2.111   0.378
11559TIP3   OH234619   0.524   6.671   6.407
11559TIP3    H134620   0.572   6.741   6.364
11559TIP3    H234621   0.449   6.715   6.448
11560TIP3   OH234622   7.229   1.766   6.251
11560TIP3    H134623   7.139   1.797   6.254
11560TIP3    H234624   7.222   1.671   6.254
11561TIP3   OH234625   2.227   1.717   1.838
11561TIP3    H134626   2.309   1.758   1.866
11561TIP3    H234627   2.169   1.727   1.913
11562TIP3   OH234628   0.794   3.240   0.509
11562TIP3    H134629   0.770   3.159   0.464
11562TIP3    H234630   0.859   3.281   0.452
11563TIP3   OH234631   7.262   7.753   6.243
11563TIP3    H134632   7.267   7.662   6.273
11563TIP3    H234633   7.186   7.789   6.289
11564TIP3   OH234634   2.445   1.253   1.269
11564TIP3    H134635   2.517   1.201   1.304
11564TIP3    H234636   2.382   1.257   1.340
11565TIP3   OH234637   7.505   7.314   4.951
11565TIP3    H134638   7.485   7.222   4.969
11565TIP3    H234639   7.529   7.350   5.036
11566TIP3   OH234640   6.728   2.142   2.654
11566TIP3    H134641   6.711   2.114   2.564
11566TIP3    H234642   6.646   2.128   2.700
11567TIP3   OH234643   2.768   3.596   3.377
11567TIP3    H134644   2.709   3.639   3.440
11567TIP3    H234645   2.790   3.513   3.418
11568TIP3   OH234646   2.288   4.688   5.270
11568TIP3    H134647   2.221   4.686   5.201
11568TIP3    H234648   2.238   4.684   5.351
11569TIP3   OH234649   8.126   0.647   6.143
11569TIP3    H134650   8.052   0.587   6.139
11569TIP3    H234651   8.194   0.604   6.092
11570TIP3   OH234652   7.173   4.075   0.376
11570TIP3    H134653   7.151   4.133   0.449
11570TIP3    H234654   7.141   4.121   0.298
11571TIP3   OH234655   0.194   5.496   3.775
11571TIP3    H134656   0.170   5.417   3.726
11571TIP3    H234657   0.276   5.524   3.736
11572TIP3   OH234658   2.170   2.955   1.562
11572TIP3    H134659   2.216   2.893   1.618
11572TIP3    H234660   2.189   3.040   1.600
11573TIP3   OH234661   1.992   1.220   4.610
11573TIP3    H134662   2.045   1.167   4.550
11573TIP3    H234663   1.948   1.157   4.666
11574TIP3   OH234664   2.871   4.324   0.067
11574TIP3    H134665   2.933   4.263   0.028
11574TIP3    H234666   2.874   4.305   0.161
11575TIP3   OH234667   5.590   3.654   2.402
11575TIP3    H134668   5.643   3.590   2.449
11575TIP3    H234669   5.543   3.702   2.470
11576TIP3   OH234670   0.006   3.310   0.287
11576TIP3    H134671  -0.007   3.233   0.341
11576TIP3    H234672  -0.014   3.281   0.198
11577TIP3   OH234673   4.566   2.628   3.475
11577TIP3    H134674   4.494   2.567   3.462
11577TIP3    H234675   4.645   2.575   3.460
11578TIP3   OH234676   6.568   2.484   5.040
11578TIP3    H134677   6.508   2.550   5.075
11578TIP3    H234678   6.533   2.463   4.953
11579TIP3   OH234679   7.136   3.503   2.088
11579TIP3    H134680   7.065   3.441   2.105
11579TIP3    H234681   7.210   3.449   2.062
11580TIP3   OH234682   2.837   7.777   5.787
11580TIP3    H134683   2.841   7.851   5.848
11580TIP3    H234684   2.747   7.779   5.754
11581TIP3   OH234685   2.090   7.626   2.821
11581TIP3    H134686   2.090   7.692   2.890
11581TIP3    H234687   2.169   7.643   2.771
11582TIP3   OH234688   5.279   6.826   2.993
11582TIP3    H134689   5.250   6.874   2.915
11582TIP3    H234690   5.361   6.786   2.966
11583TIP3   OH234691   8.143   4.112   0.748
11583TIP3    H134692   8.186   4.072   0.673
11583TIP3    H234693   8.050   4.094   0.736
11584TIP3   OH234694   5.841   2.425   2.934
11584TIP3    H134695   5.886   2.429   2.849
11584TIP3    H234696   5.749   2.442   2.913
11585TIP3   OH234697   8.212   4.792   2.673
11585TIP3    H134698   8.229   4.856   2.604
11585TIP3    H234699   8.214   4.843   2.754
11586TIP3   OH234700   7.167   5.768   0.834
11586TIP3    H134701   7.099   5.711   0.869
11586TIP3    H234702   7.140   5.786   0.744
11587TIP3   OH234703   7.715   5.504   4.662
11587TIP3    H134704   7.640   5.447   4.650
11587TIP3    H234705   7.788   5.457   4.620
11588TIP3   OH234706   2.812   7.041   6.160
11588TIP3    H134707   2.729   7.067   6.200
11588TIP3    H234708   2.851   6.980   6.224
11589TIP3   OH234709   7.444   7.455   4.731
11589TIP3    H134710   7.466   7.426   4.819
11589TIP3    H234711   7.433   7.373   4.681
11590TIP3   OH234712   5.988   4.231   5.467
11590TIP3    H134713   6.053   4.289   5.428
11590TIP3    H234714   5.906   4.254   5.424
11591TIP3   OH234715   4.800   3.459   5.145
11591TIP3    H134716   4.771   3.377   5.185
11591TIP3    H234717   4.739   3.525   5.179
11592TIP3   OH234718   2.168   5.276   2.537
11592TIP3    H134719   2.188   5.202   2.480
11592TIP3    H234720   2.079   5.302   2.513
11593TIP3   OH234721   7.551   3.092   1.184
11593TIP3    H134722   7.583   3.005   1.161
11593TIP3    H234723   7.492   3.116   1.113
11594TIP3   OH234724   3.912   3.451   3.717
11594TIP3    H134725   3.868   3.373   3.750
11594TIP3    H234726   3.990   3.460   3.772
11595TIP3   OH234727   4.587   3.299   4.422
11595TIP3    H134728   4.506   3.287   4.471
11595TIP3    H234729   4.656   3.265   4.479
11596TIP3   OH234730   7.435   4.460   0.303
11596TIP3    H134731   7.512   4.446   0.248
11596TIP3    H234732   7.415   4.553   0.293
11597TIP3   OH234733   1.536   4.915   2.802
11597TIP3    H134734   1.548   4.827   2.836
11597TIP3    H234735   1.462   4.951   2.852
11598TIP3   OH234736   1.679   4.619   4.407
11598TIP3    H134737   1.745   4.688   4.409
11598TIP3    H234738   1.605   4.657   4.360
11599TIP3   OH234739   1.736   7.039   4.344
11599TIP3    H134740   1.643   7.022   4.334
11599TIP3    H234741   1.769   6.964   4.394
11600TIP3   OH234742   7.359   4.705   5.439
11600TIP3    H134743   7.427   4.641   5.461
11600TIP3    H234744   7.388   4.744   5.356
11601TIP3   OH234745   6.568   7.013   2.193
11601TIP3    H134746   6.515   7.019   2.273
11601TIP3    H234747   6.549   6.926   2.158
11602TIP3   OH234748   5.357   2.216   4.299
11602TIP3    H134749   5.306   2.146   4.259
11602TIP3    H234750   5.434   2.225   4.243
11603TIP3   OH234751   2.849   7.134   6.749
11603TIP3    H134752   2.784   7.077   6.792
11603TIP3    H234753   2.824   7.133   6.657
11604TIP3   OH234754   4.559   1.338   6.078
11604TIP3    H134755   4.601   1.400   6.137
11604TIP3    H234756   4.631   1.284   6.044
11605TIP3   OH234757   6.787   4.701   0.719
11605TIP3    H134758   6.795   4.616   0.675
11605TIP3    H234759   6.871   4.713   0.764
11606TIP3   OH234760   4.188   6.865   3.357
11606TIP3    H134761   4.188   6.833   3.447
11606TIP3    H234762   4.135   6.802   3.309
11607TIP3   OH234763   6.447   3.875   6.137
11607TIP3    H134764   6.510   3.875   6.209
11607TIP3    H234765   6.467   3.955   6.088
11608TIP3   OH234766   2.809   0.611   5.242
11608TIP3    H134767   2.867   0.535   5.250
11608TIP3    H234768   2.788   0.635   5.332
11609TIP3   OH234769   6.386   2.062   4.476
11609TIP3    H134770   6.423   2.080   4.563
11609TIP3    H234771   6.409   1.971   4.459
11610TIP3   OH234772   7.545   7.658   3.420
11610TIP3    H134773   7.471   7.690   3.370
11610TIP3    H234774   7.543   7.563   3.409
11611TIP3   OH234775   4.665   0.303   3.199
11611TIP3    H134776   4.686   0.362   3.127
11611TIP3    H234777   4.573   0.320   3.219
11612TIP3   OH234778   4.524   1.679   0.406
11612TIP3    H134779   4.562   1.736   0.474
11612TIP3    H234780   4.597   1.624   0.379
11613TIP3   OH234781   6.437   7.329   5.612
11613TIP3    H134782   6.499   7.399   5.590
11613TIP3    H234783   6.483   7.248   5.589
11614TIP3   OH234784   6.233   5.697   0.552
11614TIP3    H134785   6.137   5.692   0.553
11614TIP3    H234786   6.253   5.784   0.586
11615TIP3   OH234787   3.796   5.438   0.829
11615TIP3    H134788   3.711   5.470   0.858
11615TIP3    H234789   3.811   5.359   0.881
11616TIP3   OH234790   6.832   0.528   5.259
11616TIP3    H134791   6.816   0.588   5.332
11616TIP3    H234792   6.905   0.473   5.290
11617TIP3   OH234793   1.805   3.513   5.597
11617TIP3    H134794   1.817   3.602   5.563
11617TIP3    H234795   1.752   3.525   5.676
11618TIP3   OH234796   0.083   7.077   2.952
11618TIP3    H134797   0.122   7.028   2.880
11618TIP3    H234798   0.158   7.113   3.000
11619TIP3   OH234799   6.859   2.483   5.706
11619TIP3    H134800   6.939   2.520   5.669
11619TIP3    H234801   6.868   2.498   5.801
11620TIP3   OH234802   8.110   0.569   1.545
11620TIP3    H134803   8.143   0.484   1.515
11620TIP3    H234804   8.062   0.604   1.470
11621TIP3   OH234805   7.385   2.242   5.545
11621TIP3    H134806   7.415   2.251   5.455
11621TIP3    H234807   7.444   2.178   5.584
11622TIP3   OH234808   5.938   4.571   5.234
11622TIP3    H134809   5.983   4.616   5.306
11622TIP3    H234810   5.999   4.576   5.161
11623TIP3   OH234811   8.040   5.511   4.047
11623TIP3    H134812   8.083   5.454   3.984
11623TIP3    H234813   7.961   5.463   4.073
11624TIP3   OH234814   6.483   6.138   6.179
11624TIP3    H134815   6.548   6.188   6.130
11624TIP3    H234816   6.534   6.089   6.244
11625TIP3   OH234817   2.270   6.597   3.909
11625TIP3    H134818   2.329   6.666   3.878
11625TIP3    H234819   2.316   6.515   3.890
11626TIP3   OH234820   4.938   2.142   6.109
11626TIP3    H134821   4.849   2.147   6.072
11626TIP3    H234822   4.961   2.232   6.128
11627TIP3   OH234823   6.539   1.246   3.038
11627TIP3    H134824   6.586   1.164   3.022
11627TIP3    H234825   6.563   1.270   3.128
11628TIP3   OH234826   4.630   5.963   6.511
11628TIP3    H134827   4.613   5.882   6.463
11628TIP3    H234828   4.619   5.939   6.603
11629TIP3   OH234829   4.464   2.985   2.605
11629TIP3    H134830   4.521   2.971   2.529
11629TIP3    H234831   4.377   2.959   2.575
11630TIP3   OH234832   3.030   6.278   4.585
11630TIP3    H134833   3.009   6.202   4.531
11630TIP3    H234834   3.118   6.260   4.618
11631TIP3   OH234835   0.384   3.866   4.537
11631TIP3    H134836   0.443   3.799   4.502
11631TIP3    H234837   0.366   3.837   4.626
11632TIP3   OH234838   0.131   3.328   2.690
11632TIP3    H134839   0.096   3.245   2.721
11632TIP3    H234840   0.226   3.314   2.687
11633TIP3   OH234841   4.581   0.139   2.481
11633TIP3    H134842   4.546   0.157   2.568
11633TIP3    H234843   4.622   0.053   2.488
11634TIP3   OH234844   6.962   3.161   1.958
11634TIP3    H134845   6.976   3.087   2.017
11634TIP3    H234846   6.941   3.234   2.016
11635TIP3   OH234847   2.432   4.017   3.538
11635TIP3    H134848   2.417   4.109   3.517
11635TIP3    H234849   2.417   4.011   3.633
11636TIP3   OH234850   0.851   2.649   4.722
11636TIP3    H134851   0.858   2.743   4.737
11636TIP3    H234852   0.777   2.621   4.777
11637TIP3   OH234853   5.879   2.527   6.013
11637TIP3    H134854   5.885   2.593   5.944
11637TIP3    H234855   5.896   2.444   5.969
11638TIP3   OH234856   3.403   4.020   0.610
11638TIP3    H134857   3.357   3.941   0.581
11638TIP3    H234858   3.484   4.021   0.559
11639TIP3   OH234859   7.327   0.649   5.213
11639TIP3    H134860   7.285   0.709   5.152
11639TIP3    H234861   7.265   0.641   5.285
11640TIP3   OH234862   7.420   3.452   0.579
11640TIP3    H134863   7.383   3.447   0.667
11640TIP3    H234864   7.385   3.533   0.543
11641TIP3   OH234865   0.657   5.008   6.225
11641TIP3    H134866   0.682   5.099   6.213
11641TIP3    H234867   0.604   5.009   6.305
11642TIP3   OH234868   1.187   3.016   0.056
11642TIP3    H134869   1.210   2.985   0.144
11642TIP3    H234870   1.251   2.975  -0.002
11643TIP3   OH234871   5.207   7.637   0.960
11643TIP3    H134872   5.251   7.707   1.007
11643TIP3    H234873   5.120   7.672   0.940
11644TIP3   OH234874   0.767   5.322   3.883
11644TIP3    H134875   0.741   5.362   3.800
11644TIP3    H234876   0.795   5.234   3.858
11645TIP3   OH234877   8.146   3.957   4.060
11645TIP3    H134878   8.149   3.877   4.113
11645TIP3    H234879   8.186   3.932   3.976
11646TIP3   OH234880   3.004   2.853   4.398
11646TIP3    H134881   2.926   2.800   4.381
11646TIP3    H234882   2.970   2.932   4.441
11647TIP3   OH234883   7.088   4.076   1.393
11647TIP3    H134884   7.177   4.047   1.410
11647TIP3    H234885   7.079   4.157   1.443
11648TIP3   OH234886   1.333   7.767   3.351
11648TIP3    H134887   1.328   7.809   3.437
11648TIP3    H234888   1.398   7.818   3.303
11649TIP3   OH234889   1.555   5.291   6.244
11649TIP3    H134890   1.531   5.199   6.251
11649TIP3    H234891   1.626   5.302   6.307
11650TIP3   OH234892   2.440   4.274   5.895
11650TIP3    H134893   2.401   4.257   5.980
11650TIP3    H234894   2.407   4.203   5.839
11651TIP3   OH234895   4.708   1.326   3.489
11651TIP3    H134896   4.674   1.252   3.438
11651TIP3    H234897   4.803   1.315   3.487
11652TIP3   OH234898   4.954   3.612   1.697
11652TIP3    H134899   5.005   3.579   1.770
11652TIP3    H234900   4.961   3.544   1.630
11653TIP3   OH234901   2.307   3.164   1.846
11653TIP3    H134902   2.233   3.113   1.878
11653TIP3    H234903   2.348   3.198   1.926
11654TIP3   OH234904   3.944   6.805   5.965
11654TIP3    H134905   3.860   6.852   5.964
11654TIP3    H234906   4.009   6.872   5.981
11655TIP3   OH234907   1.427   7.056   2.907
11655TIP3    H134908   1.430   7.062   2.811
11655TIP3    H234909   1.385   6.972   2.925
11656TIP3   OH234910   5.923   5.583   4.110
11656TIP3    H134911   5.921   5.490   4.130
11656TIP3    H234912   5.838   5.601   4.070
11657TIP3   OH234913   4.760   3.786   6.705
11657TIP3    H134914   4.746   3.736   6.626
11657TIP3    H234915   4.822   3.855   6.680
11658TIP3   OH234916   3.276   2.736   3.259
11658TIP3    H134917   3.253   2.717   3.349
11658TIP3    H234918   3.231   2.819   3.239
11659TIP3   OH234919   2.023   2.261   2.776
11659TIP3    H134920   1.990   2.339   2.732
11659TIP3    H234921   2.011   2.191   2.713
11660TIP3   OH234922   0.806   5.450   5.371
11660TIP3    H134923   0.868   5.424   5.303
11660TIP3    H234924   0.738   5.499   5.325
11661TIP3   OH234925   0.981   0.404   6.309
11661TIP3    H134926   1.001   0.311   6.325
11661TIP3    H234927   1.049   0.433   6.249
11662TIP3   OH234928   3.077   2.780   1.383
11662TIP3    H134929   2.983   2.764   1.386
11662TIP3    H234930   3.089   2.864   1.427
11663TIP3   OH234931   0.198   1.278   2.864
11663TIP3    H134932   0.105   1.292   2.884
11663TIP3    H234933   0.215   1.335   2.789
11664TIP3   OH234934   4.858   7.386   0.169
11664TIP3    H134935   4.826   7.471   0.201
11664TIP3    H234936   4.953   7.394   0.171
11665TIP3   OH234937   7.775   6.047   0.792
11665TIP3    H134938   7.844   6.108   0.818
11665TIP3    H234939   7.785   6.039   0.697
11666TIP3   OH234940   7.247   4.556   1.126
11666TIP3    H134941   7.223   4.535   1.036
11666TIP3    H234942   7.189   4.503   1.180
11667TIP3   OH234943   1.899   0.184   0.395
11667TIP3    H134944   1.906   0.153   0.486
11667TIP3    H234945   1.943   0.116   0.344
11668TIP3   OH234946   3.869   0.830   4.795
11668TIP3    H134947   3.959   0.862   4.804
11668TIP3    H234948   3.875   0.736   4.812
11669TIP3   OH234949   1.895   2.985   0.627
11669TIP3    H134950   1.889   2.890   0.617
11669TIP3    H234951   1.812   3.019   0.594
11670TIP3   OH234952   3.173   0.805   2.193
11670TIP3    H134953   3.092   0.847   2.164
11670TIP3    H234954   3.203   0.859   2.266
11671TIP3   OH234955   3.224   5.628   3.370
11671TIP3    H134956   3.252   5.661   3.455
11671TIP3    H234957   3.238   5.533   3.375
11672TIP3   OH234958   1.323   3.434   2.601
11672TIP3    H134959   1.385   3.368   2.570
11672TIP3    H234960   1.292   3.401   2.685
11673TIP3   OH234961   8.257   4.130   4.533
11673TIP3    H134962   8.288   4.201   4.590
11673TIP3    H234963   8.246   4.171   4.447
11674TIP3   OH234964   4.148   0.333   5.828
11674TIP3    H134965   4.064   0.290   5.815
11674TIP3    H234966   4.137   0.383   5.909
11675TIP3   OH234967   0.848   1.176   1.150
11675TIP3    H134968   0.924   1.235   1.152
11675TIP3    H234969   0.783   1.223   1.098
11676TIP3   OH234970   5.309   3.341   1.947
11676TIP3    H134971   5.396   3.356   1.909
11676TIP3    H234972   5.257   3.416   1.920
11677TIP3   OH234973   0.749   5.035   3.066
11677TIP3    H134974   0.803   5.016   3.143
11677TIP3    H234975   0.710   4.951   3.043
11678TIP3   OH234976   6.263   7.689   3.726
11678TIP3    H134977   6.264   7.595   3.707
11678TIP3    H234978   6.286   7.730   3.642
11679TIP3   OH234979   2.988   6.617   3.656
11679TIP3    H134980   3.000   6.693   3.599
11679TIP3    H234981   2.997   6.542   3.598
11680TIP3   OH234982   2.174   1.177   6.223
11680TIP3    H134983   2.241   1.156   6.158
11680TIP3    H234984   2.222   1.179   6.306
11681TIP3   OH234985   5.791   5.109   1.167
11681TIP3    H134986   5.774   5.196   1.202
11681TIP3    H234987   5.705   5.074   1.144
11682TIP3   OH234988   4.111   3.470   0.729
11682TIP3    H134989   4.062   3.542   0.690
11682TIP3    H234990   4.156   3.429   0.655
11683TIP3   OH234991   3.153   6.587   6.691
11683TIP3    H134992   3.088   6.655   6.707
11683TIP3    H234993   3.194   6.612   6.608
11684TIP3   OH234994   7.180   1.853   2.904
11684TIP3    H134995   7.216   1.915   2.841
11684TIP3    H234996   7.086   1.850   2.883
11685TIP3   OH234997   8.262   1.784   0.981
11685TIP3    H134998   8.193   1.850   0.991
11685TIP3    H234999   8.342   1.835   0.969
11686TIP3   OH235000   3.263   5.895   6.671
11686TIP3    H135001   3.350   5.886   6.710
11686TIP3    H235002   3.253   5.817   6.616
11687TIP3   OH235003   1.366   5.145   1.444
11687TIP3    H135004   1.308   5.166   1.517
11687TIP3    H235005   1.452   5.176   1.472
11688TIP3   OH235006   0.187   3.583   0.715
11688TIP3    H135007   0.112   3.581   0.775
11688TIP3    H235008   0.253   3.636   0.761
11689TIP3   OH235009   7.158   3.168   0.971
11689TIP3    H135010   7.197   3.246   1.011
11689TIP3    H235011   7.201   3.095   1.015
11690TIP3   OH235012   2.014   3.684   3.383
11690TIP3    H135013   2.055   3.665   3.468
11690TIP3    H235014   2.001   3.597   3.343
11691TIP3   OH235015   0.161   0.087   4.353
11691TIP3    H135016   0.133   0.089   4.261
11691TIP3    H235017   0.250   0.052   4.350
11692TIP3   OH235018   4.143   1.128   4.983
11692TIP3    H135019   4.107   1.144   5.071
11692TIP3    H235020   4.237   1.116   4.998
11693TIP3   OH235021   7.209   2.908   4.491
11693TIP3    H135022   7.252   2.835   4.534
11693TIP3    H235023   7.183   2.874   4.405
11694TIP3   OH235024   5.533   1.900   5.597
11694TIP3    H135025   5.478   1.821   5.594
11694TIP3    H235026   5.513   1.946   5.516
11695TIP3   OH235027   2.481   3.333   5.679
11695TIP3    H135028   2.415   3.274   5.714
11695TIP3    H235029   2.563   3.286   5.688
11696TIP3   OH235030   6.379   0.261   4.105
11696TIP3    H135031   6.323   0.191   4.138
11696TIP3    H235032   6.337   0.290   4.024
11697TIP3   OH235033   1.671   1.867   1.715
11697TIP3    H135034   1.741   1.898   1.772
11697TIP3    H235035   1.590   1.891   1.761
11698TIP3   OH235036   4.841   0.704   0.758
11698TIP3    H135037   4.874   0.634   0.814
11698TIP3    H235038   4.912   0.768   0.754
11699TIP3   OH235039   1.965   2.417   4.789
11699TIP3    H135040   2.046   2.464   4.768
11699TIP3    H235041   1.938   2.376   4.707
11700TIP3   OH235042   6.104   3.180   3.966
11700TIP3    H135043   6.104   3.222   4.052
11700TIP3    H235044   6.196   3.181   3.939
11701TIP3   OH235045   5.023   6.832   0.877
11701TIP3    H135046   5.037   6.782   0.957
11701TIP3    H235047   5.074   6.912   0.889
11702TIP3   OH235048   1.154   2.460   2.402
11702TIP3    H135049   1.066   2.496   2.402
11702TIP3    H235050   1.144   2.369   2.375
11703TIP3   OH235051   6.207   7.562   5.723
11703TIP3    H135052   6.171   7.476   5.703
11703TIP3    H235053   6.285   7.569   5.668
11704TIP3   OH235054   4.142   2.982   5.118
11704TIP3    H135055   4.200   3.015   5.186
11704TIP3    H235056   4.123   2.892   5.144
11705TIP3   OH235057   7.662   2.917   4.269
11705TIP3    H135058   7.754   2.894   4.284
11705TIP3    H235059   7.665   3.007   4.236
11706TIP3   OH235060   3.581   2.829   3.356
11706TIP3    H135061   3.582   2.778   3.437
11706TIP3    H235062   3.510   2.892   3.367
11707TIP3   OH235063   3.968   5.160   5.552
11707TIP3    H135064   4.008   5.240   5.586
11707TIP3    H235065   3.874   5.178   5.555
11708TIP3   OH235066   3.696   5.870   1.608
11708TIP3    H135067   3.641   5.826   1.673
11708TIP3    H235068   3.634   5.921   1.556
11709TIP3   OH235069   3.640   4.902   4.456
11709TIP3    H135070   3.680   4.867   4.536
11709TIP3    H235071   3.696   4.976   4.432
11710TIP3   OH235072   2.255   2.032   5.179
11710TIP3    H135073   2.350   2.033   5.191
11710TIP3    H235074   2.243   2.014   5.086
11711TIP3   OH235075   7.694   4.859   0.217
11711TIP3    H135076   7.657   4.930   0.269
11711TIP3    H235077   7.622   4.829   0.162
11712TIP3   OH235078   5.534   6.336   5.834
11712TIP3    H135079   5.511   6.245   5.815
11712TIP3    H235080   5.474   6.361   5.904
11713TIP3   OH235081   1.476   3.546   1.778
11713TIP3    H135082   1.541   3.566   1.845
11713TIP3    H235083   1.394   3.581   1.812
11714TIP3   OH235084   5.986   3.508   4.413
11714TIP3    H135085   5.970   3.494   4.506
11714TIP3    H235086   6.065   3.561   4.410
11715TIP3   OH235087   2.773   6.197   2.114
11715TIP3    H135088   2.774   6.170   2.205
11715TIP3    H235089   2.693   6.159   2.078
11716TIP3   OH235090   3.309   4.409   3.240
11716TIP3    H135091   3.298   4.334   3.180
11716TIP3    H235092   3.353   4.372   3.316
11717TIP3   OH235093   6.138   2.189   0.636
11717TIP3    H135094   6.182   2.241   0.704
11717TIP3    H235095   6.135   2.101   0.672
11718TIP3   OH235096   5.525   7.283   5.878
11718TIP3    H135097   5.544   7.281   5.971
11718TIP3    H235098   5.591   7.226   5.839
11719TIP3   OH235099   1.097   2.774   1.802
11719TIP3    H135100   1.088   2.868   1.817
11719TIP3    H235101   1.079   2.763   1.708
11720TIP3   OH235102   2.657   4.656   3.754
11720TIP3    H135103   2.722   4.594   3.785
11720TIP3    H235104   2.621   4.695   3.834
11721TIP3   OH235105   5.767   2.454   6.715
11721TIP3    H135106   5.776   2.399   6.638
11721TIP3    H235107   5.683   2.497   6.705
11722TIP3   OH235108   1.634   1.153   0.205
11722TIP3    H135109   1.553   1.186   0.243
11722TIP3    H235110   1.663   1.084   0.265
11723TIP3   OH235111   5.338   3.079   5.782
11723TIP3    H135112   5.251   3.116   5.794
11723TIP3    H235113   5.370   3.064   5.871
11724TIP3   OH235114   2.591   1.126   0.177
11724TIP3    H135115   2.537   1.201   0.154
11724TIP3    H235116   2.529   1.056   0.196
11725TIP3   OH235117   7.440   7.301   3.645
11725TIP3    H135118   7.382   7.280   3.718
11725TIP3    H235119   7.457   7.394   3.654
11726TIP3   OH235120   0.662   7.610   0.811
11726TIP3    H135121   0.738   7.624   0.867
11726TIP3    H235122   0.590   7.595   0.873
11727TIP3   OH235123   2.233   7.747   2.049
11727TIP3    H135124   2.252   7.837   2.024
11727TIP3    H235125   2.265   7.694   1.976
11728TIP3   OH235126   3.590   4.506   0.214
11728TIP3    H135127   3.678   4.502   0.250
11728TIP3    H235128   3.532   4.480   0.285
11729TIP3   OH235129   7.299   6.456   3.385
11729TIP3    H135130   7.340   6.378   3.424
11729TIP3    H235131   7.220   6.423   3.342
11730TIP3   OH235132   3.653   3.299   3.422
11730TIP3    H135133   3.589   3.366   3.447
11730TIP3    H235134   3.620   3.264   3.339
11731TIP3   OH235135   7.949   6.657   3.727
11731TIP3    H135136   8.023   6.715   3.747
11731TIP3    H235137   7.981   6.569   3.745
11732TIP3   OH235138   1.465   2.785   4.856
11732TIP3    H135139   1.373   2.807   4.872
11732TIP3    H235140   1.509   2.807   4.938
11733TIP3   OH235141   2.890   2.013   3.377
11733TIP3    H135142   2.937   2.012   3.461
11733TIP3    H235143   2.847   1.928   3.373
11734TIP3   OH235144   4.408   2.442   5.748
11734TIP3    H135145   4.360   2.359   5.737
11734TIP3    H235146   4.499   2.418   5.732
11735TIP3   OH235147   3.201   7.689   1.626
11735TIP3    H135148   3.122   7.733   1.656
11735TIP3    H235149   3.189   7.678   1.531
11736TIP3   OH235150   0.895   2.124   1.628
11736TIP3    H135151   0.817   2.175   1.652
11736TIP3    H235152   0.953   2.132   1.704
11737TIP3   OH235153   2.033   0.455   4.351
11737TIP3    H135154   2.093   0.528   4.366
11737TIP3    H235155   2.071   0.382   4.400
11738TIP3   OH235156   4.312   7.138   6.003
11738TIP3    H135157   4.219   7.122   6.019
11738TIP3    H235158   4.342   7.185   6.082
11739TIP3   OH235159   7.159   4.950   5.265
11739TIP3    H135160   7.125   4.992   5.186
11739TIP3    H235161   7.095   4.881   5.285
11740TIP3   OH235162   0.760   7.276   3.614
11740TIP3    H135163   0.726   7.364   3.632
11740TIP3    H235164   0.756   7.231   3.699
11741TIP3   OH235165   6.716   2.330   2.881
11741TIP3    H135166   6.721   2.249   2.830
11741TIP3    H235167   6.719   2.301   2.972
11742TIP3   OH235168   1.506   6.518   0.577
11742TIP3    H135169   1.498   6.558   0.663
11742TIP3    H235170   1.428   6.547   0.530
11743TIP3   OH235171   3.015   0.134   6.555
11743TIP3    H135172   3.097   0.085   6.563
11743TIP3    H235173   2.948   0.070   6.580
11744TIP3   OH235174   1.124   6.621   6.140
11744TIP3    H135175   1.188   6.686   6.169
11744TIP3    H235176   1.050   6.632   6.201
11745TIP3   OH235177   2.114   5.900   2.108
11745TIP3    H135178   2.085   5.878   2.196
11745TIP3    H235179   2.192   5.847   2.094
11746TIP3   OH235180   7.529   7.319   4.267
11746TIP3    H135181   7.568   7.317   4.179
11746TIP3    H235182   7.437   7.341   4.252
11747TIP3   OH235183   8.170   3.502   0.481
11747TIP3    H135184   8.164   3.451   0.562
11747TIP3    H235185   8.181   3.436   0.413
11748TIP3   OH235186   6.990   3.981   2.823
11748TIP3    H135187   7.046   3.947   2.753
11748TIP3    H235188   6.945   3.905   2.858
11749TIP3   OH235189   3.422   5.004   6.379
11749TIP3    H135190   3.460   5.079   6.333
11749TIP3    H235191   3.329   5.025   6.385
11750TIP3   OH235192   6.773   3.625   5.039
11750TIP3    H135193   6.719   3.548   5.023
11750TIP3    H235194   6.753   3.684   4.966
11751TIP3   OH235195   1.148   3.276   1.058
11751TIP3    H135196   1.225   3.219   1.057
11751TIP3    H235197   1.175   3.351   1.110
11752TIP3   OH235198   6.367   5.169   6.164
11752TIP3    H135199   6.305   5.236   6.133
11752TIP3    H235200   6.445   5.182   6.110
11753TIP3   OH235201   2.343   3.864   4.465
11753TIP3    H135202   2.363   3.774   4.491
11753TIP3    H235203   2.320   3.857   4.372
11754TIP3   OH235204   2.967   7.390   3.744
11754TIP3    H135205   2.922   7.367   3.825
11754TIP3    H235206   2.911   7.356   3.675
11755TIP3   OH235207   1.344   7.065   4.449
11755TIP3    H135208   1.391   7.146   4.466
11755TIP3    H235209   1.271   7.066   4.510
11756TIP3   OH235210   7.106   5.122   1.240
11756TIP3    H135211   7.168   5.177   1.192
11756TIP3    H235212   7.034   5.182   1.263
11757TIP3   OH235213   3.254   3.322   2.416
11757TIP3    H135214   3.243   3.281   2.502
11757TIP3    H235215   3.324   3.272   2.374
11758TIP3   OH235216   3.498   7.770   3.454
11758TIP3    H135217   3.475   7.772   3.362
11758TIP3    H235218   3.581   7.722   3.457
11759TIP3   OH235219   3.658   4.699   1.918
11759TIP3    H135220   3.631   4.703   2.010
11759TIP3    H235221   3.647   4.608   1.893
11760TIP3   OH235222   7.199   6.160   2.976
11760TIP3    H135223   7.251   6.148   3.055
11760TIP3    H235224   7.156   6.075   2.961
11761TIP3   OH235225   2.652   6.289   4.341
11761TIP3    H135226   2.698   6.350   4.283
11761TIP3    H235227   2.603   6.345   4.401
11762TIP3   OH235228   3.827   2.649   5.420
11762TIP3    H135229   3.747   2.680   5.377
11762TIP3    H235230   3.868   2.591   5.356
11763TIP3   OH235231   3.874   4.168   6.078
11763TIP3    H135232   3.780   4.163   6.095
11763TIP3    H235233   3.889   4.260   6.057
11764TIP3   OH235234   5.310   4.065   1.671
11764TIP3    H135235   5.379   4.023   1.721
11764TIP3    H235236   5.274   3.995   1.615
11765TIP3   OH235237   7.854   1.403   0.684
11765TIP3    H135238   7.773   1.373   0.643
11765TIP3    H235239   7.835   1.492   0.714
11766TIP3   OH235240   2.038   6.543   6.121
11766TIP3    H135241   1.999   6.546   6.209
11766TIP3    H235242   2.129   6.567   6.135
11767TIP3   OH235243   7.148   7.754   4.642
11767TIP3    H135244   7.056   7.744   4.664
11767TIP3    H235245   7.160   7.699   4.564
11768TIP3   OH235246   6.309   0.347   5.525
11768TIP3    H135247   6.216   0.330   5.537
11768TIP3    H235248   6.321   0.438   5.554
11769TIP3   OH235249   6.660   0.584   3.140
11769TIP3    H135250   6.663   0.636   3.060
11769TIP3    H235251   6.589   0.521   3.125
11770TIP3   OH235252   7.183   2.791   6.730
11770TIP3    H135253   7.187   2.854   6.658
11770TIP3    H235254   7.246   2.824   6.795
11771TIP3   OH235255   2.809   0.558   6.310
11771TIP3    H135256   2.864   0.579   6.235
11771TIP3    H235257   2.845   0.476   6.345
11772TIP3   OH235258   3.112   5.743   6.400
11772TIP3    H135259   3.082   5.754   6.310
11772TIP3    H235260   3.032   5.747   6.453
11773TIP3   OH235261   4.165   2.943   6.164
11773TIP3    H135262   4.187   2.854   6.192
11773TIP3    H235263   4.142   2.934   6.072
11774TIP3   OH235264   5.613   0.596   3.371
11774TIP3    H135265   5.684   0.535   3.354
11774TIP3    H235266   5.533   0.546   3.354
11775TIP3   OH235267   1.135   4.103   4.302
11775TIP3    H135268   1.069   4.098   4.371
11775TIP3    H235269   1.128   4.019   4.256
11776TIP3   OH235270   0.507   6.456   0.876
11776TIP3    H135271   0.496   6.364   0.854
11776TIP3    H235272   0.483   6.503   0.796
11777TIP3   OH235273   5.557   6.791   0.394
11777TIP3    H135274   5.500   6.859   0.431
11777TIP3    H235275   5.588   6.828   0.311
11778TIP3   OH235276   2.439   7.666   1.251
11778TIP3    H135277   2.474   7.687   1.164
11778TIP3    H235278   2.442   7.749   1.298
11779TIP3   OH235279   1.384   2.571   4.669
11779TIP3    H135280   1.383   2.494   4.726
11779TIP3    H235281   1.453   2.627   4.704
11780TIP3   OH235282   2.964   2.784   3.000
11780TIP3    H135283   2.994   2.702   2.960
11780TIP3    H235284   2.963   2.766   3.094
11781TIP3   OH235285   5.480   2.146   0.208
11781TIP3    H135286   5.563   2.103   0.230
11781TIP3    H235287   5.477   2.222   0.267
11782TIP3   OH235288   4.181   2.484   1.865
11782TIP3    H135289   4.150   2.410   1.918
11782TIP3    H235290   4.164   2.561   1.919
11783TIP3   OH235291   4.276   5.325   2.136
11783TIP3    H135292   4.311   5.388   2.073
11783TIP3    H235293   4.213   5.274   2.086
11784TIP3   OH235294   2.794   7.570   2.544
11784TIP3    H135295   2.851   7.493   2.549
11784TIP3    H235296   2.817   7.621   2.621
11785TIP3   OH235297   4.405   1.275   6.369
11785TIP3    H135298   4.377   1.290   6.460
11785TIP3    H235299   4.499   1.291   6.370
11786TIP3   OH235300   0.540   4.446   6.352
11786TIP3    H135301   0.576   4.471   6.437
11786TIP3    H235302   0.617   4.434   6.296
11787TIP3   OH235303   6.808   4.430   1.528
11787TIP3    H135304   6.863   4.407   1.603
11787TIP3    H235305   6.851   4.506   1.490
11788TIP3   OH235306   5.492   0.446   0.772
11788TIP3    H135307   5.559   0.443   0.703
11788TIP3    H235308   5.499   0.361   0.815
11789TIP3   OH235309   8.090   3.411   5.653
11789TIP3    H135310   8.104   3.318   5.673
11789TIP3    H235311   8.177   3.447   5.639
11790TIP3   OH235312   6.470   4.807   0.343
11790TIP3    H135313   6.527   4.833   0.415
11790TIP3    H235314   6.501   4.859   0.268
11791TIP3   OH235315   1.001   5.594   2.981
11791TIP3    H135316   1.039   5.614   2.895
11791TIP3    H235317   0.996   5.499   2.983
11792TIP3   OH235318   6.311   7.512   0.328
11792TIP3    H135319   6.391   7.558   0.355
11792TIP3    H235320   6.285   7.555   0.247
11793TIP3   OH235321   7.117   1.474   0.840
11793TIP3    H135322   7.074   1.390   0.856
11793TIP3    H235323   7.099   1.494   0.749
11794TIP3   OH235324   6.861   5.327   0.050
11794TIP3    H135325   6.866   5.394   0.119
11794TIP3    H235326   6.787   5.271   0.077
11795TIP3   OH235327   0.464   5.534   0.785
11795TIP3    H135328   0.389   5.507   0.837
11795TIP3    H235329   0.444   5.623   0.759
11796TIP3   OH235330   1.839   6.953   5.301
11796TIP3    H135331   1.840   6.894   5.226
11796TIP3    H235332   1.892   6.909   5.367
11797TIP3   OH235333   5.238   4.920   4.759
11797TIP3    H135334   5.176   4.858   4.797
11797TIP3    H235335   5.212   4.925   4.667
11798TIP3   OH235336   5.111   6.013   1.105
11798TIP3    H135337   5.155   5.935   1.071
11798TIP3    H235338   5.037   6.026   1.046
11799TIP3   OH235339   1.803   7.570   0.170
11799TIP3    H135340   1.751   7.625   0.229
11799TIP3    H235341   1.793   7.481   0.205
11800TIP3   OH235342   6.080   2.369   5.868
11800TIP3    H135343   6.094   2.276   5.851
11800TIP3    H235344   6.104   2.412   5.786
11801TIP3   OH235345   2.374   3.595   5.295
11801TIP3    H135346   2.374   3.554   5.381
11801TIP3    H235347   2.464   3.625   5.282
11802TIP3   OH235348   7.835   0.395   1.429
11802TIP3    H135349   7.884   0.474   1.403
11802TIP3    H235350   7.836   0.396   1.524
11803TIP3   OH235351   0.460   2.185   4.892
11803TIP3    H135352   0.468   2.101   4.938
11803TIP3    H235353   0.370   2.186   4.860
11804TIP3   OH235354   6.532   5.481   6.099
11804TIP3    H135355   6.537   5.426   6.177
11804TIP3    H235356   6.502   5.566   6.131
11805TIP3   OH235357   8.087   3.499   0.198
11805TIP3    H135358   8.099   3.592   0.214
11805TIP3    H235359   8.176   3.464   0.189
11806TIP3   OH235360   4.446   4.992   0.723
11806TIP3    H135361   4.428   4.905   0.687
11806TIP3    H235362   4.541   4.994   0.734
11807TIP3   OH235363   6.318   2.134   3.579
11807TIP3    H135364   6.369   2.100   3.505
11807TIP3    H235365   6.349   2.083   3.654
11808TIP3   OH235366   2.787   0.174   4.978
11808TIP3    H135367   2.705   0.131   5.000
11808TIP3    H235368   2.766   0.268   4.976
11809TIP3   OH235369   1.335   2.845   1.992
11809TIP3    H135370   1.345   2.858   1.897
11809TIP3    H235371   1.252   2.799   2.001
11810TIP3   OH235372   4.627   5.489   5.939
11810TIP3    H135373   4.567   5.429   5.983
11810TIP3    H235374   4.574   5.530   5.871
11811TIP3   OH235375   5.284   2.494   5.407
11811TIP3    H135376   5.295   2.570   5.350
11811TIP3    H235377   5.368   2.486   5.452
11812TIP3   OH235378   5.572   2.480   0.646
11812TIP3    H135379   5.628   2.489   0.722
11812TIP3    H235380   5.494   2.533   0.667
11813TIP3   OH235381   5.514   6.472   4.669
11813TIP3    H135382   5.426   6.490   4.702
11813TIP3    H235383   5.546   6.399   4.724
11814TIP3   OH235384   2.222   3.265   1.608
11814TIP3    H135385   2.247   3.231   1.694
11814TIP3    H235386   2.166   3.340   1.627
11815TIP3   OH235387   7.919   4.850   2.163
11815TIP3    H135388   7.882   4.907   2.230
11815TIP3    H235389   7.918   4.763   2.204
11816TIP3   OH235390   2.367   2.086   1.034
11816TIP3    H135391   2.319   2.077   0.952
11816TIP3    H235392   2.340   2.010   1.086
11817TIP3   OH235393   3.858   7.277   2.740
11817TIP3    H135394   3.809   7.229   2.674
11817TIP3    H235395   3.805   7.356   2.756
11818TIP3   OH235396   3.232   1.424   5.629
11818TIP3    H135397   3.264   1.350   5.579
11818TIP3    H235398   3.235   1.395   5.720
11819TIP3   OH235399   7.737   0.455   3.021
11819TIP3    H135400   7.813   0.503   2.989
11819TIP3    H235401   7.772   0.393   3.085
11820TIP3   OH235402   6.627   4.527   3.097
11820TIP3    H135403   6.678   4.450   3.072
11820TIP3    H235404   6.681   4.572   3.162
11821TIP3   OH235405   6.480   5.640   4.063
11821TIP3    H135406   6.398   5.610   4.024
11821TIP3    H235407   6.519   5.561   4.101
11822TIP3   OH235408   8.135   0.034   5.044
11822TIP3    H135409   8.217   0.067   5.007
11822TIP3    H235410   8.163  -0.024   5.115
11823TIP3   OH235411   4.429   1.922   0.702
11823TIP3    H135412   4.427   2.006   0.656
11823TIP3    H235413   4.360   1.929   0.768
11824TIP3   OH235414   2.180   3.815   1.593
11824TIP3    H135415   2.144   3.870   1.524
11824TIP3    H235416   2.236   3.874   1.643
11825TIP3   OH235417   8.125   2.909   3.980
11825TIP3    H135418   8.201   2.946   3.936
11825TIP3    H235419   8.127   2.947   4.068
11826TIP3   OH235420   5.159   7.356   1.011
11826TIP3    H135421   5.148   7.444   1.049
11826TIP3    H235422   5.247   7.357   0.973
11827TIP3   OH235423   0.189   3.504   3.765
11827TIP3    H135424   0.239   3.562   3.707
11827TIP3    H235425   0.126   3.461   3.706
11828TIP3   OH235426   1.495   6.859   6.341
11828TIP3    H135427   1.505   6.869   6.435
11828TIP3    H235428   1.548   6.782   6.319
11829TIP3   OH235429   7.833   3.972   2.931
11829TIP3    H135430   7.832   3.877   2.945
11829TIP3    H235431   7.777   4.007   3.000
11830TIP3   OH235432   4.153   6.102   2.189
11830TIP3    H135433   4.248   6.108   2.199
11830TIP3    H235434   4.139   6.089   2.095
11831TIP3   OH235435   7.635   7.021   6.110
11831TIP3    H135436   7.545   7.004   6.081
11831TIP3    H235437   7.635   7.115   6.128
11832TIP3   OH235438   0.235   6.390   2.244
11832TIP3    H135439   0.161   6.404   2.303
11832TIP3    H235440   0.280   6.314   2.281
11833TIP3   OH235441   4.286   0.021   5.691
11833TIP3    H135442   4.292   0.014   5.596
11833TIP3    H235443   4.350   0.088   5.714
11834TIP3   OH235444   3.650   0.161   0.584
11834TIP3    H135445   3.581   0.096   0.597
11834TIP3    H235446   3.655   0.208   0.667
11835TIP3   OH235447   2.986   2.457   4.849
11835TIP3    H135448   2.991   2.366   4.818
11835TIP3    H235449   2.892   2.473   4.860
11836TIP3   OH235450   0.158   5.504   2.483
11836TIP3    H135451   0.096   5.572   2.511
11836TIP3    H235452   0.234   5.517   2.539
11837TIP3   OH235453   6.508   7.742   1.728
11837TIP3    H135454   6.601   7.766   1.734
11837TIP3    H235455   6.488   7.705   1.814
11838TIP3   OH235456   6.610   7.476   1.917
11838TIP3    H135457   6.533   7.532   1.925
11838TIP3    H235458   6.594   7.423   1.838
11839TIP3   OH235459   2.291   3.109   2.724
11839TIP3    H135460   2.324   3.021   2.743
11839TIP3    H235461   2.215   3.096   2.668
11840TIP3   OH235462   6.598   7.463   4.102
11840TIP3    H135463   6.505   7.482   4.094
11840TIP3    H235464   6.601   7.369   4.123
11841TIP3   OH235465   5.938   4.609   4.560
11841TIP3    H135466   5.879   4.534   4.562
11841TIP3    H235467   5.902   4.670   4.625
11842TIP3   OH235468   5.807   3.647   3.169
11842TIP3    H135469   5.774   3.603   3.247
11842TIP3    H235470   5.766   3.603   3.096
11843TIP3   OH235471   0.358   0.362   4.709
11843TIP3    H135472   0.391   0.446   4.677
11843TIP3    H235473   0.404   0.297   4.656
11844TIP3   OH235474   1.084   4.366   5.156
11844TIP3    H135475   1.032   4.286   5.155
11844TIP3    H235476   1.028   4.432   5.115
11845TIP3   OH235477   4.220   2.089   2.807
11845TIP3    H135478   4.237   2.040   2.888
11845TIP3    H235479   4.167   2.029   2.755
11846TIP3   OH235480   2.895   1.807   4.113
11846TIP3    H135481   2.910   1.894   4.077
11846TIP3    H235482   2.921   1.747   4.043
11847TIP3   OH235483   2.771   3.002   5.140
11847TIP3    H135484   2.676   2.994   5.140
11847TIP3    H235485   2.787   3.097   5.139
11848TIP3   OH235486   4.582   1.862   0.927
11848TIP3    H135487   4.612   1.771   0.933
11848TIP3    H235488   4.514   1.860   0.860
11849TIP3   OH235489   6.491   4.741   0.729
11849TIP3    H135490   6.579   4.730   0.694
11849TIP3    H235491   6.482   4.835   0.744
11850TIP3   OH235492   7.645   2.214   3.482
11850TIP3    H135493   7.637   2.256   3.567
11850TIP3    H235494   7.561   2.230   3.439
11851TIP3   OH235495   3.123   7.209   0.437
11851TIP3    H135496   3.174   7.256   0.372
11851TIP3    H235497   3.154   7.244   0.521
11852TIP3   OH235498   4.288   3.233   3.055
11852TIP3    H135499   4.339   3.161   3.020
11852TIP3    H235500   4.320   3.243   3.145
11853TIP3   OH235501   7.516   7.067   0.809
11853TIP3    H135502   7.534   7.014   0.886
11853TIP3    H235503   7.589   7.129   0.804
11854TIP3   OH235504   1.974   4.095   4.350
11854TIP3    H135505   2.024   4.081   4.270
11854TIP3    H235506   1.913   4.022   4.353
11855TIP3   OH235507   7.580   2.754   0.798
11855TIP3    H135508   7.531   2.830   0.832
11855TIP3    H235509   7.514   2.702   0.752
11856TIP3   OH235510   2.724   3.601   1.974
11856TIP3    H135511   2.748   3.539   1.905
11856TIP3    H235512   2.806   3.622   2.018
11857TIP3   OH235513   0.062   1.673   6.142
11857TIP3    H135514   0.115   1.593   6.140
11857TIP3    H235515   0.027   1.676   6.231
11858TIP3   OH235516   0.071   7.362   4.416
11858TIP3    H135517   0.015   7.440   4.413
11858TIP3    H235518   0.054   7.323   4.501
11859TIP3   OH235519   3.270   7.746   5.143
11859TIP3    H135520   3.238   7.707   5.224
11859TIP3    H235521   3.199   7.803   5.114
11860TIP3   OH235522   6.396   0.419   1.955
11860TIP3    H135523   6.351   0.495   1.993
11860TIP3    H235524   6.488   0.443   1.955
11861TIP3   OH235525   2.990   2.191   4.825
11861TIP3    H135526   2.978   2.144   4.742
11861TIP3    H235527   3.058   2.141   4.871
11862TIP3   OH235528   2.924   3.875   4.807
11862TIP3    H135529   2.878   3.835   4.733
11862TIP3    H235530   2.928   3.968   4.786
11863TIP3   OH235531   3.498   2.807   1.504
11863TIP3    H135532   3.572   2.859   1.532
11863TIP3    H235533   3.437   2.870   1.465
11864TIP3   OH235534   6.935   6.849   1.583
11864TIP3    H135535   7.028   6.829   1.579
11864TIP3    H235536   6.932   6.943   1.601
11865TIP3   OH235537   4.321   0.269   2.538
11865TIP3    H135538   4.329   0.221   2.621
11865TIP3    H235539   4.240   0.237   2.500
11866TIP3   OH235540   7.773   1.746   0.050
11866TIP3    H135541   7.849   1.796   0.022
11866TIP3    H235542   7.788   1.658   0.015
11867TIP3   OH235543   5.070   5.307   0.767
11867TIP3    H135544   5.155   5.296   0.723
11867TIP3    H235545   5.089   5.289   0.859
11868TIP3   OH235546   3.042   0.440   4.971
11868TIP3    H135547   3.068   0.493   5.046
11868TIP3    H235548   2.948   0.458   4.961
11869TIP3   OH235549   5.981   3.433   5.649
11869TIP3    H135550   6.019   3.445   5.562
11869TIP3    H235551   5.887   3.431   5.635
11870TIP3   OH235552   2.922   4.583   3.639
11870TIP3    H135553   2.971   4.528   3.701
11870TIP3    H235554   2.922   4.670   3.680
11871TIP3   OH235555   0.628   4.653   2.026
11871TIP3    H135556   0.681   4.602   1.965
11871TIP3    H235557   0.610   4.592   2.098
11872TIP3   OH235558   2.374   4.628   4.582
11872TIP3    H135559   2.400   4.552   4.529
11872TIP3    H235560   2.456   4.659   4.621
11873TIP3   OH235561   4.863   2.137   3.065
11873TIP3    H135562   4.935   2.120   3.125
11873TIP3    H235563   4.892   2.212   3.013
11874TIP3   OH235564   3.203   4.200   3.019
11874TIP3    H135565   3.249   4.228   2.940
11874TIP3    H235566   3.132   4.144   2.987
11875TIP3   OH235567   2.122   5.797   1.055
11875TIP3    H135568   2.035   5.804   1.094
11875TIP3    H235569   2.161   5.720   1.096
11876TIP3   OH235570   8.003   3.735   4.943
11876TIP3    H135571   8.034   3.824   4.925
11876TIP3    H235572   7.974   3.738   5.034
11877TIP3   OH235573   5.927   4.392   0.275
11877TIP3    H135574   6.007   4.382   0.326
11877TIP3    H235575   5.948   4.352   0.190
11878TIP3   OH235576   7.338   5.455   4.649
11878TIP3    H135577   7.385   5.538   4.640
11878TIP3    H235578   7.328   5.423   4.559
11879TIP3   OH235579   1.522   3.031   6.385
11879TIP3    H135580   1.486   3.112   6.349
11879TIP3    H235581   1.457   2.964   6.364
11880TIP3   OH235582   2.155   1.788   0.551
11880TIP3    H135583   2.127   1.880   0.545
11880TIP3    H235584   2.250   1.792   0.540
11881TIP3   OH235585   1.224   4.492   1.146
11881TIP3    H135586   1.316   4.481   1.122
11881TIP3    H235587   1.175   4.443   1.080
11882TIP3   OH235588   3.215   2.369   5.196
11882TIP3    H135589   3.257   2.400   5.117
11882TIP3    H235590   3.239   2.276   5.202
11883TIP3   OH235591   3.556   6.801   3.082
11883TIP3    H135592   3.578   6.854   3.005
11883TIP3    H235593   3.505   6.728   3.047
11884TIP3   OH235594   1.772   2.464   1.896
11884TIP3    H135595   1.772   2.386   1.952
11884TIP3    H235596   1.679   2.481   1.880
11885TIP3   OH235597   6.818   6.879   5.005
11885TIP3    H135598   6.813   6.809   5.070
11885TIP3    H235599   6.912   6.897   4.996
11886TIP3   OH235600   4.531   4.929   1.732
11886TIP3    H135601   4.548   4.987   1.806
11886TIP3    H235602   4.595   4.858   1.742
11887TIP3   OH235603   4.207   0.581   4.028
11887TIP3    H135604   4.158   0.659   4.054
11887TIP3    H235605   4.260   0.609   3.954
11888TIP3   OH235606   2.571   3.017   1.144
11888TIP3    H135607   2.591   2.985   1.232
11888TIP3    H235608   2.480   2.989   1.128
11889TIP3   OH235609   5.155   6.589   4.345
11889TIP3    H135610   5.137   6.682   4.337
11889TIP3    H235611   5.212   6.582   4.422
11890TIP3   OH235612   2.083   3.385   0.012
11890TIP3    H135613   2.042   3.381  -0.074
11890TIP3    H235614   2.028   3.444   0.062
11891TIP3   OH235615   2.072   2.843   3.327
11891TIP3    H135616   2.021   2.834   3.408
11891TIP3    H235617   2.148   2.896   3.353
11892TIP3   OH235618   2.357   7.547   4.638
11892TIP3    H135619   2.294   7.595   4.585
11892TIP3    H235620   2.384   7.610   4.705
11893TIP3   OH235621   2.107   4.647   6.177
11893TIP3    H135622   2.151   4.635   6.093
11893TIP3    H235623   2.021   4.608   6.165
11894TIP3   OH235624   3.035   7.489   4.092
11894TIP3    H135625   2.973   7.416   4.103
11894TIP3    H235626   3.038   7.531   4.177
11895TIP3   OH235627   0.874   0.158   5.021
11895TIP3    H135628   0.780   0.141   5.028
11895TIP3    H235629   0.908   0.143   5.110
11896TIP3   OH235630   7.200   6.901   6.548
11896TIP3    H135631   7.197   6.963   6.621
11896TIP3    H235632   7.133   6.836   6.569
11897TIP3   OH235633   3.133   4.280   4.624
11897TIP3    H135634   3.222   4.271   4.588
11897TIP3    H235635   3.137   4.235   4.708
11898TIP3   OH235636   2.070   5.722   2.891
11898TIP3    H135637   2.163   5.711   2.910
11898TIP3    H235638   2.025   5.688   2.969
11899TIP3   OH235639   5.863   4.909   0.969
11899TIP3    H135640   5.851   4.896   1.063
11899TIP3    H235641   5.774   4.925   0.936
11900TIP3   OH235642   4.869   3.827   3.942
11900TIP3    H135643   4.869   3.736   3.972
11900TIP3    H235644   4.913   3.875   4.012
11901TIP3   OH235645   7.053   2.176   3.303
11901TIP3    H135646   7.119   2.244   3.289
11901TIP3    H235647   7.041   2.173   3.398
11902TIP3   OH235648   7.373   3.503   3.617
11902TIP3    H135649   7.375   3.598   3.634
11902TIP3    H235650   7.465   3.476   3.625
11903TIP3   OH235651   6.173   1.058   5.826
11903TIP3    H135652   6.225   1.001   5.770
11903TIP3    H235653   6.148   1.003   5.900
11904TIP3   OH235654   6.915   1.724   0.445
11904TIP3    H135655   6.856   1.670   0.392
11904TIP3    H235656   6.865   1.741   0.525
11905TIP3   OH235657   0.177   6.541   4.829
11905TIP3    H135658   0.085   6.545   4.805
11905TIP3    H235659   0.194   6.624   4.874
11906TIP3   OH235660   0.802   1.827   1.239
11906TIP3    H135661   0.858   1.852   1.312
11906TIP3    H235662   0.719   1.803   1.279
11907TIP3   OH235663   6.641   7.728   4.468
11907TIP3    H135664   6.620   7.780   4.546
11907TIP3    H235665   6.584   7.762   4.400
11908TIP3   OH235666   4.543   3.141   0.624
11908TIP3    H135667   4.595   3.216   0.596
11908TIP3    H235668   4.606   3.082   0.665
11909TIP3   OH235669   3.258   5.952   1.188
11909TIP3    H135670   3.325   5.885   1.176
11909TIP3    H235671   3.177   5.912   1.156
11910TIP3   OH235672   6.094   1.989   4.450
11910TIP3    H135673   6.022   2.005   4.388
11910TIP3    H235674   6.112   1.895   4.442
11911TIP3   OH235675   4.128   6.976   6.175
11911TIP3    H135676   4.069   6.987   6.249
11911TIP3    H235677   4.197   6.917   6.208
11912TIP3   OH235678   0.788   5.753   2.943
11912TIP3    H135679   0.834   5.837   2.938
11912TIP3    H235680   0.859   5.688   2.948
11913TIP3   OH235681   4.941   2.346   2.817
11913TIP3    H135682   4.976   2.397   2.890
11913TIP3    H235683   4.873   2.401   2.779
11914TIP3   OH235684   6.786   0.453   1.214
11914TIP3    H135685   6.699   0.489   1.198
11914TIP3    H235686   6.840   0.529   1.236
11915TIP3   OH235687   4.494   3.407   4.015
11915TIP3    H135688   4.559   3.384   4.082
11915TIP3    H235689   4.415   3.360   4.041
11916TIP3   OH235690   0.273   0.509   3.816
11916TIP3    H135691   0.189   0.482   3.779
11916TIP3    H235692   0.336   0.493   3.747
11917TIP3   OH235693   0.231   3.200   6.454
11917TIP3    H135694   0.171   3.132   6.486
11917TIP3    H235695   0.178   3.253   6.395
11918TIP3   OH235696   4.786   1.400   2.412
11918TIP3    H135697   4.799   1.463   2.483
11918TIP3    H235698   4.691   1.401   2.396
11919TIP3   OH235699   5.055   3.043   3.295
11919TIP3    H135700   5.020   3.023   3.382
11919TIP3    H235701   4.992   3.104   3.257
11920TIP3   OH235702   7.014   1.665   3.633
11920TIP3    H135703   6.970   1.603   3.692
11920TIP3    H235704   7.045   1.735   3.691
11921TIP3   OH235705   2.631   4.040   3.281
11921TIP3    H135706   2.660   4.128   3.307
11921TIP3    H235707   2.540   4.051   3.254
11922TIP3   OH235708   1.853   5.185   6.578
11922TIP3    H135709   1.853   5.090   6.572
11922TIP3    H235710   1.843   5.215   6.487
11923TIP3   OH235711   7.124   6.277   4.913
11923TIP3    H135712   7.179   6.245   4.984
11923TIP3    H235713   7.165   6.359   4.886
11924TIP3   OH235714   4.676   6.163   1.254
11924TIP3    H135715   4.738   6.213   1.201
11924TIP3    H235716   4.709   6.073   1.252
11925TIP3   OH235717   0.135   1.751   2.093
11925TIP3    H135718   0.144   1.809   2.018
11925TIP3    H235719   0.111   1.666   2.055
11926TIP3   OH235720   1.947   2.302   3.354
11926TIP3    H135721   1.971   2.291   3.262
11926TIP3    H235722   1.907   2.389   3.358
11927TIP3   OH235723   5.849   3.146   6.052
11927TIP3    H135724   5.859   3.240   6.063
11927TIP3    H235725   5.857   3.131   5.958
11928TIP3   OH235726   3.155   4.777   1.071
11928TIP3    H135727   3.190   4.702   1.022
11928TIP3    H235728   3.231   4.812   1.118
11929TIP3   OH235729   8.077   6.990   5.193
11929TIP3    H135730   8.020   6.971   5.268
11929TIP3    H235731   8.017   7.023   5.126
11930TIP3   OH235732   7.372   5.592   5.520
11930TIP3    H135733   7.442   5.611   5.583
11930TIP3    H235734   7.351   5.677   5.481
11931TIP3   OH235735   4.133   5.379   2.585
11931TIP3    H135736   4.074   5.423   2.525
11931TIP3    H235737   4.081   5.365   2.664
11932TIP3   OH235738   6.748   7.674   6.508
11932TIP3    H135739   6.812   7.604   6.517
11932TIP3    H235740   6.735   7.683   6.413
11933TIP3   OH235741   1.305   5.602   3.611
11933TIP3    H135742   1.250   5.523   3.618
11933TIP3    H235743   1.283   5.653   3.688
11934TIP3   OH235744   0.503   0.635   4.081
11934TIP3    H135745   0.558   0.564   4.048
11934TIP3    H235746   0.550   0.669   4.157
11935TIP3   OH235747   4.748   0.479   3.006
11935TIP3    H135748   4.819   0.533   2.970
11935TIP3    H235749   4.689   0.465   2.932
11936TIP3   OH235750   0.929   7.068   2.856
11936TIP3    H135751   0.870   7.126   2.903
11936TIP3    H235752   0.881   6.985   2.850
11937TIP3   OH235753   8.155   1.373   2.314
11937TIP3    H135754   8.084   1.417   2.360
11937TIP3    H235755   8.176   1.431   2.241
11938TIP3   OH235756   7.423   0.813   5.970
11938TIP3    H135757   7.382   0.834   5.886
11938TIP3    H235758   7.512   0.786   5.948
11939TIP3   OH235759   5.745   3.687   6.095
11939TIP3    H135760   5.742   3.647   6.008
11939TIP3    H235761   5.725   3.780   6.079
11940TIP3   OH235762   6.155   5.207   5.468
11940TIP3    H135763   6.193   5.260   5.538
11940TIP3    H235764   6.084   5.158   5.511
11941TIP3   OH235765   2.987   6.836   4.254
11941TIP3    H135766   2.900   6.848   4.291
11941TIP3    H235767   2.981   6.872   4.165
11942TIP3   OH235768   3.005   7.044   1.354
11942TIP3    H135769   3.013   7.134   1.385
11942TIP3    H235770   3.078   7.032   1.293
11943TIP3   OH235771   6.222   2.584   5.431
11943TIP3    H135772   6.243   2.491   5.425
11943TIP3    H235773   6.282   2.618   5.497
11944TIP3   OH235774   5.954   6.035   1.448
11944TIP3    H135775   5.897   5.989   1.386
11944TIP3    H235776   6.041   5.996   1.433
11945TIP3   OH235777   3.701   6.191   6.215
11945TIP3    H135778   3.793   6.170   6.200
11945TIP3    H235779   3.701   6.240   6.297
11946TIP3   OH235780   4.248   4.431   3.623
11946TIP3    H135781   4.231   4.518   3.587
11946TIP3    H235782   4.187   4.424   3.697
11947TIP3   OH235783   0.502   4.441   5.701
11947TIP3    H135784   0.459   4.494   5.633
11947TIP3    H235785   0.449   4.457   5.780
11948TIP3   OH235786   1.541   5.120   3.445
11948TIP3    H135787   1.581   5.189   3.392
11948TIP3    H235788   1.553   5.148   3.535
11949TIP3   OH235789   3.807   1.816   3.079
11949TIP3    H135790   3.864   1.746   3.048
11949TIP3    H235791   3.742   1.772   3.134
11950TIP3   OH235792   4.128   2.635   2.083
11950TIP3    H135793   4.139   2.581   2.161
11950TIP3    H235794   4.201   2.696   2.086
11951TIP3   OH235795   6.614   0.412   5.016
11951TIP3    H135796   6.533   0.425   5.065
11951TIP3    H235797   6.593   0.340   4.955
11952TIP3   OH235798   2.016   6.188   3.171
11952TIP3    H135799   1.922   6.186   3.190
11952TIP3    H235800   2.024   6.144   3.086
11953TIP3   OH235801   1.353   2.260   3.055
11953TIP3    H135802   1.395   2.175   3.060
11953TIP3    H235803   1.304   2.258   2.972
11954TIP3   OH235804   8.325   2.499   3.476
11954TIP3    H135805   8.268   2.575   3.488
11954TIP3    H235806   8.307   2.469   3.387
11955TIP3   OH235807   5.883   1.050   5.783
11955TIP3    H135808   5.885   0.962   5.746
11955TIP3    H235809   5.973   1.082   5.772
11956TIP3   OH235810   8.275   4.828   4.302
11956TIP3    H135811   8.287   4.872   4.386
11956TIP3    H235812   8.182   4.805   4.301
11957TIP3   OH235813   2.149   7.682   2.290
11957TIP3    H135814   2.104   7.603   2.263
11957TIP3    H235815   2.189   7.715   2.210
11958TIP3   OH235816   3.127   0.802   4.394
11958TIP3    H135817   3.204   0.809   4.338
11958TIP3    H235818   3.149   0.853   4.472
11959TIP3   OH235819   3.975   3.901   6.062
11959TIP3    H135820   3.995   3.908   6.155
11959TIP3    H235821   3.920   3.977   6.044
11960TIP3   OH235822   7.191   0.290   4.565
11960TIP3    H135823   7.127   0.263   4.499
11960TIP3    H235824   7.227   0.207   4.598
11961TIP3   OH235825   5.570   6.785   1.048
11961TIP3    H135826   5.632   6.728   1.003
11961TIP3    H235827   5.602   6.788   1.138
11962TIP3   OH235828   6.015   2.673   5.286
11962TIP3    H135829   6.049   2.657   5.197
11962TIP3    H235830   6.092   2.667   5.342
11963TIP3   OH235831   3.484   3.695   6.198
11963TIP3    H135832   3.417   3.756   6.231
11963TIP3    H235833   3.567   3.737   6.221
11964TIP3   OH235834   5.026   0.100   4.776
11964TIP3    H135835   5.071   0.156   4.713
11964TIP3    H235836   4.933   0.123   4.766
11965TIP3   OH235837   8.122   4.717   3.873
11965TIP3    H135838   8.030   4.694   3.886
11965TIP3    H235839   8.136   4.793   3.929
11966TIP3   OH235840   0.809   1.124   2.225
11966TIP3    H135841   0.795   1.044   2.275
11966TIP3    H235842   0.848   1.184   2.288
11967TIP3   OH235843   2.170   4.362   6.234
11967TIP3    H135844   2.157   4.351   6.140
11967TIP3    H235845   2.168   4.457   6.248
11968TIP3   OH235846   2.812   5.057   3.956
11968TIP3    H135847   2.762   5.078   3.878
11968TIP3    H235848   2.889   5.114   3.952
11969TIP3   OH235849   4.272   4.908   2.943
11969TIP3    H135850   4.190   4.934   2.985
11969TIP3    H235851   4.263   4.934   2.852
11970TIP3   OH235852   2.323   5.043   2.965
11970TIP3    H135853   2.277   4.962   2.945
11970TIP3    H235854   2.259   5.113   2.949
11971TIP3   OH235855   6.687   5.353   5.282
11971TIP3    H135856   6.761   5.344   5.221
11971TIP3    H235857   6.622   5.292   5.249
11972TIP3   OH235858   5.238   0.284   5.580
11972TIP3    H135859   5.154   0.291   5.625
11972TIP3    H235860   5.273   0.373   5.580
11973TIP3   OH235861   2.078   4.174   3.624
11973TIP3    H135862   2.094   4.210   3.537
11973TIP3    H235863   2.104   4.082   3.618
11974TIP3   OH235864   3.357   6.059   5.451
11974TIP3    H135865   3.297   5.999   5.495
11974TIP3    H235866   3.348   6.038   5.358
11975TIP3   OH235867   5.733   7.651   0.274
11975TIP3    H135868   5.816   7.610   0.300
11975TIP3    H235869   5.755   7.702   0.196
11976TIP3   OH235870   1.123   5.559   1.900
11976TIP3    H135871   1.137   5.652   1.916
11976TIP3    H235872   1.200   5.532   1.850
11977TIP3   OH235873   4.160   3.002   2.839
11977TIP3    H135874   4.179   3.077   2.783
11977TIP3    H235875   4.135   2.932   2.779
11978TIP3   OH235876   7.078   2.301   1.349
11978TIP3    H135877   7.063   2.380   1.401
11978TIP3    H235878   7.166   2.273   1.374
11979TIP3   OH235879   0.956   2.715   2.835
11979TIP3    H135880   0.960   2.750   2.924
11979TIP3    H235881   0.934   2.623   2.847
11980TIP3   OH235882   1.683   3.949   3.350
11980TIP3    H135883   1.726   4.026   3.386
11980TIP3    H235884   1.672   3.969   3.257
11981TIP3   OH235885   2.668   4.219   1.756
11981TIP3    H135886   2.577   4.247   1.745
11981TIP3    H235887   2.705   4.284   1.816
11982TIP3   OH235888   7.698   0.614   0.579
11982TIP3    H135889   7.695   0.698   0.625
11982TIP3    H235890   7.764   0.563   0.626
11983TIP3   OH235891   3.554   2.216   5.246
11983TIP3    H135892   3.640   2.195   5.282
11983TIP3    H235893   3.533   2.143   5.188
11984TIP3   OH235894   2.907   6.496   2.074
11984TIP3    H135895   2.913   6.406   2.044
11984TIP3    H235896   2.922   6.492   2.169
11985TIP3   OH235897   3.298   2.896   2.766
11985TIP3    H135898   3.304   2.803   2.744
11985TIP3    H235899   3.376   2.914   2.818
11986TIP3   OH235900   0.233   5.980   6.044
11986TIP3    H135901   0.158   5.945   5.995
11986TIP3    H235902   0.201   6.063   6.078
11987TIP3   OH235903   1.643   2.276   2.599
11987TIP3    H135904   1.725   2.318   2.623
11987TIP3    H235905   1.645   2.191   2.643
11988TIP3   OH235906   2.220   0.118   4.263
11988TIP3    H135907   2.126   0.104   4.276
11988TIP3    H235908   2.259   0.097   4.348
11989TIP3   OH235909   2.082   7.625   5.926
11989TIP3    H135910   2.156   7.676   5.892
11989TIP3    H235911   2.061   7.667   6.010
11990TIP3   OH235912   4.107   0.208   4.637
11990TIP3    H135913   4.023   0.218   4.592
11990TIP3    H235914   4.138   0.121   4.611
11991TIP3   OH235915   2.324   6.164   2.863
11991TIP3    H135916   2.358   6.231   2.922
11991TIP3    H235917   2.275   6.104   2.920
11992TIP3   OH235918   2.513   7.508   2.871
11992TIP3    H135919   2.559   7.430   2.839
11992TIP3    H235920   2.454   7.532   2.799
11993TIP3   OH235921   7.666   2.490   1.446
11993TIP3    H135922   7.721   2.497   1.368
11993TIP3    H235923   7.583   2.454   1.415
11994TIP3   OH235924   0.965   3.195   0.833
11994TIP3    H135925   0.960   3.145   0.751
11994TIP3    H235926   1.014   3.274   0.810
11995TIP3   OH235927   3.065   6.923   2.365
11995TIP3    H135928   3.076   6.906   2.458
11995TIP3    H235929   3.108   7.008   2.351
11996TIP3   OH235930   1.411   4.072   0.110
11996TIP3    H135931   1.330   4.117   0.086
11996TIP3    H235932   1.384   3.982   0.131
11997TIP3   OH235933   0.403   0.300   0.204
11997TIP3    H135934   0.401   0.370   0.270
11997TIP3    H235935   0.312   0.271   0.197
11998TIP3   OH235936   2.284   5.740   5.604
11998TIP3    H135937   2.208   5.683   5.615
11998TIP3    H235938   2.354   5.696   5.653
11999TIP3   OH235939   6.185   7.274   0.343
11999TIP3    H135940   6.192   7.242   0.254
11999TIP3    H235941   6.233   7.357   0.343
12000TIP3   OH235942   0.367   1.563   3.995
12000TIP3    H135943   0.274   1.573   4.019
12000TIP3    H235944   0.395   1.651   3.973
12001TIP3   OH235945   8.138   5.712   3.846
12001TIP3    H135946   8.097   5.685   3.929
12001TIP3    H235947   8.232   5.714   3.865
12002TIP3   OH235948   4.485   4.285   6.671
12002TIP3    H135949   4.564   4.272   6.722
12002TIP3    H235950   4.479   4.209   6.613
12003TIP3   OH235951   0.071   7.382   5.370
12003TIP3    H135952   0.057   7.295   5.333
12003TIP3    H235953   0.098   7.436   5.295
12004TIP3   OH235954   5.892   1.838   4.033
12004TIP3    H135955   5.929   1.926   4.037
12004TIP3    H235956   5.931   1.799   3.955
12005TIP3   OH235957   2.646   1.218   3.906
12005TIP3    H135958   2.739   1.202   3.891
12005TIP3    H235959   2.617   1.142   3.958
12006TIP3   OH235960   1.656   4.434   2.574
12006TIP3    H135961   1.588   4.488   2.534
12006TIP3    H235962   1.610   4.379   2.638
12007TIP3   OH235963   2.063   1.013   4.442
12007TIP3    H135964   1.970   1.027   4.426
12007TIP3    H235965   2.069   0.921   4.466
12008TIP3   OH235966   6.451   5.463   5.161
12008TIP3    H135967   6.523   5.514   5.125
12008TIP3    H235968   6.482   5.434   5.247
12009TIP3   OH235969   3.517   1.731   5.884
12009TIP3    H135970   3.576   1.782   5.940
12009TIP3    H235971   3.560   1.645   5.877
12010TIP3   OH235972   0.983   2.522   0.005
12010TIP3    H135973   0.984   2.469   0.085
12010TIP3    H235974   0.992   2.458  -0.066
12011TIP3   OH235975   6.522   4.125   2.784
12011TIP3    H135976   6.607   4.085   2.763
12011TIP3    H235977   6.458   4.059   2.757
12012TIP3   OH235978   2.878   5.997   6.476
12012TIP3    H135979   2.855   6.031   6.389
12012TIP3    H235980   2.943   6.058   6.509
12013TIP3   OH235981   6.544   6.317   5.106
12013TIP3    H135982   6.552   6.410   5.084
12013TIP3    H235983   6.494   6.316   5.188
12014TIP3   OH235984   3.601   1.178   4.774
12014TIP3    H135985   3.628   1.256   4.823
12014TIP3    H235986   3.537   1.135   4.831
12015TIP3   OH235987   2.864   5.615   5.189
12015TIP3    H135988   2.793   5.660   5.142
12015TIP3    H235989   2.854   5.643   5.280
12016TIP3   OH235990   6.640   0.871   3.453
12016TIP3    H135991   6.653   0.935   3.382
12016TIP3    H235992   6.627   0.925   3.531
12017TIP3   OH235993   7.939   1.168   1.355
12017TIP3    H135994   7.873   1.190   1.290
12017TIP3    H235995   7.918   1.079   1.382
12018TIP3   OH235996   3.725   7.381   4.948
12018TIP3    H135997   3.813   7.356   4.922
12018TIP3    H235998   3.689   7.301   4.987
12019TIP3   OH235999   3.551   2.218   0.440
12019TIP3    H136000   3.608   2.215   0.517
12019TIP3    H236001   3.549   2.311   0.416
12020TIP3   OH236002   4.496   4.386   2.413
12020TIP3    H136003   4.581   4.379   2.456
12020TIP3    H236004   4.486   4.479   2.393
12021TIP3   OH236005   5.257   5.963   2.870
12021TIP3    H136006   5.204   5.888   2.843
12021TIP3    H236007   5.194   6.034   2.883
12022TIP3   OH236008   2.870   5.198   0.751
12022TIP3    H136009   2.843   5.285   0.722
12022TIP3    H236010   2.911   5.159   0.675
12023TIP3   OH236011   2.490   4.851   1.596
12023TIP3    H136012   2.467   4.793   1.668
12023TIP3    H236013   2.406   4.875   1.557
12024TIP3   OH236014   7.285   7.415   5.496
12024TIP3    H136015   7.250   7.381   5.578
12024TIP3    H236016   7.335   7.342   5.459
12025TIP3   OH236017   0.193   5.631   5.805
12025TIP3    H136018   0.204   5.721   5.775
12025TIP3    H236019   0.182   5.580   5.725
12026TIP3   OH236020   3.111   4.768   2.021
12026TIP3    H136021   3.194   4.722   2.007
12026TIP3    H236022   3.071   4.772   1.934
12027TIP3   OH236023   4.942   6.460   2.442
12027TIP3    H136024   4.913   6.377   2.403
12027TIP3    H236025   4.957   6.518   2.367
12028TIP3   OH236026   0.144   1.351   0.731
12028TIP3    H136027   0.236   1.336   0.754
12028TIP3    H236028   0.124   1.438   0.766
12029TIP3   OH236029   3.895   7.868   3.535
12029TIP3    H136030   3.989   7.885   3.537
12029TIP3    H236031   3.881   7.799   3.599
12030TIP3   OH236032   4.453   6.930   3.291
12030TIP3    H136033   4.362   6.911   3.315
12030TIP3    H236034   4.478   6.856   3.236
12031TIP3   OH236035   5.752   5.001   0.087
12031TIP3    H136036   5.677   5.009   0.146
12031TIP3    H236037   5.810   4.939   0.130
12032TIP3   OH236038   5.118   4.159   2.554
12032TIP3    H136039   5.070   4.091   2.506
12032TIP3    H236040   5.204   4.162   2.511
12033TIP3   OH236041   7.386   2.224   1.148
12033TIP3    H136042   7.455   2.276   1.106
12033TIP3    H236043   7.399   2.135   1.114
12034TIP3   OH236044   7.038   0.906   1.490
12034TIP3    H136045   7.124   0.870   1.466
12034TIP3    H236046   7.057   0.966   1.563
12035TIP3   OH236047   3.350   0.723   5.421
12035TIP3    H136048   3.429   0.703   5.371
12035TIP3    H236049   3.381   0.742   5.509
12036TIP3   OH236050  -0.032   1.043   4.087
12036TIP3    H136051   0.041   1.099   4.113
12036TIP3    H236052  -0.015   1.023   3.995
12037TIP3   OH236053   5.803   3.734   1.294
12037TIP3    H136054   5.814   3.663   1.357
12037TIP3    H236055   5.796   3.813   1.348
12038TIP3   OH236056   3.205   7.012   1.949
12038TIP3    H136057   3.119   6.976   1.926
12038TIP3    H236058   3.232   6.963   2.027
12039TIP3   OH236059   5.381   0.453   0.477
12039TIP3    H136060   5.319   0.444   0.405
12039TIP3    H236061   5.327   0.483   0.551
12040TIP3   OH236062   0.752   4.418   5.809
12040TIP3    H136063   0.755   4.323   5.811
12040TIP3    H236064   0.666   4.439   5.772
12041TIP3   OH236065   1.703   4.814   4.093
12041TIP3    H136066   1.760   4.826   4.016
12041TIP3    H236067   1.764   4.792   4.163
12042TIP3   OH236068   7.584   1.725   3.008
12042TIP3    H136069   7.495   1.759   2.996
12042TIP3    H236070   7.584   1.690   3.097
12043TIP3   OH236071   7.567   0.652   5.715
12043TIP3    H136072   7.483   0.622   5.749
12043TIP3    H236073   7.591   0.587   5.649
12044TIP3   OH236074   6.398   2.166   0.510
12044TIP3    H136075   6.438   2.217   0.580
12044TIP3    H236076   6.308   2.197   0.507
12045TIP3   OH236077   4.333   1.033   0.528
12045TIP3    H136078   4.372   1.077   0.603
12045TIP3    H236079   4.391   0.959   0.510
12046TIP3   OH236080   0.749   1.284   4.997
12046TIP3    H136081   0.752   1.375   4.967
12046TIP3    H236082   0.810   1.238   4.939
12047TIP3   OH236083   7.761   1.737   2.752
12047TIP3    H136084   7.798   1.719   2.839
12047TIP3    H236085   7.695   1.804   2.768
12048TIP3   OH236086   2.825   7.502   6.700
12048TIP3    H136087   2.779   7.455   6.631
12048TIP3    H236088   2.859   7.434   6.758
12049TIP3   OH236089   2.905   1.734   0.772
12049TIP3    H136090   2.833   1.750   0.833
12049TIP3    H236091   2.954   1.662   0.810
12050TIP3   OH236092   4.247   5.972   5.193
12050TIP3    H136093   4.258   5.925   5.275
12050TIP3    H236094   4.153   5.987   5.186
12051TIP3   OH236095   7.571   7.814   6.722
12051TIP3    H136096   7.487   7.803   6.677
12051TIP3    H236097   7.634   7.824   6.651
12052TIP3   OH236098   2.407   0.273   5.986
12052TIP3    H136099   2.500   0.298   5.993
12052TIP3    H236100   2.360   0.354   6.007
12053TIP3   OH236101   6.282   4.910   6.487
12053TIP3    H136102   6.340   4.834   6.490
12053TIP3    H236103   6.194   4.873   6.480
12054TIP3   OH236104   5.780   1.177   0.146
12054TIP3    H136105   5.730   1.219   0.076
12054TIP3    H236106   5.735   1.202   0.226
12055TIP3   OH236107   1.214   1.489   4.445
12055TIP3    H136108   1.185   1.531   4.526
12055TIP3    H236109   1.304   1.520   4.433
12056TIP3   OH236110   0.444   5.865   1.386
12056TIP3    H136111   0.521   5.919   1.402
12056TIP3    H236112   0.478   5.787   1.342
12057TIP3   OH236113   0.995   6.448   6.593
12057TIP3    H136114   1.014   6.527   6.542
12057TIP3    H236115   0.912   6.416   6.557
12058TIP3   OH236116   6.028   5.961   2.835
12058TIP3    H136117   5.944   5.923   2.857
12058TIP3    H236118   6.009   6.053   2.815
12059TIP3   OH236119   7.725   4.746   6.194
12059TIP3    H136120   7.809   4.750   6.240
12059TIP3    H236121   7.705   4.837   6.171
12060TIP3   OH236122   1.973   0.181   2.507
12060TIP3    H136123   2.022   0.133   2.440
12060TIP3    H236124   2.040   0.212   2.568
12061TIP3   OH236125   5.023   4.299   4.525
12061TIP3    H136126   4.993   4.292   4.615
12061TIP3    H236127   5.034   4.393   4.511
12062TIP3   OH236128   6.979   0.048   3.245
12062TIP3    H136129   7.048  -0.017   3.236
12062TIP3    H236130   6.966   0.057   3.340
12063TIP3   OH236131   5.026   2.401   2.086
12063TIP3    H136132   5.017   2.306   2.084
12063TIP3    H236133   5.114   2.416   2.121
12064TIP3   OH236134   7.891   5.496   1.928
12064TIP3    H136135   7.828   5.443   1.880
12064TIP3    H236136   7.872   5.586   1.902
12065TIP3   OH236137   5.815   2.289   2.282
12065TIP3    H136138   5.772   2.352   2.224
12065TIP3    H236139   5.898   2.332   2.306
12066TIP3   OH236140   2.347   1.530   6.076
12066TIP3    H136141   2.400   1.455   6.048
12066TIP3    H236142   2.411   1.602   6.084
12067TIP3   OH236143   4.343   5.957   0.562
12067TIP3    H136144   4.287   5.974   0.637
12067TIP3    H236145   4.414   6.020   0.570
12068TIP3   OH236146   7.999   7.217   3.122
12068TIP3    H136147   7.943   7.145   3.094
12068TIP3    H236148   7.939   7.289   3.140
12069TIP3   OH236149   6.805   2.187   4.789
12069TIP3    H136150   6.846   2.129   4.854
12069TIP3    H236151   6.781   2.265   4.839
12070TIP3   OH236152   6.774   6.819   1.288
12070TIP3    H136153   6.769   6.897   1.345
12070TIP3    H236154   6.752   6.852   1.201
12071TIP3   OH236155   0.729   3.647   1.311
12071TIP3    H136156   0.799   3.675   1.370
12071TIP3    H236157   0.685   3.576   1.358
12072TIP3   OH236158   6.894   2.081   5.066
12072TIP3    H136159   6.820   2.135   5.094
12072TIP3    H236160   6.942   2.063   5.147
12073TIP3   OH236161   4.421   3.516   1.509
12073TIP3    H136162   4.393   3.475   1.428
12073TIP3    H236163   4.357   3.586   1.524
12074TIP3   OH236164   4.501   1.149   0.949
12074TIP3    H136165   4.529   1.122   0.862
12074TIP3    H236166   4.406   1.161   0.941
12075TIP3   OH236167   1.902   3.939   4.994
12075TIP3    H136168   1.889   3.867   4.933
12075TIP3    H236169   1.855   3.912   5.073
12076TIP3   OH236170   7.830   5.328   4.093
12076TIP3    H136171   7.770   5.329   4.167
12076TIP3    H236172   7.774   5.328   4.016
12077TIP3   OH236173   2.404   2.399   0.764
12077TIP3    H136174   2.385   2.305   0.761
12077TIP3    H236175   2.479   2.407   0.823
12078TIP3   OH236176   3.743   2.234   1.269
12078TIP3    H136177   3.739   2.147   1.310
12078TIP3    H236178   3.653   2.266   1.272
12079TIP3   OH236179   3.242   6.354   2.198
12079TIP3    H136180   3.192   6.281   2.161
12079TIP3    H236181   3.236   6.341   2.293
12080TIP3   OH236182   3.421   5.973   3.407
12080TIP3    H136183   3.484   5.936   3.469
12080TIP3    H236184   3.392   6.055   3.449
12081TIP3   OH236185   1.729   1.519   1.567
12081TIP3    H136186   1.777   1.593   1.530
12081TIP3    H236187   1.684   1.479   1.492
12082TIP3   OH236188   3.621   5.886   3.614
12082TIP3    H136189   3.706   5.901   3.657
12082TIP3    H236190   3.608   5.792   3.620
12083TIP3   OH236191   5.379   5.726   6.132
12083TIP3    H136192   5.390   5.821   6.141
12083TIP3    H236193   5.467   5.691   6.144
12084TIP3   OH236194   6.148   2.283   0.300
12084TIP3    H136195   6.184   2.202   0.264
12084TIP3    H236196   6.102   2.324   0.227
12085TIP3   OH236197   2.982   7.000   3.703
12085TIP3    H136198   2.975   6.906   3.688
12085TIP3    H236199   2.896   7.025   3.737
12086TIP3   OH236200   1.025   0.958   3.950
12086TIP3    H136201   0.996   1.035   3.998
12086TIP3    H236202   1.102   0.987   3.902
12087TIP3   OH236203   3.736   2.340   3.366
12087TIP3    H136204   3.686   2.399   3.423
12087TIP3    H236205   3.689   2.341   3.283
12088TIP3   OH236206   1.715   4.665   5.087
12088TIP3    H136207   1.730   4.637   4.997
12088TIP3    H236208   1.796   4.710   5.112
12089TIP3   OH236209   3.361   1.199   2.574
12089TIP3    H136210   3.405   1.119   2.602
12089TIP3    H236211   3.366   1.257   2.650
12090TIP3   OH236212   4.831   2.096   4.115
12090TIP3    H136213   4.740   2.109   4.141
12090TIP3    H236214   4.840   2.001   4.108
12091TIP3   OH236215   6.815   5.267   2.926
12091TIP3    H136216   6.901   5.233   2.952
12091TIP3    H236217   6.763   5.188   2.908
12092TIP3   OH236218   2.346   0.584   4.331
12092TIP3    H136219   2.381   0.669   4.302
12092TIP3    H236220   2.299   0.550   4.255
12093TIP3   OH236221   4.723   2.571   0.863
12093TIP3    H136222   4.694   2.658   0.835
12093TIP3    H236223   4.673   2.511   0.807
12094TIP3   OH236224   3.582   6.811   2.012
12094TIP3    H136225   3.560   6.898   1.981
12094TIP3    H236226   3.644   6.777   1.948
12095TIP3   OH236227   7.100   3.635   0.632
12095TIP3    H136228   7.007   3.659   0.627
12095TIP3    H236229   7.126   3.624   0.540
12096TIP3   OH236230   6.327   1.353   4.895
12096TIP3    H136231   6.362   1.441   4.904
12096TIP3    H236232   6.282   1.353   4.811
12097TIP3   OH236233   2.465   4.722   4.236
12097TIP3    H136234   2.399   4.736   4.303
12097TIP3    H236235   2.542   4.771   4.267
12098TIP3   OH236236   5.108   0.155   1.642
12098TIP3    H136237   5.056   0.223   1.686
12098TIP3    H236238   5.145   0.198   1.566
12099TIP3   OH236239   7.845   4.294   2.466
12099TIP3    H136240   7.932   4.310   2.429
12099TIP3    H236241   7.860   4.230   2.535
12100TIP3   OH236242   1.312   4.611   2.176
12100TIP3    H136243   1.258   4.650   2.107
12100TIP3    H236244   1.283   4.520   2.180
12101TIP3   OH236245   1.403   2.812   6.598
12101TIP3    H136246   1.428   2.826   6.689
12101TIP3    H236247   1.423   2.719   6.582
12102TIP3   OH236248   5.112   4.801   6.449
12102TIP3    H136249   5.102   4.767   6.360
12102TIP3    H236250   5.024   4.829   6.474
12103TIP3   OH236251   6.129   6.634   5.870
12103TIP3    H136252   6.138   6.542   5.845
12103TIP3    H236253   6.149   6.636   5.964
12104TIP3   OH236254   6.513   0.067   6.656
12104TIP3    H136255   6.537   0.117   6.578
12104TIP3    H236256   6.492  -0.020   6.623
12105TIP3   OH236257   7.166   1.441   5.299
12105TIP3    H136258   7.126   1.376   5.241
12105TIP3    H236259   7.095   1.471   5.355
12106TIP3   OH236260   5.335   3.449   2.920
12106TIP3    H136261   5.356   3.447   2.827
12106TIP3    H236262   5.341   3.542   2.944
12107TIP3   OH236263   3.786   2.844   6.124
12107TIP3    H136264   3.720   2.838   6.055
12107TIP3    H236265   3.861   2.797   6.089
12108TIP3   OH236266   1.149   5.641   2.276
12108TIP3    H136267   1.082   5.639   2.208
12108TIP3    H236268   1.134   5.723   2.322
12109TIP3   OH236269   5.051   6.326   1.833
12109TIP3    H136270   5.059   6.417   1.805
12109TIP3    H236271   5.094   6.323   1.918
12110TIP3   OH236272   3.420   4.476   0.425
12110TIP3    H136273   3.367   4.555   0.419
12110TIP3    H236274   3.358   4.404   0.412
12111TIP3   OH236275   4.655   5.536   2.064
12111TIP3    H136276   4.583   5.511   2.005
12111TIP3    H236277   4.612   5.551   2.148
12112TIP3   OH236278   5.098   2.683   1.221
12112TIP3    H136279   5.044   2.628   1.279
12112TIP3    H236280   5.075   2.654   1.133
12113TIP3   OH236281   2.910   2.955   4.886
12113TIP3    H136282   3.001   2.946   4.914
12113TIP3    H236283   2.864   2.989   4.963
12114TIP3   OH236284   0.412   6.685   3.725
12114TIP3    H136285   0.484   6.650   3.672
12114TIP3    H236286   0.439   6.670   3.816
12115TIP3   OH236287   7.205   5.113   5.782
12115TIP3    H136288   7.266   5.159   5.723
12115TIP3    H236289   7.224   5.020   5.768
12116TIP3   OH236290   8.160   0.664   1.883
12116TIP3    H136291   8.197   0.743   1.922
12116TIP3    H236292   8.213   0.649   1.805
12117TIP3   OH236293   3.309   4.706   5.290
12117TIP3    H136294   3.223   4.672   5.267
12117TIP3    H236295   3.316   4.788   5.243
12118TIP3   OH236296   7.222   5.464   0.754
12118TIP3    H136297   7.151   5.513   0.713
12118TIP3    H236298   7.294   5.528   0.760
12119TIP3   OH236299   1.189   1.675   3.823
12119TIP3    H136300   1.178   1.581   3.840
12119TIP3    H236301   1.159   1.687   3.734
12120TIP3   OH236302   5.133   2.444   5.970
12120TIP3    H136303   5.187   2.510   5.926
12120TIP3    H236304   5.165   2.360   5.937
12121TIP3   OH236305   0.348   6.108   4.852
12121TIP3    H136306   0.409   6.063   4.794
12121TIP3    H236307   0.393   6.189   4.876
12122TIP3   OH236308   8.131   5.564   1.142
12122TIP3    H136309   8.164   5.481   1.175
12122TIP3    H236310   8.179   5.631   1.191
12123TIP3   OH236311   6.282   4.876   1.564
12123TIP3    H136312   6.267   4.966   1.535
12123TIP3    H236313   6.364   4.850   1.521
12124TIP3   OH236314   4.389   1.824   5.619
12124TIP3    H136315   4.370   1.824   5.525
12124TIP3    H236316   4.374   1.734   5.647
12125TIP3   OH236317   1.237   4.371   3.270
12125TIP3    H136318   1.185   4.294   3.247
12125TIP3    H236319   1.328   4.343   3.261
12126TIP3   OH236320   6.883   7.518   4.170
12126TIP3    H136321   6.787   7.514   4.167
12126TIP3    H236322   6.902   7.576   4.243
12127TIP3   OH236323   3.967   5.743   6.390
12127TIP3    H136324   3.932   5.662   6.427
12127TIP3    H236325   3.918   5.812   6.435
12128TIP3   OH236326   3.429   6.617   2.266
12128TIP3    H136327   3.417   6.523   2.279
12128TIP3    H236328   3.497   6.642   2.328
12129TIP3   OH236329   5.182   4.941   3.368
12129TIP3    H136330   5.190   4.846   3.359
12129TIP3    H236331   5.270   4.974   3.351
12130TIP3   OH236332   3.175   2.227   0.861
12130TIP3    H136333   3.156   2.316   0.890
12130TIP3    H236334   3.132   2.170   0.925
12131TIP3   OH236335   2.846   4.243   0.337
12131TIP3    H136336   2.761   4.201   0.349
12131TIP3    H236337   2.900   4.207   0.407
12132TIP3   OH236338   1.149   5.890   1.328
12132TIP3    H136339   1.120   5.964   1.381
12132TIP3    H236340   1.077   5.827   1.334
12133TIP3   OH236341   2.519   0.250   4.103
12133TIP3    H136342   2.584   0.279   4.167
12133TIP3    H236343   2.467   0.329   4.085
12134TIP3   OH236344   7.769   3.450   3.381
12134TIP3    H136345   7.837   3.384   3.371
12134TIP3    H236346   7.703   3.428   3.314
12135TIP3   OH236347   0.304   3.067   2.275
12135TIP3    H136348   0.238   3.095   2.211
12135TIP3    H236349   0.270   2.984   2.310
12136TIP3   OH236350   6.831   2.157   0.329
12136TIP3    H136351   6.826   2.238   0.279
12136TIP3    H236352   6.766   2.100   0.288
12137TIP3   OH236353   4.846   4.241   1.429
12137TIP3    H136354   4.871   4.334   1.422
12137TIP3    H236355   4.771   4.232   1.370
12138TIP3   OH236356   1.400   5.475   2.898
12138TIP3    H136357   1.478   5.424   2.878
12138TIP3    H236358   1.422   5.520   2.980
12139TIP3   OH236359   3.309   4.088   1.105
12139TIP3    H136360   3.255   4.164   1.128
12139TIP3    H236361   3.281   4.019   1.165
12140TIP3   OH236362   3.925   2.512   1.001
12140TIP3    H136363   4.014   2.493   0.969
12140TIP3    H236364   3.902   2.595   0.960
12141TIP3   OH236365   6.582   5.093   4.180
12141TIP3    H136366   6.545   5.038   4.249
12141TIP3    H236367   6.587   5.036   4.103
12142TIP3   OH236368   3.861   0.301   5.045
12142TIP3    H136369   3.878   0.313   5.138
12142TIP3    H236370   3.928   0.240   5.016
12143TIP3   OH236371   8.033   3.772   3.225
12143TIP3    H136372   7.947   3.742   3.194
12143TIP3    H236373   8.089   3.768   3.147
12144TIP3   OH236374   3.856   1.642   1.750
12144TIP3    H136375   3.813   1.711   1.700
12144TIP3    H236376   3.839   1.664   1.842
12145TIP3   OH236377   2.728   7.183   1.229
12145TIP3    H136378   2.696   7.266   1.262
12145TIP3    H236379   2.806   7.164   1.281
12146TIP3   OH236380   0.078   3.703   5.991
12146TIP3    H136381   0.006   3.715   5.929
12146TIP3    H236382   0.101   3.792   6.019
12147TIP3   OH236383   6.587   4.475   6.400
12147TIP3    H136384   6.539   4.534   6.457
12147TIP3    H236385   6.536   4.472   6.319
12148TIP3   OH236386   6.859   3.346   6.182
12148TIP3    H136387   6.790   3.282   6.200
12148TIP3    H236388   6.836   3.423   6.233
12149TIP3   OH236389   6.086   1.163   0.007
12149TIP3    H136390   6.053   1.098   0.069
12149TIP3    H236391   6.019   1.230   0.004
12150TIP3   OH236392   5.962   6.847   5.799
12150TIP3    H136393   6.029   6.782   5.819
12150TIP3    H236394   5.989   6.884   5.715
12151TIP3   OH236395   1.164   4.849   1.539
12151TIP3    H136396   1.115   4.908   1.595
12151TIP3    H236397   1.097   4.798   1.494
12152TIP3   OH236398   7.071   2.825   4.248
12152TIP3    H136399   6.977   2.842   4.261
12152TIP3    H236400   7.073   2.744   4.197
12153TIP3   OH236401   1.605   0.854   0.106
12153TIP3    H136402   1.572   0.921   0.047
12153TIP3    H236403   1.610   0.896   0.191
12154TIP3   OH236404   7.241   1.120   0.190
12154TIP3    H136405   7.277   1.190   0.135
12154TIP3    H236406   7.166   1.161   0.233
12155TIP3   OH236407   6.092   3.335   2.551
12155TIP3    H136408   6.130   3.421   2.538
12155TIP3    H236409   6.050   3.340   2.638
12156TIP3   OH236410   3.635   7.409   6.124
12156TIP3    H136411   3.667   7.338   6.069
12156TIP3    H236412   3.541   7.394   6.131
12157TIP3   OH236413   8.099  -0.016   5.711
12157TIP3    H136414   8.037   0.051   5.741
12157TIP3    H236415   8.185   0.023   5.726
12158TIP3   OH236416   6.912   4.361   2.487
12158TIP3    H136417   6.858   4.283   2.475
12158TIP3    H236418   6.886   4.420   2.416
12159TIP3   OH236419   5.052   2.330   0.489
12159TIP3    H136420   5.095   2.282   0.418
12159TIP3    H236421   5.099   2.413   0.494
12160TIP3   OH236422   7.785   1.975   3.102
12160TIP3    H136423   7.780   1.881   3.118
12160TIP3    H236424   7.864   2.003   3.147
12161TIP3   OH236425   0.132   7.722   6.648
12161TIP3    H136426   0.177   7.645   6.682
12161TIP3    H236427   0.040   7.708   6.670
12162TIP3   OH236428   5.431   6.870   0.017
12162TIP3    H136429   5.514   6.893   0.060
12162TIP3    H236430   5.422   6.776   0.030
12163TIP3   OH236431   2.058   0.712   3.550
12163TIP3    H136432   2.101   0.628   3.531
12163TIP3    H236433   2.052   0.755   3.465
12164TIP3   OH236434   6.127   6.345   2.333
12164TIP3    H136435   6.128   6.272   2.395
12164TIP3    H236436   6.172   6.311   2.256
12165TIP3   OH236437   5.656   6.754   5.227
12165TIP3    H136438   5.613   6.684   5.178
12165TIP3    H236439   5.746   6.723   5.240
12166TIP3   OH236440   8.291   7.001   2.461
12166TIP3    H136441   8.243   7.061   2.404
12166TIP3    H236442   8.237   6.994   2.539
12167TIP3   OH236443   4.685   7.067   3.956
12167TIP3    H136444   4.690   7.141   4.017
12167TIP3    H236445   4.771   7.063   3.916
12168TIP3   OH236446   0.262   5.718   4.356
12168TIP3    H136447   0.270   5.640   4.410
12168TIP3    H236448   0.190   5.767   4.394
12169TIP3   OH236449   3.022   7.470   3.446
12169TIP3    H136450   3.040   7.540   3.509
12169TIP3    H236451   3.107   7.430   3.429
12170TIP3   OH236452   7.447   7.442   5.978
12170TIP3    H136453   7.392   7.368   6.005
12170TIP3    H236454   7.449   7.500   6.054
12171TIP3   OH236455   4.459   6.840   2.120
12171TIP3    H136456   4.480   6.812   2.209
12171TIP3    H236457   4.540   6.827   2.071
12172TIP3   OH236458   2.034   3.152   4.922
12172TIP3    H136459   2.096   3.091   4.880
12172TIP3    H236460   1.948   3.122   4.893
12173TIP3   OH236461   1.405   2.180   2.401
12173TIP3    H136462   1.436   2.091   2.414
12173TIP3    H236463   1.406   2.219   2.489
12174TIP3   OH236464   6.993   1.160   3.145
12174TIP3    H136465   7.040   1.221   3.088
12174TIP3    H236466   6.903   1.160   3.112
12175TIP3   OH236467   0.382   0.196   1.516
12175TIP3    H136468   0.320   0.217   1.445
12175TIP3    H236469   0.352   0.112   1.550
12176TIP3   OH236470   1.714   2.483   6.208
12176TIP3    H136471   1.702   2.407   6.265
12176TIP3    H236472   1.742   2.553   6.266
12177TIP3   OH236473   0.737   4.546   2.919
12177TIP3    H136474   0.796   4.478   2.952
12177TIP3    H236475   0.723   4.603   2.995
12178TIP3   OH236476   8.232   2.649   0.965
12178TIP3    H136477   8.193   2.564   0.945
12178TIP3    H236478   8.325   2.639   0.945
12179TIP3   OH236479   3.852   2.781   3.289
12179TIP3    H136480   3.766   2.821   3.302
12179TIP3    H236481   3.914   2.847   3.321
12180TIP3   OH236482   0.284   4.018   1.348
12180TIP3    H136483   0.251   4.008   1.437
12180TIP3    H236484   0.212   4.060   1.301
12181TIP3   OH236485   3.750   7.052   6.168
12181TIP3    H136486   3.714   6.986   6.109
12181TIP3    H236487   3.765   7.128   6.113
12182TIP3   OH236488   6.725   5.166   1.234
12182TIP3    H136489   6.637   5.202   1.225
12182TIP3    H236490   6.761   5.210   1.311
12183TIP3   OH236491   5.883   4.354   0.986
12183TIP3    H136492   5.836   4.272   1.003
12183TIP3    H236493   5.930   4.339   0.904
12184TIP3   OH236494   6.043   4.416   2.735
12184TIP3    H136495   5.964   4.379   2.773
12184TIP3    H236496   6.015   4.451   2.650
12185TIP3   OH236497   3.504   0.371   0.767
12185TIP3    H136498   3.457   0.403   0.689
12185TIP3    H236499   3.492   0.440   0.832
12186TIP3   OH236500   2.117   1.450   0.328
12186TIP3    H136501   2.145   1.415   0.244
12186TIP3    H236502   2.196   1.452   0.381
12187TIP3   OH236503   4.165   7.133   5.175
12187TIP3    H136504   4.138   7.091   5.094
12187TIP3    H236505   4.256   7.106   5.187
12188TIP3   OH236506   7.207   6.425   1.728
12188TIP3    H136507   7.244   6.464   1.649
12188TIP3    H236508   7.142   6.489   1.759
12189TIP3   OH236509   6.417   3.009   4.260
12189TIP3    H136510   6.436   2.922   4.293
12189TIP3    H236511   6.353   3.045   4.323
12190TIP3   OH236512   4.513   5.271   6.164
12190TIP3    H136513   4.461   5.230   6.233
12190TIP3    H236514   4.453   5.280   6.090
12191TIP3   OH236515   7.963   2.969   3.756
12191TIP3    H136516   8.002   2.985   3.842
12191TIP3    H236517   8.034   2.930   3.705
12192TIP3   OH236518   6.879   6.908   3.822
12192TIP3    H136519   6.901   6.982   3.878
12192TIP3    H236520   6.875   6.944   3.734
12193TIP3   OH236521   5.495   5.255   5.565
12193TIP3    H136522   5.521   5.237   5.655
12193TIP3    H236523   5.576   5.281   5.521
12194TIP3   OH236524   2.822   0.947   2.522
12194TIP3    H136525   2.916   0.929   2.517
12194TIP3    H236526   2.801   0.941   2.615
12195TIP3   OH236527   5.148   3.579   1.961
12195TIP3    H136528   5.153   3.664   1.918
12195TIP3    H236529   5.060   3.577   2.000
12196TIP3   OH236530   2.580   2.581   2.234
12196TIP3    H136531   2.601   2.488   2.236
12196TIP3    H236532   2.657   2.622   2.194
12197TIP3   OH236533   8.189   3.866   5.458
12197TIP3    H136534   8.096   3.844   5.471
12197TIP3    H236535   8.218   3.809   5.388
12198TIP3   OH236536   6.582   4.654   5.609
12198TIP3    H136537   6.668   4.614   5.623
12198TIP3    H236538   6.599   4.748   5.612
12199TIP3   OH236539   4.141   0.690   1.777
12199TIP3    H136540   4.068   0.628   1.779
12199TIP3    H236541   4.168   0.699   1.869
12200TIP3   OH236542   3.806   0.165   4.130
12200TIP3    H136543   3.837   0.253   4.153
12200TIP3    H236544   3.883   0.121   4.094
12201TIP3   OH236545   4.518   3.384   0.836
12201TIP3    H136546   4.441   3.353   0.788
12201TIP3    H236547   4.587   3.391   0.769
12202TIP3   OH236548   5.608   6.745   2.090
12202TIP3    H136549   5.594   6.705   2.004
12202TIP3    H236550   5.566   6.684   2.152
12203TIP3   OH236551   6.819   5.469   4.118
12203TIP3    H136552   6.871   5.410   4.173
12203TIP3    H236553   6.764   5.517   4.180
12204TIP3   OH236554   5.694   5.710   0.812
12204TIP3    H136555   5.607   5.744   0.791
12204TIP3    H236556   5.703   5.632   0.756
12205TIP3   OH236557   5.958   1.408   2.342
12205TIP3    H136558   5.944   1.371   2.429
12205TIP3    H236559   5.870   1.419   2.305
12206TIP3   OH236560   7.312   1.826   4.000
12206TIP3    H136561   7.386   1.770   3.978
12206TIP3    H236562   7.246   1.766   4.035
12207TIP3   OH236563   0.887   6.404   0.880
12207TIP3    H136564   0.895   6.466   0.808
12207TIP3    H236565   0.847   6.327   0.842
12208TIP3   OH236566   0.850   5.882   5.001
12208TIP3    H136567   0.793   5.893   4.925
12208TIP3    H236568   0.918   5.949   4.990
12209TIP3   OH236569   1.020   4.882   2.885
12209TIP3    H136570   0.966   4.857   2.959
12209TIP3    H236571   0.984   4.833   2.811
12210TIP3   OH236572   4.560   4.128   6.097
12210TIP3    H136573   4.467   4.109   6.108
12210TIP3    H236574   4.567   4.159   6.007
12211TIP3   OH236575   7.194   3.260   5.354
12211TIP3    H136576   7.243   3.180   5.335
12211TIP3    H236577   7.227   3.288   5.440
12212TIP3   OH236578   0.164   0.834   6.183
12212TIP3    H136579   0.210   0.795   6.108
12212TIP3    H236580   0.172   0.928   6.169
12213TIP3   OH236581   5.510   3.314   4.558
12213TIP3    H136582   5.572   3.264   4.505
12213TIP3    H236583   5.517   3.404   4.526
12214TIP3   OH236584   1.944   3.650   4.305
12214TIP3    H136585   1.903   3.635   4.220
12214TIP3    H236586   1.974   3.564   4.332
12215TIP3   OH236587   6.710   7.119   2.665
12215TIP3    H136588   6.714   7.048   2.600
12215TIP3    H236589   6.718   7.199   2.613
12216TIP3   OH236590   2.300   0.926   0.865
12216TIP3    H136591   2.338   0.907   0.951
12216TIP3    H236592   2.303   0.842   0.819
12217TIP3   OH236593   4.099   6.059   3.725
12217TIP3    H136594   4.194   6.053   3.713
12217TIP3    H236595   4.076   5.980   3.775
12218TIP3   OH236596   7.741   7.285   5.988
12218TIP3    H136597   7.818   7.341   6.000
12218TIP3    H236598   7.709   7.268   6.076
12219TIP3   OH236599   0.851   4.330   0.512
12219TIP3    H136600   0.936   4.365   0.483
12219TIP3    H236601   0.791   4.404   0.502
12220TIP3   OH236602   7.003   6.623   1.854
12220TIP3    H136603   6.928   6.608   1.796
12220TIP3    H236604   6.973   6.593   1.939
12221TIP3   OH236605   2.699   0.444   2.070
12221TIP3    H136606   2.742   0.514   2.020
12221TIP3    H236607   2.611   0.440   2.034
12222TIP3   OH236608   1.002   1.658   0.427
12222TIP3    H136609   1.014   1.725   0.359
12222TIP3    H236610   0.962   1.705   0.500
12223TIP3   OH236611   3.993   2.003   0.189
12223TIP3    H136612   4.048   2.082   0.194
12223TIP3    H236613   4.033   1.951   0.119
12224TIP3   OH236614   0.152   2.852   3.723
12224TIP3    H136615   0.073   2.801   3.740
12224TIP3    H236616   0.149   2.923   3.788
12225TIP3   OH236617   3.496   1.998   5.099
12225TIP3    H136618   3.480   1.939   5.024
12225TIP3    H236619   3.419   1.987   5.155
12226TIP3   OH236620   1.161   2.370   5.910
12226TIP3    H136621   1.088   2.311   5.889
12226TIP3    H236622   1.225   2.314   5.953
12227TIP3   OH236623   1.558   6.156   4.461
12227TIP3    H136624   1.489   6.222   4.448
12227TIP3    H236625   1.607   6.155   4.379
12228TIP3   OH236626   1.532   1.674   6.113
12228TIP3    H136627   1.611   1.703   6.066
12228TIP3    H236628   1.463   1.733   6.083
12229TIP3   OH236629   5.075   4.680   4.208
12229TIP3    H136630   5.095   4.740   4.135
12229TIP3    H236631   5.117   4.720   4.284
12230TIP3   OH236632   3.090   2.250   5.549
12230TIP3    H136633   3.131   2.182   5.494
12230TIP3    H236634   3.064   2.318   5.487
12231TIP3   OH236635   0.010   5.574   4.496
12231TIP3    H136636   0.092   5.526   4.495
12231TIP3    H236637  -0.019   5.573   4.587
12232TIP3   OH236638   0.830   7.340   5.719
12232TIP3    H136639   0.815   7.246   5.707
12232TIP3    H236640   0.900   7.345   5.784
12233TIP3   OH236641   2.825   1.235   1.249
12233TIP3    H136642   2.782   1.150   1.264
12233TIP3    H236643   2.907   1.213   1.205
12234TIP3   OH236644   6.416   6.326   5.720
12234TIP3    H136645   6.333   6.306   5.763
12234TIP3    H236646   6.393   6.391   5.654
12235TIP3   OH236647   6.687   2.116   2.365
12235TIP3    H136648   6.618   2.054   2.342
12235TIP3    H236649   6.727   2.139   2.282
12236TIP3   OH236650   6.177   3.294   4.744
12236TIP3    H136651   6.258   3.267   4.788
12236TIP3    H236652   6.110   3.287   4.812
12237TIP3   OH236653   2.012   1.791   4.289
12237TIP3    H136654   2.052   1.866   4.244
12237TIP3    H236655   2.081   1.725   4.292
12238TIP3   OH236656   0.820   5.301   4.440
12238TIP3    H136657   0.840   5.232   4.377
12238TIP3    H236658   0.878   5.284   4.514
12239TIP3   OH236659   8.247   0.074  -0.005
12239TIP3    H136660   8.229   0.090   0.087
12239TIP3    H236661   8.173   0.114  -0.051
12240TIP3   OH236662   6.511   0.035   4.302
12240TIP3    H136663   6.445   0.096   4.332
12240TIP3    H236664   6.580   0.038   4.369
12241TIP3   OH236665   8.004   5.712   6.028
12241TIP3    H136666   8.093   5.688   6.001
12241TIP3    H236667   7.951   5.635   6.009
12242TIP3   OH236668   7.031   2.729   4.909
12242TIP3    H136669   7.004   2.649   4.953
12242TIP3    H236670   7.052   2.701   4.819
12243TIP3   OH236671   6.068   6.247   4.623
12243TIP3    H136672   6.058   6.326   4.676
12243TIP3    H236673   6.089   6.178   4.686
12244TIP3   OH236674   6.115   1.921   0.666
12244TIP3    H136675   6.169   1.876   0.601
12244TIP3    H236676   6.031   1.875   0.663
12245TIP3   OH236677   5.544   1.978   1.098
12245TIP3    H136678   5.570   2.003   1.010
12245TIP3    H236679   5.546   2.060   1.148
12246TIP3   OH236680   4.962   7.715   4.348
12246TIP3    H136681   5.002   7.736   4.432
12246TIP3    H236682   4.868   7.710   4.367
12247TIP3   OH236683   1.134   1.778   4.080
12247TIP3    H136684   1.135   1.774   3.984
12247TIP3    H236685   1.069   1.845   4.101
12248TIP3   OH236686   6.412   4.745   3.502
12248TIP3    H136687   6.321   4.774   3.495
12248TIP3    H236688   6.422   4.681   3.432
12249TIP3   OH236689   6.720   6.646   0.681
12249TIP3    H136690   6.696   6.733   0.711
12249TIP3    H236691   6.796   6.622   0.733
12250TIP3   OH236692   0.175   2.441   1.731
12250TIP3    H136693   0.112   2.494   1.682
12250TIP3    H236694   0.246   2.502   1.754
12251TIP3   OH236695   7.678   5.930   2.507
12251TIP3    H136696   7.615   5.931   2.435
12251TIP3    H236697   7.671   5.842   2.544
12252TIP3   OH236698   2.988   6.263   0.259
12252TIP3    H136699   2.893   6.266   0.253
12252TIP3    H236700   3.017   6.347   0.224
12253TIP3   OH236701   0.663   3.564   4.141
12253TIP3    H136702   0.662   3.628   4.070
12253TIP3    H236703   0.737   3.590   4.196
12254TIP3   OH236704   6.491   2.093   5.762
12254TIP3    H136705   6.452   2.176   5.789
12254TIP3    H236706   6.536   2.114   5.680
12255TIP3   OH236707   2.987   7.683   3.618
12255TIP3    H136708   2.940   7.671   3.701
12255TIP3    H236709   2.949   7.763   3.581
12256TIP3   OH236710   4.739   6.556   2.024
12256TIP3    H136711   4.687   6.532   2.101
12256TIP3    H236712   4.746   6.652   2.029
12257TIP3   OH236713   2.085   7.041   6.557
12257TIP3    H136714   2.161   7.004   6.602
12257TIP3    H236715   2.018   7.051   6.625
12258TIP3   OH236716   4.766   7.046   4.827
12258TIP3    H136717   4.794   7.131   4.859
12258TIP3    H236718   4.844   6.990   4.835
12259TIP3   OH236719   4.809   2.363   0.574
12259TIP3    H136720   4.779   2.296   0.514
12259TIP3    H236721   4.904   2.361   0.567
12260TIP3   OH236722   2.017   7.183   4.310
12260TIP3    H136723   2.025   7.231   4.228
12260TIP3    H236724   1.942   7.125   4.296
12261TIP3   OH236725   7.402   0.033   3.034
12261TIP3    H136726   7.335  -0.029   3.005
12261TIP3    H236727   7.357   0.117   3.041
12262TIP3   OH236728   6.877   6.988   3.545
12262TIP3    H136729   6.945   7.037   3.499
12262TIP3    H236730   6.852   6.918   3.484
12263TIP3   OH236731   3.534   0.531   4.541
12263TIP3    H136732   3.540   0.604   4.602
12263TIP3    H236733   3.453   0.547   4.492
12264TIP3   OH236734   0.510   2.448   4.586
12264TIP3    H136735   0.423   2.484   4.602
12264TIP3    H236736   0.547   2.505   4.518
12265TIP3   OH236737   4.385   4.175   5.280
12265TIP3    H136738   4.312   4.224   5.318
12265TIP3    H236739   4.345   4.099   5.240
12266TIP3   OH236740   2.205   2.902   0.126
12266TIP3    H136741   2.130   2.944   0.168
12266TIP3    H236742   2.244   2.970   0.072
12267TIP3   OH236743   2.608   0.376   6.465
12267TIP3    H136744   2.605   0.289   6.425
12267TIP3    H236745   2.689   0.415   6.433
12268TIP3   OH236746   1.152   6.174   3.891
12268TIP3    H136747   1.144   6.106   3.825
12268TIP3    H236748   1.215   6.236   3.855
12269TIP3   OH236749   3.720   1.970   4.948
12269TIP3    H136750   3.661   2.028   4.997
12269TIP3    H236751   3.687   1.882   4.966
12270TIP3   OH236752   1.044   3.368   6.038
12270TIP3    H136753   1.055   3.274   6.024
12270TIP3    H236754   0.978   3.374   6.107
12271TIP3   OH236755   0.657   3.151   6.296
12271TIP3    H136756   0.600   3.184   6.365
12271TIP3    H236757   0.628   3.197   6.217
12272TIP3   OH236758   4.509   3.253   4.795
12272TIP3    H136759   4.521   3.290   4.708
12272TIP3    H236760   4.415   3.235   4.801
12273TIP3   OH236761   4.250   5.065   2.657
12273TIP3    H136762   4.326   5.057   2.599
12273TIP3    H236763   4.255   5.154   2.692
12274TIP3   OH236764   5.467   4.694   5.835
12274TIP3    H136765   5.480   4.649   5.751
12274TIP3    H236766   5.433   4.780   5.811
12275TIP3   OH236767   6.286   3.583   5.615
12275TIP3    H136768   6.234   3.630   5.680
12275TIP3    H236769   6.324   3.652   5.561
12276TIP3   OH236770   2.044   1.725   0.297
12276TIP3    H136771   2.069   1.633   0.290
12276TIP3    H236772   2.047   1.744   0.391
12277TIP3   OH236773   3.489   7.424   4.826
12277TIP3    H136774   3.575   7.406   4.865
12277TIP3    H236775   3.455   7.337   4.802
12278TIP3   OH236776   5.866   2.099   4.494
12278TIP3    H136777   5.945   2.068   4.537
12278TIP3    H236778   5.888   2.186   4.462
12279TIP3   OH236779   8.076   2.717   0.446
12279TIP3    H136780   8.086   2.780   0.517
12279TIP3    H236781   8.075   2.631   0.489
12280TIP3   OH236782   2.040   6.940   3.061
12280TIP3    H136783   2.046   6.848   3.089
12280TIP3    H236784   2.086   6.943   2.978
12281TIP3   OH236785   0.456   3.394   5.031
12281TIP3    H136786   0.517   3.321   5.017
12281TIP3    H236787   0.386   3.379   4.968
12282TIP3   OH236788   5.391   1.242   5.248
12282TIP3    H136789   5.409   1.323   5.297
12282TIP3    H236790   5.325   1.267   5.184
12283TIP3   OH236791   2.258   0.618   1.331
12283TIP3    H136792   2.245   0.531   1.293
12283TIP3    H236793   2.215   0.677   1.270
12284TIP3   OH236794   8.002   1.918   1.122
12284TIP3    H136795   8.054   1.887   1.197
12284TIP3    H236796   7.918   1.873   1.132
12285TIP3   OH236797   2.521   1.378   6.393
12285TIP3    H136798   2.586   1.440   6.361
12285TIP3    H236799   2.502   1.405   6.483
12286TIP3   OH236800   1.180   6.100   4.509
12286TIP3    H136801   1.091   6.109   4.544
12286TIP3    H236802   1.235   6.091   4.587
12287TIP3   OH236803   7.464   0.807   1.023
12287TIP3    H136804   7.368   0.806   1.018
12287TIP3    H236805   7.484   0.824   1.115
12288TIP3   OH236806   2.756   0.700   3.189
12288TIP3    H136807   2.765   0.794   3.206
12288TIP3    H236808   2.830   0.660   3.234
12289TIP3   OH236809   6.974   1.673   4.568
12289TIP3    H136810   7.029   1.594   4.567
12289TIP3    H236811   7.023   1.736   4.515
12290TIP3   OH236812   5.196   2.638   1.557
12290TIP3    H136813   5.280   2.653   1.601
12290TIP3    H236814   5.189   2.543   1.551
12291TIP3   OH236815   6.933   6.038   5.956
12291TIP3    H136816   6.924   5.986   5.876
12291TIP3    H236817   6.934   6.129   5.926
12292TIP3   OH236818   4.083   1.544   5.645
12292TIP3    H136819   4.112   1.628   5.610
12292TIP3    H236820   4.159   1.510   5.692
12293TIP3   OH236821   1.481   2.483   1.978
12293TIP3    H136822   1.418   2.508   2.047
12293TIP3    H236823   1.443   2.518   1.898
12294TIP3   OH236824   0.792   3.614   2.114
12294TIP3    H136825   0.884   3.613   2.141
12294TIP3    H236826   0.782   3.696   2.065
12295TIP3   OH236827   4.368   6.246   0.181
12295TIP3    H136828   4.446   6.286   0.220
12295TIP3    H236829   4.309   6.320   0.166
12296TIP3   OH236830   4.507   7.222   5.823
12296TIP3    H136831   4.440   7.283   5.792
12296TIP3    H236832   4.471   7.186   5.904
12297TIP3   OH236833   7.724   7.007   0.995
12297TIP3    H136834   7.663   6.982   1.065
12297TIP3    H236835   7.805   6.959   1.016
12298TIP3   OH236836   2.347   4.863   2.386
12298TIP3    H136837   2.439   4.889   2.381
12298TIP3    H236838   2.298   4.944   2.370
12299TIP3   OH236839   3.083   7.759   1.099
12299TIP3    H136840   3.172   7.793   1.092
12299TIP3    H236841   3.046   7.805   1.174
12300TIP3   OH236842   1.594   3.732   5.553
12300TIP3    H136843   1.560   3.751   5.465
12300TIP3    H236844   1.636   3.813   5.579
12301TIP3   OH236845   4.341   0.913   6.713
12301TIP3    H136846   4.392   0.931   6.633
12301TIP3    H236847   4.340   0.818   6.719
12302TIP3   OH236848   4.745   6.288   3.097
12302TIP3    H136849   4.720   6.197   3.116
12302TIP3    H236850   4.831   6.298   3.138
12303TIP3   OH236851   4.560   6.073   1.484
12303TIP3    H136852   4.597   6.105   1.401
12303TIP3    H236853   4.634   6.030   1.527
12304TIP3   OH236854   3.006   3.376   1.551
12304TIP3    H136855   3.092   3.336   1.537
12304TIP3    H236856   2.947   3.302   1.565
12305TIP3   OH236857   0.917   4.762   2.098
12305TIP3    H136858   0.864   4.821   2.045
12305TIP3    H236859   0.879   4.675   2.083
12306TIP3   OH236860   1.218   5.549   6.742
12306TIP3    H136861   1.125   5.536   6.723
12306TIP3    H236862   1.225   5.642   6.766
12307TIP3   OH236863   8.222   5.164   4.713
12307TIP3    H136864   8.298   5.216   4.687
12307TIP3    H236865   8.231   5.156   4.808
12308TIP3   OH236866   1.795   7.733   1.457
12308TIP3    H136867   1.721   7.688   1.496
12308TIP3    H236868   1.828   7.791   1.526
12309TIP3   OH236869   1.731   4.030   5.537
12309TIP3    H136870   1.639   4.039   5.514
12309TIP3    H236871   1.771   4.112   5.507
12310TIP3   OH236872   4.346   4.664   3.478
12310TIP3    H136873   4.438   4.675   3.501
12310TIP3    H236874   4.345   4.661   3.382
12311TIP3   OH236875   4.125   1.804   2.883
12311TIP3    H136876   4.162   1.739   2.823
12311TIP3    H236877   4.073   1.752   2.944
12312TIP3   OH236878   7.555   4.728   0.925
12312TIP3    H136879   7.542   4.634   0.938
12312TIP3    H236880   7.650   4.738   0.917
12313TIP3   OH236881   2.758   0.692   5.513
12313TIP3    H136882   2.792   0.763   5.567
12313TIP3    H236883   2.687   0.654   5.565
12314TIP3   OH236884   6.259   3.075   1.880
12314TIP3    H136885   6.339   3.114   1.846
12314TIP3    H236886   6.209   3.148   1.914
12315TIP3   OH236887   7.967   5.146   5.256
12315TIP3    H136888   8.005   5.218   5.307
12315TIP3    H236889   7.879   5.176   5.233
12316TIP3   OH236890   2.494   0.540   3.298
12316TIP3    H136891   2.578   0.565   3.260
12316TIP3    H236892   2.434   0.610   3.271
12317TIP3   OH236893   6.175   4.566   5.677
12317TIP3    H136894   6.267   4.581   5.699
12317TIP3    H236895   6.177   4.518   5.594
12318TIP3   OH236896   7.328   7.577   5.007
12318TIP3    H136897   7.289   7.493   4.982
12318TIP3    H236898   7.316   7.581   5.101
12319TIP3   OH236899   2.094   3.025   2.535
12319TIP3    H136900   2.005   3.009   2.569
12319TIP3    H236901   2.090   2.995   2.444
12320TIP3   OH236902   8.267   2.326   0.678
12320TIP3    H136903   8.286   2.237   0.710
12320TIP3    H236904   8.352   2.368   0.672
12321TIP3   OH236905   5.541   6.418   2.758
12321TIP3    H136906   5.548   6.453   2.669
12321TIP3    H236907   5.623   6.369   2.770
12322TIP3   OH236908   0.559   0.834   3.039
12322TIP3    H136909   0.570   0.927   3.058
12322TIP3    H236910   0.482   0.830   2.983
12323TIP3   OH236911   3.169   2.559   2.497
12323TIP3    H136912   3.076   2.535   2.509
12323TIP3    H236913   3.167   2.651   2.470
12324TIP3   OH236914   3.675   4.510   0.495
12324TIP3    H136915   3.582   4.493   0.482
12324TIP3    H236916   3.686   4.513   0.590
12325TIP3   OH236917   7.713   5.567   3.622
12325TIP3    H136918   7.751   5.654   3.615
12325TIP3    H236919   7.629   5.573   3.575
12326TIP3   OH236920   0.194   6.153   0.236
12326TIP3    H136921   0.245   6.232   0.223
12326TIP3    H236922   0.107   6.175   0.203
12327TIP3   OH236923   8.178   7.196   4.909
12327TIP3    H136924   8.259   7.215   4.955
12327TIP3    H236925   8.113   7.254   4.949
12328TIP3   OH236926   3.807   4.164   2.576
12328TIP3    H136927   3.785   4.098   2.510
12328TIP3    H236928   3.843   4.113   2.649
12329TIP3   OH236929   3.468   3.747   5.907
12329TIP3    H136930   3.497   3.721   5.994
12329TIP3    H236931   3.423   3.831   5.921
12330TIP3   OH236932   2.040   6.286   4.392
12330TIP3    H136933   2.117   6.240   4.358
12330TIP3    H236934   2.052   6.376   4.363
12331TIP3   OH236935   8.184   1.430   5.099
12331TIP3    H136936   8.110   1.490   5.109
12331TIP3    H236937   8.215   1.445   5.010
12332TIP3   OH236938   7.276   0.588   6.485
12332TIP3    H136939   7.202   0.647   6.472
12332TIP3    H236940   7.240   0.500   6.472
12333TIP3   OH236941   1.702   1.596   3.362
12333TIP3    H136942   1.726   1.580   3.271
12333TIP3    H236943   1.607   1.591   3.364
12334TIP3   OH236944   0.376   0.986   3.344
12334TIP3    H136945   0.363   1.035   3.264
12334TIP3    H236946   0.415   1.048   3.405
12335TIP3   OH236947   4.358   5.635   2.793
12335TIP3    H136948   4.349   5.659   2.886
12335TIP3    H236949   4.313   5.551   2.786
12336TIP3   OH236950   7.109   4.048   6.178
12336TIP3    H136951   7.179   4.087   6.230
12336TIP3    H236952   7.127   3.954   6.180
12337TIP3   OH236953   4.958   3.575   6.128
12337TIP3    H136954   5.044   3.611   6.148
12337TIP3    H236955   4.915   3.643   6.077
12338TIP3   OH236956   1.830   6.814   6.168
12338TIP3    H136957   1.917   6.821   6.207
12338TIP3    H236958   1.846   6.810   6.074
12339TIP3   OH236959   5.028   5.987   4.099
12339TIP3    H136960   5.088   6.038   4.044
12339TIP3    H236961   5.067   5.991   4.187
12340TIP3   OH236962   1.900   6.525   6.368
12340TIP3    H136963   1.809   6.513   6.340
12340TIP3    H236964   1.893   6.576   6.449
12341TIP3   OH236965   3.157   2.390   1.544
12341TIP3    H136966   3.208   2.453   1.494
12341TIP3    H236967   3.192   2.396   1.633
12342TIP3   OH236968   2.649   1.478   3.193
12342TIP3    H136969   2.567   1.467   3.144
12342TIP3    H236970   2.629   1.546   3.257
12343TIP3   OH236971   3.599   1.934   2.722
12343TIP3    H136972   3.543   1.858   2.738
12343TIP3    H236973   3.667   1.928   2.789
12344TIP3   OH236974   0.123   1.477   5.247
12344TIP3    H136975   0.036   1.474   5.207
12344TIP3    H236976   0.182   1.495   5.174
12345TIP3   OH236977   1.644   6.295   5.251
12345TIP3    H136978   1.559   6.302   5.206
12345TIP3    H236979   1.660   6.383   5.285
12346TIP3   OH236980   5.429   7.212   2.694
12346TIP3    H136981   5.389   7.194   2.779
12346TIP3    H236982   5.379   7.285   2.658
12347TIP3   OH236983   2.778   3.505   6.552
12347TIP3    H136984   2.748   3.454   6.476
12347TIP3    H236985   2.837   3.446   6.598
12348TIP3   OH236986   6.184   5.182   3.611
12348TIP3    H136987   6.147   5.201   3.697
12348TIP3    H236988   6.135   5.106   3.579
12349TIP3   OH236989   0.733   7.463   4.476
12349TIP3    H136990   0.749   7.542   4.425
12349TIP3    H236991   0.816   7.415   4.473
12350TIP3   OH236992   3.561   2.804   5.905
12350TIP3    H136993   3.559   2.734   5.839
12350TIP3    H236994   3.524   2.764   5.984
12351TIP3   OH236995   3.377   1.128   4.446
12351TIP3    H136996   3.363   1.216   4.410
12351TIP3    H236997   3.468   1.129   4.477
12352TIP3   OH236998   1.006   6.170   5.427
12352TIP3    H136999   1.007   6.076   5.407
12352TIP3    H237000   0.914   6.190   5.443
12353TIP3   OH237001   4.038   0.658   5.568
12353TIP3    H137002   3.960   0.650   5.622
12353TIP3    H237003   4.015   0.722   5.500
12354TIP3   OH237004   0.997   2.071   0.043
12354TIP3    H137005   0.918   2.030   0.006
12354TIP3    H237006   1.029   2.128  -0.027
12355TIP3   OH237007   7.638   6.871   3.387
12355TIP3    H137008   7.631   6.825   3.470
12355TIP3    H237009   7.693   6.947   3.407
12356TIP3   OH237010   6.508   2.969   3.303
12356TIP3    H137011   6.435   2.908   3.296
12356TIP3    H237012   6.538   2.982   3.212
12357TIP3   OH237013   1.601   4.053   1.445
12357TIP3    H137014   1.596   3.959   1.464
12357TIP3    H237015   1.514   4.087   1.466
12358TIP3   OH237016   2.789   6.382   4.633
12358TIP3    H137017   2.773   6.365   4.726
12358TIP3    H237018   2.882   6.365   4.621
12359TIP3   OH237019   2.248   2.401   6.313
12359TIP3    H137020   2.240   2.399   6.218
12359TIP3    H237021   2.196   2.477   6.339
12360TIP3   OH237022   0.830   6.186   4.842
12360TIP3    H137023   0.804   6.218   4.929
12360TIP3    H237024   0.924   6.170   4.850
12361TIP3   OH237025   3.711   0.571   5.394
12361TIP3    H137026   3.783   0.631   5.415
12361TIP3    H237027   3.657   0.620   5.333
12362TIP3   OH237028   5.701   0.562   2.880
12362TIP3    H137029   5.671   0.645   2.917
12362TIP3    H237030   5.717   0.581   2.788
12363TIP3   OH237031   3.983   6.882   1.693
12363TIP3    H137032   3.892   6.858   1.711
12363TIP3    H237033   3.979   6.974   1.669
12364TIP3   OH237034   1.251   1.579   6.517
12364TIP3    H137035   1.336   1.623   6.518
12364TIP3    H237036   1.241   1.545   6.606
12365TIP3   OH237037   1.349   3.951   6.665
12365TIP3    H137038   1.319   3.920   6.750
12365TIP3    H237039   1.419   4.014   6.686
12366TIP3   OH237040   3.953   5.606   2.758
12366TIP3    H137041   3.875   5.648   2.720
12366TIP3    H237042   4.010   5.679   2.780
12367TIP3   OH237043   6.591   6.968   1.722
12367TIP3    H137044   6.582   7.050   1.673
12367TIP3    H237045   6.675   6.977   1.768
12368TIP3   OH237046   4.428   2.998   6.627
12368TIP3    H137047   4.434   3.054   6.550
12368TIP3    H237048   4.441   3.058   6.701
12369TIP3   OH237049   1.724   7.841   5.156
12369TIP3    H137050   1.713   7.766   5.097
12369TIP3    H237051   1.804   7.884   5.126
12370TIP3   OH237052   2.913   2.700   3.322
12370TIP3    H137053   2.926   2.709   3.417
12370TIP3    H237054   2.935   2.609   3.303
12371TIP3   OH237055   0.676   1.960   6.146
12371TIP3    H137056   0.703   1.893   6.209
12371TIP3    H237057   0.597   1.999   6.185
12372TIP3   OH237058   5.392   1.490   2.762
12372TIP3    H137059   5.373   1.521   2.674
12372TIP3    H237060   5.316   1.436   2.786
12373TIP3   OH237061   5.414   1.309   1.509
12373TIP3    H137062   5.418   1.213   1.507
12373TIP3    H237063   5.416   1.331   1.602
12374TIP3   OH237064   5.002   5.416   1.351
12374TIP3    H137065   5.090   5.453   1.343
12374TIP3    H237066   4.990   5.402   1.445
12375TIP3   OH237067   4.707   0.631   5.117
12375TIP3    H137068   4.785   0.589   5.153
12375TIP3    H237069   4.636   0.605   5.176
12376TIP3   OH237070   5.901   2.118   0.187
12376TIP3    H137071   5.844   2.041   0.176
12376TIP3    H237072   5.915   2.125   0.281
12377TIP3   OH237073   5.692   1.390   5.636
12377TIP3    H137074   5.753   1.454   5.600
12377TIP3    H237075   5.672   1.422   5.724
12378TIP3   OH237076   1.381   4.983   6.319
12378TIP3    H137077   1.393   4.893   6.348
12378TIP3    H237078   1.364   4.975   6.225
12379TIP3   OH237079   3.003   6.107   0.034
12379TIP3    H137080   2.916   6.095  -0.004
12379TIP3    H237081   2.990   6.171   0.103
12380TIP3   OH237082   3.867   4.694   0.973
12380TIP3    H137083   3.928   4.624   0.951
12380TIP3    H237084   3.922   4.764   1.007
12381TIP3   OH237085   2.108   3.169   5.190
12381TIP3    H137086   2.078   3.192   5.102
12381TIP3    H237087   2.051   3.218   5.249
12382TIP3   OH237088   6.672   1.420   1.364
12382TIP3    H137089   6.604   1.377   1.416
12382TIP3    H237090   6.635   1.425   1.276
12383TIP3   OH237091   2.440   7.227   1.905
12383TIP3    H137092   2.409   7.220   1.815
12383TIP3    H237093   2.382   7.292   1.945
12384TIP3   OH237094   3.974   1.481   3.598
12384TIP3    H137095   3.896   1.487   3.654
12384TIP3    H237096   3.955   1.539   3.525
12385TIP3   OH237097   8.264   2.659   3.723
12385TIP3    H137098   8.321   2.586   3.699
12385TIP3    H237099   8.183   2.618   3.754
12386TIP3   OH237100   3.620   3.875   0.477
12386TIP3    H137101   3.673   3.825   0.540
12386TIP3    H237102   3.674   3.952   0.457
12387TIP3   OH237103   6.345   5.306   0.778
12387TIP3    H137104   6.267   5.253   0.766
12387TIP3    H237105   6.348   5.325   0.872
12388TIP3   OH237106   1.042   4.741   4.693
12388TIP3    H137107   1.070   4.775   4.779
12388TIP3    H237108   1.121   4.744   4.640
12389TIP3   OH237109   4.196   0.611   4.896
12389TIP3    H137110   4.140   0.683   4.863
12389TIP3    H237111   4.191   0.618   4.991
12390TIP3   OH237112   1.812   5.085   4.504
12390TIP3    H137113   1.736   5.138   4.482
12390TIP3    H237114   1.874   5.146   4.543
12391TIP3   OH237115   4.530   1.009   4.856
12391TIP3    H137116   4.485   0.925   4.865
12391TIP3    H237117   4.514   1.035   4.765
12392TIP3   OH237118   4.141   3.642   5.460
12392TIP3    H137119   4.139   3.718   5.402
12392TIP3    H237120   4.094   3.670   5.538
12393TIP3   OH237121   4.009   7.218   6.124
12393TIP3    H137122   4.058   7.137   6.141
12393TIP3    H237123   3.955   7.230   6.202
12394TIP3   OH237124   4.310   6.277   2.595
12394TIP3    H137125   4.358   6.359   2.584
12394TIP3    H237126   4.218   6.301   2.581
12395TIP3   OH237127   6.623   1.891   3.159
12395TIP3    H137128   6.691   1.823   3.158
12395TIP3    H237129   6.672   1.973   3.164
12396TIP3   OH237130   1.432   1.579   3.403
12396TIP3    H137131   1.410   1.672   3.402
12396TIP3    H237132   1.349   1.535   3.424
12397TIP3   OH237133   8.156   0.685   2.544
12397TIP3    H137134   8.120   0.651   2.462
12397TIP3    H237135   8.161   0.780   2.531
12398TIP3   OH237136   5.646   6.467   1.168
12398TIP3    H137137   5.725   6.456   1.221
12398TIP3    H237138   5.626   6.379   1.136
12399TIP3   OH237139   3.261   6.463   2.472
12399TIP3    H137140   3.278   6.385   2.526
12399TIP3    H237141   3.224   6.527   2.533
12400TIP3   OH237142   2.253   7.257   5.418
12400TIP3    H137143   2.330   7.314   5.416
12400TIP3    H237144   2.182   7.312   5.385
12401TIP3   OH237145   2.192   1.536   4.248
12401TIP3    H137146   2.207   1.467   4.313
12401TIP3    H237147   2.279   1.574   4.232
12402TIP3   OH237148   1.927   2.376   0.248
12402TIP3    H137149   1.834   2.360   0.232
12402TIP3    H237150   1.952   2.312   0.314
12403TIP3   OH237151   5.015   5.609   1.994
12403TIP3    H137152   5.092   5.553   2.005
12403TIP3    H237153   5.037   5.664   1.919
12404TIP3   OH237154   2.261   4.258   2.174
12404TIP3    H137155   2.185   4.238   2.230
12404TIP3    H237156   2.318   4.182   2.183
12405TIP3   OH237157   2.979   3.100   1.944
12405TIP3    H137158   2.992   3.043   1.868
12405TIP3    H237159   3.000   3.188   1.910
12406TIP3   OH237160   1.154   7.163   0.643
12406TIP3    H137161   1.082   7.180   0.703
12406TIP3    H237162   1.215   7.235   0.656
12407TIP3   OH237163   3.659   3.607   6.624
12407TIP3    H137164   3.677   3.560   6.706
12407TIP3    H237165   3.640   3.538   6.561
12408TIP3   OH237166   5.261   2.048   4.084
12408TIP3    H137167   5.167   2.053   4.066
12408TIP3    H237168   5.303   2.082   4.005
12409TIP3   OH237169   1.199   0.303   3.603
12409TIP3    H137170   1.167   0.262   3.523
12409TIP3    H237171   1.140   0.271   3.672
12410TIP3   OH237172   2.105   1.632   1.335
12410TIP3    H137173   2.109   1.585   1.252
12410TIP3    H237174   2.016   1.665   1.340
12411TIP3   OH237175   5.920   4.289   3.570
12411TIP3    H137176   5.969   4.208   3.558
12411TIP3    H237177   5.959   4.330   3.647
12412TIP3   OH237178   3.968   0.936   2.292
12412TIP3    H137179   3.999   0.989   2.366
12412TIP3    H237180   3.873   0.933   2.303
12413TIP3   OH237181   5.567   7.519   3.708
12413TIP3    H137182   5.556   7.613   3.695
12413TIP3    H237183   5.656   7.510   3.744
12414TIP3   OH237184   6.583   2.653   0.423
12414TIP3    H137185   6.593   2.636   0.330
12414TIP3    H237186   6.488   2.653   0.438
12415TIP3   OH237187   5.406   6.107   4.256
12415TIP3    H137188   5.352   6.033   4.283
12415TIP3    H237189   5.406   6.166   4.331
12416TIP3   OH237190   5.421   0.599   4.265
12416TIP3    H137191   5.448   0.601   4.174
12416TIP3    H237192   5.442   0.686   4.299
12417TIP3   OH237193   2.021   2.103   0.445
12417TIP3    H137194   2.040   2.107   0.539
12417TIP3    H237195   1.928   2.127   0.439
12418TIP3   OH237196   5.725   5.001   1.667
12418TIP3    H137197   5.732   4.949   1.747
12418TIP3    H237198   5.719   4.937   1.596
12419TIP3   OH237199   1.599   0.155   1.191
12419TIP3    H137200   1.544   0.138   1.114
12419TIP3    H237201   1.644   0.237   1.169
12420TIP3   OH237202   4.739   7.637   1.340
12420TIP3    H137203   4.801   7.583   1.389
12420TIP3    H237204   4.654   7.616   1.378
12421TIP3   OH237205   7.484   2.972   2.126
12421TIP3    H137206   7.423   2.900   2.109
12421TIP3    H237207   7.491   3.017   2.042
12422TIP3   OH237208   4.172   2.442   0.950
12422TIP3    H137209   4.224   2.379   0.900
12422TIP3    H237210   4.214   2.444   1.036
12423TIP3   OH237211   3.330   4.069   4.544
12423TIP3    H137212   3.311   3.976   4.530
12423TIP3    H237213   3.369   4.074   4.631
12424TIP3   OH237214   6.907   5.934   2.706
12424TIP3    H137215   6.971   5.897   2.646
12424TIP3    H237216   6.902   6.026   2.682
12425TIP3   OH237217   2.897   7.348   3.009
12425TIP3    H137218   2.875   7.416   3.073
12425TIP3    H237219   2.992   7.357   2.997
12426TIP3   OH237220   1.763   1.080   2.662
12426TIP3    H137221   1.826   1.031   2.610
12426TIP3    H237222   1.767   1.039   2.749
12427TIP3   OH237223   2.841   1.090   0.573
12427TIP3    H137224   2.812   1.031   0.643
12427TIP3    H237225   2.937   1.091   0.580
12428TIP3   OH237226   0.268   0.991   6.427
12428TIP3    H137227   0.299   1.062   6.371
12428TIP3    H237228   0.258   0.917   6.367
12429TIP3   OH237229   3.223   6.789   2.168
12429TIP3    H137230   3.283   6.773   2.241
12429TIP3    H237231   3.143   6.822   2.209
12430TIP3   OH237232   6.221   7.449   0.839
12430TIP3    H137233   6.255   7.476   0.924
12430TIP3    H237234   6.130   7.426   0.856
12431TIP3   OH237235   7.831   7.140   1.507
12431TIP3    H137236   7.783   7.217   1.538
12431TIP3    H237237   7.871   7.167   1.425
12432TIP3   OH237238   4.247   3.075   4.366
12432TIP3    H137239   4.207   2.989   4.379
12432TIP3    H237240   4.234   3.095   4.273
12433TIP3   OH237241   0.259   0.316   2.795
12433TIP3    H137242   0.245   0.370   2.718
12433TIP3    H237243   0.181   0.331   2.850
12434TIP3   OH237244   2.737   1.940   2.881
12434TIP3    H137245   2.739   2.026   2.924
12434TIP3    H237246   2.806   1.890   2.924
12435TIP3   OH237247   3.723   3.870   5.825
12435TIP3    H137248   3.765   3.783   5.823
12435TIP3    H237249   3.709   3.887   5.918
12436TIP3   OH237250   3.003   1.170   5.972
12436TIP3    H137251   3.090   1.195   5.939
12436TIP3    H237252   2.981   1.090   5.923
12437TIP3   OH237253   3.384   6.111   2.873
12437TIP3    H137254   3.356   6.020   2.861
12437TIP3    H237255   3.392   6.121   2.968
12438TIP3   OH237256   3.660   4.247   0.712
12438TIP3    H137257   3.582   4.294   0.742
12438TIP3    H237258   3.711   4.233   0.792
12439TIP3   OH237259   4.296   2.702   1.524
12439TIP3    H137260   4.320   2.792   1.502
12439TIP3    H237261   4.233   2.677   1.456
12440TIP3   OH237262   2.750   0.461   5.004
12440TIP3    H137263   2.660   0.481   4.978
12440TIP3    H237264   2.765   0.515   5.082
12441TIP3   OH237265   2.545   5.197   2.669
12441TIP3    H137266   2.605   5.237   2.731
12441TIP3    H237267   2.458   5.215   2.705
12442TIP3   OH237268   2.562   5.341   2.448
12442TIP3    H137269   2.560   5.274   2.516
12442TIP3    H237270   2.586   5.421   2.494
12443TIP3   OH237271   5.916   5.835   4.561
12443TIP3    H137272   5.887   5.838   4.470
12443TIP3    H237273   5.880   5.914   4.601
12444TIP3   OH237274   7.323   1.200   3.363
12444TIP3    H137275   7.283   1.227   3.281
12444TIP3    H237276   7.259   1.140   3.402
12445TIP3   OH237277   8.189   3.017   5.680
12445TIP3    H137278   8.254   3.023   5.610
12445TIP3    H237279   8.175   2.923   5.692
12446TIP3   OH237280   8.213   4.225   4.866
12446TIP3    H137281   8.261   4.298   4.827
12446TIP3    H237282   8.126   4.259   4.883
12447TIP3   OH237283   6.194   6.589   3.222
12447TIP3    H137284   6.186   6.581   3.317
12447TIP3    H237285   6.137   6.662   3.200
12448TIP3   OH237286   0.282   2.577   6.357
12448TIP3    H137287   0.223   2.653   6.359
12448TIP3    H237288   0.252   2.526   6.282
12449TIP3   OH237289   6.383   1.008   5.230
12449TIP3    H137290   6.312   0.944   5.227
12449TIP3    H237291   6.398   1.033   5.139
12450TIP3   OH237292   8.355   4.268   3.426
12450TIP3    H137293   8.274   4.318   3.439
12450TIP3    H237294   8.326   4.184   3.391
12451TIP3   OH237295   3.649   5.657   0.193
12451TIP3    H137296   3.696   5.578   0.220
12451TIP3    H237297   3.683   5.726   0.250
12452TIP3   OH237298   3.742   4.902   3.581
12452TIP3    H137299   3.690   4.876   3.657
12452TIP3    H237300   3.832   4.887   3.607
12453TIP3   OH237301   1.572   7.468   3.195
12453TIP3    H137302   1.504   7.522   3.236
12453TIP3    H237303   1.653   7.513   3.216
12454TIP3   OH237304   5.387   5.203   2.109
12454TIP3    H137305   5.374   5.197   2.015
12454TIP3    H237306   5.481   5.213   2.121
12455TIP3   OH237307   1.242   2.289   0.224
12455TIP3    H137308   1.257   2.378   0.255
12455TIP3    H237309   1.307   2.276   0.154
12456TIP3   OH237310   3.874   4.482   0.306
12456TIP3    H137311   3.812   4.461   0.376
12456TIP3    H237312   3.947   4.422   0.319
12457TIP3   OH237313   3.629   6.674   2.450
12457TIP3    H137314   3.631   6.580   2.465
12457TIP3    H237315   3.704   6.691   2.394
12458TIP3   OH237316   4.910   4.202   1.979
12458TIP3    H137317   4.889   4.109   1.975
12458TIP3    H237318   4.929   4.227   1.889
12459TIP3   OH237319   4.747   2.574   6.074
12459TIP3    H137320   4.672   2.559   6.016
12459TIP3    H237321   4.709   2.617   6.151
12460TIP3   OH237322   8.273   2.317   6.018
12460TIP3    H137323   8.296   2.245   6.076
12460TIP3    H237324   8.179   2.307   6.003
12461TIP3   OH237325   4.124   3.956   4.540
12461TIP3    H137326   4.219   3.965   4.545
12461TIP3    H237327   4.091   4.045   4.539
12462TIP3   OH237328   3.148   2.734   6.575
12462TIP3    H137329   3.142   2.797   6.503
12462TIP3    H237330   3.107   2.778   6.649
12463TIP3   OH237331   8.236   3.220   6.344
12463TIP3    H137332   8.140   3.217   6.354
12463TIP3    H237333   8.265   3.133   6.370
12464TIP3   OH237334   1.062   2.352   3.723
12464TIP3    H137335   1.134   2.366   3.785
12464TIP3    H237336   1.104   2.356   3.637
12465TIP3   OH237337   0.011   2.366   1.934
12465TIP3    H137338  -0.065   2.320   1.900
12465TIP3    H237339   0.065   2.384   1.857
12466TIP3   OH237340   5.428   4.159   0.390
12466TIP3    H137341   5.412   4.145   0.297
12466TIP3    H237342   5.515   4.199   0.394
12467TIP3   OH237343   2.225   1.145   1.118
12467TIP3    H137344   2.270   1.198   1.183
12467TIP3    H237345   2.251   1.055   1.138
12468TIP3   OH237346   1.253   6.896   2.719
12468TIP3    H137347   1.192   6.932   2.654
12468TIP3    H237348   1.339   6.917   2.685
12469TIP3   OH237349   0.549   6.694   0.114
12469TIP3    H137350   0.559   6.786   0.090
12469TIP3    H237351   0.464   6.669   0.076
12470TIP3   OH237352   7.767   4.024   3.233
12470TIP3    H137353   7.726   4.059   3.154
12470TIP3    H237354   7.834   4.089   3.255
12471TIP3   OH237355   4.402   0.386   3.203
12471TIP3    H137356   4.335   0.337   3.157
12471TIP3    H237357   4.413   0.466   3.152
12472TIP3   OH237358   6.874   0.077   4.706
12472TIP3    H137359   6.933   0.125   4.764
12472TIP3    H237360   6.865  -0.009   4.747
12473TIP3   OH237361   2.128   4.465   2.617
12473TIP3    H137362   2.034   4.448   2.622
12473TIP3    H237363   2.168   4.380   2.632
12474TIP3   OH237364   6.880   0.366   4.579
12474TIP3    H137365   6.863   0.276   4.609
12474TIP3    H237366   6.890   0.357   4.484
12475TIP3   OH237367   7.752   6.011   5.058
12475TIP3    H137368   7.719   6.029   5.146
12475TIP3    H237369   7.817   5.942   5.070
12476TIP3   OH237370   7.872   1.921   4.373
12476TIP3    H137371   7.831   1.839   4.344
12476TIP3    H237372   7.844   1.986   4.309
12477TIP3   OH237373   6.918   3.219   4.344
12477TIP3    H137374   6.896   3.309   4.370
12477TIP3    H237375   6.838   3.170   4.358
12478TIP3   OH237376   7.693   6.621   4.516
12478TIP3    H137377   7.779   6.579   4.526
12478TIP3    H237378   7.681   6.629   4.422
12479TIP3   OH237379   0.876   2.078   3.284
12479TIP3    H137380   0.946   2.141   3.268
12479TIP3    H237381   0.811   2.125   3.336
12480TIP3   OH237382   5.912   0.956   4.320
12480TIP3    H137383   5.952   1.034   4.358
12480TIP3    H237384   5.860   0.918   4.391
12481TIP3   OH237385   4.131   4.458   4.955
12481TIP3    H137386   4.192   4.416   5.015
12481TIP3    H237387   4.108   4.541   4.997
12482TIP3   OH237388   2.222   4.128   5.333
12482TIP3    H137389   2.310   4.141   5.297
12482TIP3    H237390   2.197   4.214   5.367
12483TIP3   OH237391   0.160   2.308   1.133
12483TIP3    H137392   0.237   2.253   1.149
12483TIP3    H237393   0.099   2.252   1.085
12484TIP3   OH237394   1.289   2.483   5.069
12484TIP3    H137395   1.350   2.466   4.998
12484TIP3    H237396   1.211   2.519   5.027
12485TIP3   OH237397   7.433   1.619   1.080
12485TIP3    H137398   7.338   1.629   1.067
12485TIP3    H237399   7.471   1.698   1.043
12486TIP3   OH237400   2.627   0.536   4.591
12486TIP3    H137401   2.655   0.475   4.523
12486TIP3    H237402   2.708   0.564   4.633
12487TIP3   OH237403   6.803   5.684   2.773
12487TIP3    H137404   6.878   5.648   2.821
12487TIP3    H237405   6.827   5.776   2.758
12488TIP3   OH237406   7.327   2.515   5.139
12488TIP3    H137407   7.390   2.587   5.131
12488TIP3    H237408   7.323   2.477   5.051
12489TIP3   OH237409   6.723   3.179   3.062
12489TIP3    H137410   6.674   3.184   2.980
12489TIP3    H237411   6.656   3.173   3.130
12490TIP3   OH237412   4.234   2.402   2.850
12490TIP3    H137413   4.170   2.431   2.915
12490TIP3    H237414   4.221   2.307   2.845
12491TIP3   OH237415   6.626   2.344   6.066
12491TIP3    H137416   6.574   2.413   6.024
12491TIP3    H237417   6.675   2.304   5.995
12492TIP3   OH237418   1.586   5.852   3.613
12492TIP3    H137419   1.553   5.939   3.636
12492TIP3    H237420   1.512   5.808   3.572
12493TIP3   OH237421   0.057   6.592   3.409
12493TIP3    H137422  -0.007   6.562   3.345
12493TIP3    H237423   0.133   6.619   3.356
12494TIP3   OH237424   3.669   0.757   3.372
12494TIP3    H137425   3.583   0.770   3.332
12494TIP3    H237426   3.678   0.829   3.435
12495TIP3   OH237427   6.244   4.912   4.241
12495TIP3    H137428   6.241   4.964   4.160
12495TIP3    H237429   6.329   4.934   4.280
12496TIP3   OH237430   7.477   7.179   5.855
12496TIP3    H137431   7.470   7.112   5.787
12496TIP3    H237432   7.447   7.136   5.935
12497TIP3   OH237433   6.356   4.768   2.254
12497TIP3    H137434   6.364   4.782   2.159
12497TIP3    H237435   6.432   4.715   2.277
12498TIP3   OH237436   5.513   4.968   4.635
12498TIP3    H137437   5.422   4.955   4.606
12498TIP3    H237438   5.558   4.999   4.556
12499TIP3   OH237439   0.201   7.592   2.457
12499TIP3    H137440   0.167   7.676   2.426
12499TIP3    H237441   0.296   7.601   2.453
12500TIP3   OH237442   6.816   5.974   4.226
12500TIP3    H137443   6.780   5.963   4.138
12500TIP3    H237444   6.840   5.886   4.254
12501TIP3   OH237445   8.040   0.500   1.104
12501TIP3    H137446   7.963   0.546   1.068
12501TIP3    H237447   8.015   0.480   1.194
12502TIP3   OH237448   5.288   2.074   2.159
12502TIP3    H137449   5.381   2.070   2.135
12502TIP3    H237450   5.270   1.990   2.200
12503TIP3   OH237451   4.985   2.652   3.314
12503TIP3    H137452   5.066   2.609   3.283
12503TIP3    H237453   4.948   2.589   3.376
12504TIP3   OH237454   2.385   3.250   0.901
12504TIP3    H137455   2.352   3.163   0.923
12504TIP3    H237456   2.451   3.235   0.834
12505TIP3   OH237457   7.204   3.297   1.433
12505TIP3    H137458   7.216   3.370   1.372
12505TIP3    H237459   7.241   3.222   1.388
12506TIP3   OH237460   2.705   2.002   5.276
12506TIP3    H137461   2.747   1.965   5.354
12506TIP3    H237462   2.762   1.976   5.204
12507TIP3   OH237463   7.055   1.009   3.386
12507TIP3    H137464   7.094   0.953   3.318
12507TIP3    H237465   7.016   1.081   3.338
12508TIP3   OH237466   2.026   6.069   3.720
12508TIP3    H137467   1.946   6.017   3.729
12508TIP3    H237468   2.019   6.108   3.633
12509TIP3   OH237469   0.908   3.719   1.527
12509TIP3    H137470   0.837   3.740   1.587
12509TIP3    H237471   0.982   3.773   1.557
12510TIP3   OH237472   4.974   0.753   1.072
12510TIP3    H137473   4.901   0.802   1.110
12510TIP3    H237474   4.933   0.683   1.022
12511TIP3   OH237475   5.079   7.389   3.308
12511TIP3    H137476   5.065   7.464   3.366
12511TIP3    H237477   5.173   7.388   3.291
12512TIP3   OH237478   1.435   6.675   1.121
12512TIP3    H137479   1.402   6.763   1.135
12512TIP3    H237480   1.426   6.632   1.206
12513TIP3   OH237481   4.690   0.775   0.523
12513TIP3    H137482   4.747   0.777   0.599
12513TIP3    H237483   4.601   0.764   0.558
12514TIP3   OH237484   0.318   1.738   1.759
12514TIP3    H137485   0.255   1.809   1.742
12514TIP3    H237486   0.382   1.776   1.818
12515TIP3   OH237487   1.227   2.237   2.825
12515TIP3    H137488   1.152   2.273   2.778
12515TIP3    H237489   1.269   2.178   2.762
12516TIP3   OH237490   5.880   6.329   1.286
12516TIP3    H137491   5.842   6.261   1.342
12516TIP3    H237492   5.908   6.283   1.208
12517TIP3   OH237493   0.246   4.018   5.578
12517TIP3    H137494   0.306   4.087   5.548
12517TIP3    H237495   0.271   4.004   5.670
12518TIP3   OH237496   0.110   0.466   1.068
12518TIP3    H137497   0.133   0.383   1.025
12518TIP3    H237498   0.145   0.457   1.157
12519TIP3   OH237499   4.699   5.405   6.303
12519TIP3    H137500   4.782   5.369   6.270
12519TIP3    H237501   4.632   5.348   6.265
12520TIP3   OH237502   4.951   4.415   5.900
12520TIP3    H137503   4.933   4.468   5.978
12520TIP3    H237504   5.023   4.358   5.926
12521TIP3   OH237505   3.609   4.932   2.298
12521TIP3    H137506   3.646   5.011   2.338
12521TIP3    H237507   3.563   4.964   2.221
12522TIP3   OH237508   2.983   1.491   1.120
12522TIP3    H137509   3.049   1.547   1.080
12522TIP3    H237510   3.009   1.487   1.213
12523TIP3   OH237511   5.613   6.655   6.044
12523TIP3    H137512   5.573   6.734   6.079
12523TIP3    H237513   5.701   6.654   6.080
12524TIP3   OH237514   2.905   3.930   6.496
12524TIP3    H137515   2.957   3.994   6.448
12524TIP3    H237516   2.895   3.857   6.435
12525TIP3   OH237517   4.948   6.647   3.356
12525TIP3    H137518   4.929   6.553   3.355
12525TIP3    H237519   5.000   6.661   3.277
12526TIP3   OH237520   7.897   1.150   5.858
12526TIP3    H137521   7.947   1.091   5.916
12526TIP3    H237522   7.944   1.145   5.775
12527TIP3   OH237523   5.386   2.247   2.707
12527TIP3    H137524   5.337   2.188   2.764
12527TIP3    H237525   5.387   2.203   2.622
12528TIP3   OH237526   7.668   2.489   2.979
12528TIP3    H137527   7.701   2.433   3.049
12528TIP3    H237528   7.573   2.475   2.980
12529TIP3   OH237529   4.557   6.401   4.079
12529TIP3    H137530   4.469   6.399   4.118
12529TIP3    H237531   4.601   6.473   4.124
12530TIP3   OH237532   3.662   4.976   6.711
12530TIP3    H137533   3.644   5.069   6.698
12530TIP3    H237534   3.704   4.948   6.631
12531TIP3   OH237535   3.709   4.709   3.797
12531TIP3    H137536   3.771   4.757   3.852
12531TIP3    H237537   3.761   4.639   3.758
12532TIP3   OH237538   4.509   6.004   0.054
12532TIP3    H137539   4.512   6.088   0.100
12532TIP3    H237540   4.545   5.941   0.116
12533TIP3   OH237541   0.878   4.322   4.247
12533TIP3    H137542   0.851   4.244   4.297
12533TIP3    H237543   0.973   4.321   4.251
12534TIP3   OH237544   4.875   4.184   6.069
12534TIP3    H137545   4.919   4.262   6.103
12534TIP3    H237546   4.812   4.218   6.005
12535TIP3   OH237547   3.041   6.650   5.951
12535TIP3    H137548   2.987   6.721   5.985
12535TIP3    H237549   3.091   6.691   5.880
12536TIP3   OH237550   5.635   0.424   4.284
12536TIP3    H137551   5.556   0.457   4.326
12536TIP3    H237552   5.621   0.437   4.190
12537TIP3   OH237553   3.067   0.093   0.861
12537TIP3    H137554   3.002   0.149   0.817
12537TIP3    H237555   3.062   0.009   0.814
12538TIP3   OH237556   6.046   6.726   4.535
12538TIP3    H137557   5.974   6.741   4.474
12538TIP3    H237558   6.071   6.814   4.565
12539TIP3   OH237559   4.938   4.290   2.694
12539TIP3    H137560   4.996   4.247   2.632
12539TIP3    H237561   4.947   4.384   2.675
12540TIP3   OH237562   5.580   2.961   0.368
12540TIP3    H137563   5.671   2.989   0.362
12540TIP3    H237564   5.530   3.042   0.373
12541TIP3   OH237565   3.030   4.429   1.919
12541TIP3    H137566   2.988   4.508   1.887
12541TIP3    H237567   3.076   4.393   1.843
12542TIP3   OH237568   2.969   1.672   6.250
12542TIP3    H137569   3.005   1.597   6.204
12542TIP3    H237570   2.961   1.740   6.183
12543TIP3   OH237571   1.161   6.182   5.637
12543TIP3    H137572   1.093   6.184   5.704
12543TIP3    H237573   1.117   6.214   5.558
12544TIP3   OH237574   4.649   2.160   0.426
12544TIP3    H137575   4.566   2.183   0.468
12544TIP3    H237576   4.650   2.210   0.344
12545TIP3   OH237577   5.211   2.002   2.808
12545TIP3    H137578   5.115   1.999   2.814
12545TIP3    H237579   5.230   1.972   2.719
12546TIP3   OH237580   5.089   4.831   3.957
12546TIP3    H137581   5.145   4.907   3.975
12546TIP3    H237582   5.132   4.786   3.884
12547TIP3   OH237583   3.112   6.094   6.559
12547TIP3    H137584   3.153   6.180   6.555
12547TIP3    H237585   3.185   6.033   6.569
12548TIP3   OH237586   5.641   4.290   0.666
12548TIP3    H137587   5.709   4.250   0.720
12548TIP3    H237588   5.673   4.278   0.576
12549TIP3   OH237589   2.595   1.945   2.448
12549TIP3    H137590   2.627   1.957   2.359
12549TIP3    H237591   2.577   2.034   2.479
12550TIP3   OH237592   8.154   7.541   4.055
12550TIP3    H137593   8.140   7.461   4.106
12550TIP3    H237594   8.134   7.612   4.116
12551TIP3   OH237595   2.005   7.012   4.568
12551TIP3    H137596   1.952   6.944   4.610
12551TIP3    H237597   2.093   6.977   4.568
12552TIP3   OH237598   1.252   2.191   4.866
12552TIP3    H137599   1.179   2.246   4.840
12552TIP3    H237600   1.330   2.245   4.850
12553TIP3   OH237601   2.076   3.330   1.062
12553TIP3    H137602   2.029   3.285   1.132
12553TIP3    H237603   2.160   3.285   1.057
12554TIP3   OH237604   0.527   1.384   4.753
12554TIP3    H137605   0.613   1.388   4.711
12554TIP3    H237606   0.512   1.473   4.786
12555TIP3   OH237607   4.352   4.276   5.612
12555TIP3    H137608   4.386   4.288   5.523
12555TIP3    H237609   4.320   4.363   5.637
12556TIP3   OH237610   1.730   0.128   6.073
12556TIP3    H137611   1.733   0.069   6.149
12556TIP3    H237612   1.732   0.069   5.998
12557TIP3   OH237613   2.172   1.205   4.272
12557TIP3    H137614   2.102   1.264   4.297
12557TIP3    H237615   2.146   1.120   4.308
12558TIP3   OH237616   7.850   2.585   0.852
12558TIP3    H137617   7.904   2.592   0.774
12558TIP3    H237618   7.766   2.624   0.828
12559TIP3   OH237619   4.381   1.330   3.746
12559TIP3    H137620   4.312   1.265   3.760
12559TIP3    H237621   4.348   1.384   3.674
12560TIP3   OH237622   0.281   4.470   6.269
12560TIP3    H137623   0.293   4.466   6.175
12560TIP3    H237624   0.360   4.431   6.306
12561TIP3   OH237625   5.274   7.524   3.682
12561TIP3    H137626   5.259   7.618   3.677
12561TIP3    H237627   5.369   7.516   3.697
12562TIP3   OH237628   5.027   2.204   6.723
12562TIP3    H137629   4.981   2.189   6.805
12562TIP3    H237630   4.958   2.222   6.659
12563TIP3   OH237631   1.960   6.510   2.095
12563TIP3    H137632   1.944   6.489   2.187
12563TIP3    H237633   1.892   6.574   2.073
12564TIP3   OH237634   6.049   6.223   2.798
12564TIP3    H137635   6.132   6.267   2.780
12564TIP3    H237636   6.003   6.282   2.857
12565TIP3   OH237637   8.044   2.177   4.067
12565TIP3    H137638   8.027   2.152   4.158
12565TIP3    H237639   8.005   2.105   4.015
12566TIP3   OH237640   4.485   4.757   5.413
12566TIP3    H137641   4.564   4.763   5.467
12566TIP3    H237642   4.501   4.683   5.355
12567TIP3   OH237643   0.349   6.423   1.873
12567TIP3    H137644   0.441   6.448   1.884
12567TIP3    H237645   0.342   6.396   1.782
12568TIP3   OH237646   5.346   6.355   2.132
12568TIP3    H137647   5.251   6.369   2.135
12568TIP3    H237648   5.356   6.263   2.109
12569TIP3   OH237649   6.797   7.535   3.845
12569TIP3    H137650   6.832   7.559   3.931
12569TIP3    H237651   6.762   7.447   3.857
12570TIP3   OH237652   6.247   1.961   5.960
12570TIP3    H137653   6.311   1.992   6.023
12570TIP3    H237654   6.272   1.870   5.943
12571TIP3   OH237655   7.780   1.287   3.167
12571TIP3    H137656   7.822   1.206   3.196
12571TIP3    H237657   7.844   1.356   3.186
12572TIP3   OH237658   3.880   4.554   3.634
12572TIP3    H137659   3.948   4.550   3.566
12572TIP3    H237660   3.816   4.489   3.608
12573TIP3   OH237661   7.644   5.365   3.165
12573TIP3    H137662   7.608   5.334   3.248
12573TIP3    H237663   7.633   5.292   3.105
12574TIP3   OH237664   5.619   7.211   0.555
12574TIP3    H137665   5.708   7.237   0.577
12574TIP3    H237666   5.567   7.291   0.568
12575TIP3   OH237667   2.480   3.198   0.323
12575TIP3    H137668   2.470   3.265   0.390
12575TIP3    H237669   2.397   3.197   0.276
12576TIP3   OH237670   7.671   2.480   1.724
12576TIP3    H137671   7.692   2.487   1.631
12576TIP3    H237672   7.587   2.433   1.726
12577TIP3   OH237673   2.388   7.198   3.581
12577TIP3    H137674   2.478   7.171   3.602
12577TIP3    H237675   2.354   7.232   3.664
12578TIP3   OH237676   4.847   0.660   6.649
12578TIP3    H137677   4.757   0.626   6.650
12578TIP3    H237678   4.899   0.590   6.610
12579TIP3   OH237679   3.836   2.498   2.171
12579TIP3    H137680   3.780   2.555   2.117
12579TIP3    H237681   3.889   2.558   2.223
12580TIP3   OH237682   2.415   1.676   4.648
12580TIP3    H137683   2.380   1.755   4.688
12580TIP3    H237684   2.340   1.634   4.605
12581TIP3   OH237685   4.009   2.635   2.783
12581TIP3    H137686   3.966   2.549   2.780
12581TIP3    H237687   4.048   2.639   2.870
12582TIP3   OH237688   1.587   1.529   0.178
12582TIP3    H137689   1.666   1.484   0.149
12582TIP3    H237690   1.618   1.604   0.229
12583TIP3   OH237691   1.289   7.545   4.561
12583TIP3    H137692   1.350   7.606   4.601
12583TIP3    H237693   1.258   7.590   4.482
12584TIP3   OH237694   2.590   3.675   0.023
12584TIP3    H137695   2.561   3.584   0.014
12584TIP3    H237696   2.685   3.669   0.033
12585TIP3   OH237697   4.197   5.812   0.771
12585TIP3    H137698   4.156   5.744   0.824
12585TIP3    H237699   4.274   5.838   0.820
12586TIP3   OH237700   4.383   0.761   5.693
12586TIP3    H137701   4.390   0.839   5.638
12586TIP3    H237702   4.301   0.771   5.740
12587TIP3   OH237703   6.737   6.415   1.041
12587TIP3    H137704   6.794   6.366   0.981
12587TIP3    H237705   6.798   6.458   1.102
12588TIP3   OH237706   5.472   6.866   5.002
12588TIP3    H137707   5.564   6.888   5.016
12588TIP3    H237708   5.448   6.814   5.078
12589TIP3   OH237709   5.790   7.373   2.507
12589TIP3    H137710   5.885   7.384   2.505
12589TIP3    H237711   5.757   7.438   2.444
12590TIP3   OH237712   4.960   2.627   0.658
12590TIP3    H137713   4.901   2.552   0.652
12590TIP3    H237714   5.004   2.617   0.742
12591TIP3   OH237715   3.629   6.759   4.577
12591TIP3    H137716   3.676   6.705   4.514
12591TIP3    H237717   3.564   6.701   4.616
12592TIP3   OH237718   1.420   4.906   3.137
12592TIP3    H137719   1.364   4.951   3.074
12592TIP3    H237720   1.360   4.845   3.181
12593TIP3   OH237721   5.789   5.487   2.090
12593TIP3    H137722   5.840   5.568   2.098
12593TIP3    H237723   5.851   5.423   2.057
12594TIP3   OH237724   2.284   3.189   2.987
12594TIP3    H137725   2.282   3.100   3.024
12594TIP3    H237726   2.281   3.176   2.893
12595TIP3   OH237727   2.671   6.777   5.890
12595TIP3    H137728   2.620   6.729   5.955
12595TIP3    H237729   2.611   6.843   5.856
12596TIP3   OH237730   1.581   0.374   4.759
12596TIP3    H137731   1.517   0.411   4.820
12596TIP3    H237732   1.559   0.413   4.674
12597TIP3   OH237733   3.191   0.798   6.448
12597TIP3    H137734   3.109   0.840   6.422
12597TIP3    H237735   3.247   0.805   6.370
12598TIP3   OH237736   8.024   0.785   3.982
12598TIP3    H137737   8.010   0.876   3.957
12598TIP3    H237738   8.099   0.787   4.041
12599TIP3   OH237739   6.475   5.906   4.377
12599TIP3    H137740   6.478   5.943   4.466
12599TIP3    H237741   6.418   5.830   4.384
12600TIP3   OH237742   8.284   6.796   4.542
12600TIP3    H137743   8.236   6.749   4.610
12600TIP3    H237744   8.365   6.746   4.531
12601TIP3   OH237745   0.598   3.506   6.421
12601TIP3    H137746   0.570   3.417   6.445
12601TIP3    H237747   0.560   3.561   6.489
12602TIP3   OH237748   6.846   0.311   1.598
12602TIP3    H137749   6.767   0.272   1.562
12602TIP3    H237750   6.912   0.300   1.529
12603TIP3   OH237751   1.217   4.386   1.948
12603TIP3    H137752   1.185   4.476   1.955
12603TIP3    H237753   1.239   4.362   2.039
12604TIP3   OH237754   5.977   6.920   1.393
12604TIP3    H137755   6.073   6.912   1.396
12604TIP3    H237756   5.958   6.935   1.300
12605TIP3   OH237757   0.767   6.132   1.632
12605TIP3    H137758   0.821   6.168   1.702
12605TIP3    H237759   0.677   6.136   1.666
12606TIP3   OH237760   6.715   5.039   3.789
12606TIP3    H137761   6.795   5.063   3.837
12606TIP3    H237762   6.743   5.034   3.697
12607TIP3   OH237763   7.775   7.481   1.124
12607TIP3    H137764   7.713   7.412   1.149
12607TIP3    H237765   7.770   7.485   1.029
12608TIP3   OH237766   1.741   0.406   0.326
12608TIP3    H137767   1.762   0.446   0.242
12608TIP3    H237768   1.793   0.326   0.328
12609TIP3   OH237769   3.667   7.467   2.838
12609TIP3    H137770   3.664   7.488   2.745
12609TIP3    H237771   3.701   7.547   2.879
12610TIP3   OH237772   4.047   7.487   6.326
12610TIP3    H137773   4.016   7.575   6.303
12610TIP3    H237774   3.967   7.437   6.342
12611TIP3   OH237775   6.433   7.616   2.264
12611TIP3    H137776   6.468   7.535   2.302
12611TIP3    H237777   6.489   7.685   2.300
12612TIP3   OH237778   4.406   5.956   0.934
12612TIP3    H137779   4.434   6.003   0.856
12612TIP3    H237780   4.430   6.014   1.006
12613TIP3   OH237781   4.970   4.767   5.873
12613TIP3    H137782   4.983   4.715   5.952
12613TIP3    H237783   5.032   4.730   5.810
12614TIP3   OH237784   0.599   0.236   2.800
12614TIP3    H137785   0.609   0.329   2.817
12614TIP3    H237786   0.667   0.194   2.853
12615TIP3   OH237787   2.914   2.491   1.299
12615TIP3    H137788   2.857   2.414   1.291
12615TIP3    H237789   2.862   2.554   1.349
12616TIP3   OH237790   5.138   4.970   3.014
12616TIP3    H137791   5.056   4.943   3.053
12616TIP3    H237792   5.176   4.889   2.979
12617TIP3   OH237793   0.936   1.077   5.741
12617TIP3    H137794   0.939   1.167   5.773
12617TIP3    H237795   0.900   1.084   5.653
12618TIP3   OH237796   3.095   5.274   1.577
12618TIP3    H137797   3.060   5.295   1.490
12618TIP3    H237798   3.173   5.222   1.560
12619TIP3   OH237799   3.703   3.961   1.792
12619TIP3    H137800   3.746   3.913   1.721
12619TIP3    H237801   3.614   3.926   1.793
12620TIP3   OH237802   0.757   1.231   2.855
12620TIP3    H137803   0.715   1.197   2.776
12620TIP3    H237804   0.814   1.302   2.824
12621TIP3   OH237805   7.829   2.365   4.005
12621TIP3    H137806   7.815   2.343   3.913
12621TIP3    H237807   7.924   2.372   4.014
12622TIP3   OH237808   5.409   1.019   1.461
12622TIP3    H137809   5.446   0.945   1.508
12622TIP3    H237810   5.409   0.992   1.369
12623TIP3   OH237811   7.351   5.448   0.301
12623TIP3    H137812   7.310   5.426   0.217
12623TIP3    H237813   7.282   5.490   0.351
12624TIP3   OH237814   6.425   5.281   3.588
12624TIP3    H137815   6.431   5.238   3.502
12624TIP3    H237816   6.345   5.246   3.627
12625TIP3   OH237817   4.713   5.990   3.580
12625TIP3    H137818   4.674   5.925   3.638
12625TIP3    H237819   4.806   5.990   3.603
12626TIP3   OH237820   2.333   1.180   0.338
12626TIP3    H137821   2.399   1.243   0.366
12626TIP3    H237822   2.278   1.167   0.415
12627TIP3   OH237823   1.007   3.826   3.824
12627TIP3    H137824   0.947   3.887   3.868
12627TIP3    H237825   0.956   3.789   3.752
12628TIP3   OH237826   6.846   6.372   1.688
12628TIP3    H137827   6.924   6.325   1.657
12628TIP3    H237828   6.850   6.457   1.644
12629TIP3   OH237829   5.305   6.313   5.221
12629TIP3    H137830   5.337   6.403   5.222
12629TIP3    H237831   5.360   6.268   5.286
12630TIP3   OH237832   1.384   1.095   3.386
12630TIP3    H137833   1.480   1.096   3.391
12630TIP3    H237834   1.355   1.104   3.477
12631TIP3   OH237835   3.378   4.340   1.922
12631TIP3    H137836   3.353   4.283   1.995
12631TIP3    H237837   3.398   4.280   1.851
12632TIP3   OH237838   5.178   7.585   1.907
12632TIP3    H137839   5.209   7.662   1.954
12632TIP3    H237840   5.111   7.618   1.848
12633TIP3   OH237841   2.893   7.348   0.678
12633TIP3    H137842   2.949   7.396   0.617
12633TIP3    H237843   2.840   7.416   0.720
12634TIP3   OH237844   1.711   0.776   6.756
12634TIP3    H137845   1.778   0.828   6.802
12634TIP3    H237846   1.704   0.818   6.670
12635TIP3   OH237847   7.264   4.813   4.117
12635TIP3    H137848   7.183   4.786   4.160
12635TIP3    H237849   7.280   4.746   4.051
12636TIP3   OH237850   3.320   0.764   3.375
12636TIP3    H137851   3.262   0.713   3.432
12636TIP3    H237852   3.315   0.720   3.291
12637TIP3   OH237853   6.229   6.620   2.577
12637TIP3    H137854   6.174   6.543   2.586
12637TIP3    H237855   6.168   6.694   2.578
12638TIP3   OH237856   2.920   7.225   1.566
12638TIP3    H137857   2.967   7.182   1.638
12638TIP3    H237858   2.852   7.163   1.541
12639TIP3   OH237859   0.778   6.482   2.135
12639TIP3    H137860   0.801   6.568   2.171
12639TIP3    H237861   0.827   6.420   2.189
12640TIP3   OH237862   2.869   7.233   4.234
12640TIP3    H137863   2.922   7.241   4.314
12640TIP3    H237864   2.780   7.215   4.266
12641TIP3   OH237865   0.498   0.978   0.758
12641TIP3    H137866   0.405   0.963   0.779
12641TIP3    H237867   0.542   0.971   0.843
12642TIP3   OH237868   7.148   5.639   3.768
12642TIP3    H137869   7.068   5.615   3.722
12642TIP3    H237870   7.139   5.733   3.782
12643TIP3   OH237871   1.039   1.162   0.784
12643TIP3    H137872   1.032   1.240   0.840
12643TIP3    H237873   1.085   1.193   0.706
12644TIP3   OH237874   5.711   0.703   5.073
12644TIP3    H137875   5.758   0.786   5.067
12644TIP3    H237876   5.779   0.637   5.069
12645TIP3   OH237877   0.363   2.527   3.537
12645TIP3    H137878   0.388   2.619   3.528
12645TIP3    H237879   0.419   2.493   3.606
12646TIP3   OH237880   0.897   0.603   0.078
12646TIP3    H137881   0.870   0.639  -0.007
12646TIP3    H237882   0.987   0.572   0.062
12647TIP3   OH237883   5.258   6.230   5.644
12647TIP3    H137884   5.275   6.211   5.552
12647TIP3    H237885   5.253   6.145   5.686
12648TIP3   OH237886   6.048   3.841   4.382
12648TIP3    H137887   6.060   3.919   4.436
12648TIP3    H237888   6.056   3.768   4.444
12649TIP3   OH237889   7.228   2.083   2.709
12649TIP3    H137890   7.138   2.107   2.733
12649TIP3    H237891   7.276   2.165   2.714
12650TIP3   OH237892   3.819   0.368   2.156
12650TIP3    H137893   3.906   0.340   2.185
12650TIP3    H237894   3.761   0.297   2.182
12651TIP3   OH237895   4.234   5.645   4.492
12651TIP3    H137896   4.153   5.600   4.466
12651TIP3    H237897   4.295   5.574   4.511
12652TIP3   OH237898   0.228   6.022   2.007
12652TIP3    H137899   0.233   5.951   1.943
12652TIP3    H237900   0.215   5.978   2.091
12653TIP3   OH237901   6.076   7.025   2.870
12653TIP3    H137902   6.160   7.053   2.906
12653TIP3    H237903   6.020   7.011   2.947
12654TIP3   OH237904   4.020   3.918   1.077
12654TIP3    H137905   3.976   3.960   1.151
12654TIP3    H237906   3.994   3.826   1.082
12655TIP3   OH237907   1.073   5.681   2.715
12655TIP3    H137908   1.025   5.764   2.707
12655TIP3    H237909   1.146   5.690   2.652
12656TIP3   OH237910   0.824   2.502   2.884
12656TIP3    H137911   0.770   2.566   2.930
12656TIP3    H237912   0.764   2.459   2.823
12657TIP3   OH237913   4.182   7.423   0.208
12657TIP3    H137914   4.215   7.380   0.129
12657TIP3    H237915   4.087   7.410   0.205
12658TIP3   OH237916   7.011   7.206   4.577
12658TIP3    H137917   7.019   7.112   4.562
12658TIP3    H237918   6.920   7.227   4.553
12659TIP3   OH237919   7.505   1.959   0.938
12659TIP3    H137920   7.564   1.924   0.871
12659TIP3    H237921   7.459   2.030   0.894
12660TIP3   OH237922   4.829   1.388   4.325
12660TIP3    H137923   4.916   1.403   4.362
12660TIP3    H237924   4.770   1.398   4.399
12661TIP3   OH237925   5.290   4.488   2.036
12661TIP3    H137926   5.210   4.526   1.998
12661TIP3    H237927   5.311   4.415   1.978
12662TIP3   OH237928   4.412   1.486   0.890
12662TIP3    H137929   4.434   1.449   0.804
12662TIP3    H237930   4.490   1.472   0.943
12663TIP3   OH237931   5.259   5.313   4.233
12663TIP3    H137932   5.341   5.333   4.189
12663TIP3    H237933   5.275   5.232   4.280
12664TIP3   OH237934   7.648   3.089   3.817
12664TIP3    H137935   7.688   3.101   3.731
12664TIP3    H237936   7.640   2.994   3.827
12665TIP3   OH237937   4.483   2.243   6.092
12665TIP3    H137938   4.394   2.214   6.070
12665TIP3    H237939   4.483   2.251   6.187
12666TIP3   OH237940   1.471   3.449   0.716
12666TIP3    H137941   1.546   3.407   0.673
12666TIP3    H237942   1.412   3.472   0.644
12667TIP3   OH237943   7.585   7.217   1.746
12667TIP3    H137944   7.503   7.190   1.787
12667TIP3    H237945   7.561   7.237   1.655
12668TIP3   OH237946   3.788   1.580   1.233
12668TIP3    H137947   3.833   1.664   1.234
12668TIP3    H237948   3.713   1.592   1.292
12669TIP3   OH237949   6.914   7.656   2.860
12669TIP3    H137950   6.904   7.592   2.931
12669TIP3    H237951   6.855   7.728   2.884
12670TIP3   OH237952   4.973   5.779   2.733
12670TIP3    H137953   4.896   5.758   2.785
12670TIP3    H237954   4.981   5.706   2.672
12671TIP3   OH237955   0.411   1.198   5.344
12671TIP3    H137956   0.360   1.244   5.410
12671TIP3    H237957   0.436   1.115   5.386
12672TIP3   OH237958   7.500   6.502   4.970
12672TIP3    H137959   7.484   6.549   5.051
12672TIP3    H237960   7.595   6.506   4.958
12673TIP3   OH237961   0.569   6.538   3.148
12673TIP3    H137962   0.638   6.476   3.124
12673TIP3    H237963   0.504   6.484   3.193
12674TIP3   OH237964   4.880   4.978   1.525
12674TIP3    H137965   4.891   4.904   1.585
12674TIP3    H237966   4.920   4.948   1.443
12675TIP3   OH237967   4.216   1.909   6.302
12675TIP3    H137968   4.140   1.892   6.358
12675TIP3    H237969   4.266   1.974   6.350
12676TIP3   OH237970   1.731   6.868   0.404
12676TIP3    H137971   1.781   6.787   0.412
12676TIP3    H237972   1.694   6.864   0.316
12677TIP3   OH237973   3.069   6.260   3.438
12677TIP3    H137974   3.060   6.354   3.424
12677TIP3    H237975   3.116   6.229   3.360
12678TIP3   OH237976   8.192   1.087   4.774
12678TIP3    H137977   8.101   1.088   4.744
12678TIP3    H237978   8.233   1.014   4.728
12679TIP3   OH237979   1.462   4.576   5.082
12679TIP3    H137980   1.551   4.611   5.087
12679TIP3    H237981   1.445   4.542   5.170
12680TIP3   OH237982   3.425   7.818   4.477
12680TIP3    H137983   3.455   7.768   4.552
12680TIP3    H237984   3.434   7.758   4.403
12681TIP3   OH237985   2.714   1.215   2.464
12681TIP3    H137986   2.795   1.256   2.495
12681TIP3    H237987   2.736   1.122   2.453
12682TIP3   OH237988   7.254   3.996   3.552
12682TIP3    H137989   7.210   4.062   3.605
12682TIP3    H237990   7.268   4.039   3.468
12683TIP3   OH237991   3.953   0.625   1.579
12683TIP3    H137992   3.957   0.624   1.483
12683TIP3    H237993   4.018   0.560   1.606
12684TIP3   OH237994   3.836   3.219   1.265
12684TIP3    H137995   3.754   3.169   1.259
12684TIP3    H237996   3.898   3.169   1.212
12685TIP3   OH237997   4.588   3.971   6.780
12685TIP3    H137998   4.632   3.891   6.752
12685TIP3    H237999   4.522   3.988   6.712
12686TIP3   OH238000   5.402   0.825   1.117
12686TIP3    H138001   5.350   0.760   1.164
12686TIP3    H238002   5.474   0.774   1.079
12687TIP3   OH238003   3.181   3.417   5.898
12687TIP3    H138004   3.186   3.373   5.814
12687TIP3    H238005   3.206   3.508   5.880
12688TIP3   OH238006   4.467   6.537   2.623
12688TIP3    H138007   4.561   6.536   2.641
12688TIP3    H238008   4.428   6.563   2.707
12689TIP3   OH238009   4.043   1.179   2.906
12689TIP3    H138010   3.974   1.138   2.958
12689TIP3    H238011   3.997   1.240   2.849
12690TIP3   OH238012   1.467   5.899   6.526
12690TIP3    H138013   1.535   5.835   6.510
12690TIP3    H238014   1.385   5.850   6.521
12691TIP3   OH238015   4.180   7.523   4.985
12691TIP3    H138016   4.247   7.473   4.938
12691TIP3    H238017   4.216   7.533   5.073
12692TIP3   OH238018   7.249   3.516   4.556
12692TIP3    H138019   7.236   3.521   4.650
12692TIP3    H238020   7.181   3.573   4.519
12693TIP3   OH238021   3.949   1.230   5.833
12693TIP3    H138022   3.895   1.305   5.857
12693TIP3    H238023   4.033   1.268   5.805
12694TIP3   OH238024   7.509   7.565   6.231
12694TIP3    H138025   7.590   7.550   6.279
12694TIP3    H238026   7.440   7.529   6.286
12695TIP3   OH238027   3.531   5.746   5.294
12695TIP3    H138028   3.439   5.750   5.320
12695TIP3    H238029   3.552   5.652   5.297
12696TIP3   OH238030   5.266   2.701   3.310
12696TIP3    H138031   5.306   2.657   3.385
12696TIP3    H238032   5.311   2.786   3.306
12697TIP3   OH238033   5.630   7.492   1.889
12697TIP3    H138034   5.573   7.431   1.841
12697TIP3    H238035   5.718   7.457   1.877
12698TIP3   OH238036   3.097   2.232   6.478
12698TIP3    H138037   3.038   2.229   6.554
12698TIP3    H238038   3.071   2.158   6.424
12699TIP3   OH238039   4.018   2.205   2.244
12699TIP3    H138040   3.991   2.257   2.320
12699TIP3    H238041   3.936   2.166   2.212
12700TIP3   OH238042   3.634   0.490   5.011
12700TIP3    H138043   3.618   0.506   5.104
12700TIP3    H238044   3.652   0.396   5.006
12701TIP3   OH238045   6.055   5.972   0.414
12701TIP3    H138046   6.122   5.934   0.470
12701TIP3    H238047   6.101   5.995   0.334
12702TIP3   OH238048   6.532   4.117   1.586
12702TIP3    H138049   6.601   4.069   1.540
12702TIP3    H238050   6.520   4.197   1.534
12703TIP3   OH238051   0.687   6.749   2.314
12703TIP3    H138052   0.645   6.742   2.399
12703TIP3    H238053   0.652   6.830   2.276
12704TIP3   OH238054   2.626   7.439   1.329
12704TIP3    H138055   2.634   7.407   1.419
12704TIP3    H238056   2.570   7.517   1.336
12705TIP3   OH238057   2.922   3.530   3.148
12705TIP3    H138058   2.844   3.546   3.200
12705TIP3    H238059   2.960   3.617   3.133
12706TIP3   OH238060   0.669   1.449   1.462
12706TIP3    H138061   0.616   1.495   1.527
12706TIP3    H238062   0.667   1.507   1.385
12707TIP3   OH238063   4.089   4.481   3.822
12707TIP3    H138064   4.115   4.530   3.900
12707TIP3    H238065   4.024   4.536   3.780
12708TIP3   OH238066   6.401   0.771   4.468
12708TIP3    H138067   6.455   0.718   4.527
12708TIP3    H238068   6.364   0.708   4.406
12709TIP3   OH238069   5.146   1.631   0.841
12709TIP3    H138070   5.083   1.570   0.804
12709TIP3    H238071   5.204   1.653   0.768
12710TIP3   OH238072   3.937  -0.011   3.780
12710TIP3    H138073   3.984   0.000   3.863
12710TIP3    H238074   3.885   0.069   3.772
12711TIP3   OH238075   2.582   3.824   1.821
12711TIP3    H138076   2.632   3.896   1.782
12711TIP3    H238077   2.649   3.768   1.861
12712TIP3   OH238078   1.723   5.961   1.179
12712TIP3    H138079   1.671   5.949   1.258
12712TIP3    H238080   1.777   5.883   1.173
12713TIP3   OH238081   3.422   0.965   6.019
12713TIP3    H138082   3.458   0.881   5.989
12713TIP3    H238083   3.418   0.957   6.114
12714TIP3   OH238084   0.184   5.302   2.179
12714TIP3    H138085   0.244   5.228   2.171
12714TIP3    H238086   0.196   5.333   2.269
12715TIP3   OH238087   7.972   4.406   4.074
12715TIP3    H138088   7.957   4.313   4.058
12715TIP3    H238089   7.968   4.416   4.169
12716TIP3   OH238090   6.748   5.929   6.116
12716TIP3    H138091   6.779   5.845   6.149
12716TIP3    H238092   6.821   5.964   6.065
12717TIP3   OH238093   4.529   1.426   2.477
12717TIP3    H138094   4.494   1.515   2.487
12717TIP3    H238095   4.470   1.371   2.529
12718TIP3   OH238096   2.826   2.926   6.336
12718TIP3    H138097   2.779   2.865   6.393
12718TIP3    H238098   2.823   2.886   6.249
12719TIP3   OH238099   4.951   2.943   5.865
12719TIP3    H138100   4.860   2.938   5.893
12719TIP3    H238101   4.999   2.891   5.930
12720TIP3   OH238102   0.914   7.449   0.882
12720TIP3    H138103   0.956   7.439   0.797
12720TIP3    H238104   0.926   7.542   0.904
12721TIP3   OH238105   7.837   1.684   3.000
12721TIP3    H138106   7.867   1.637   3.078
12721TIP3    H238107   7.743   1.696   3.014
12722TIP3   OH238108   0.396   3.394   0.639
12722TIP3    H138109   0.448   3.416   0.716
12722TIP3    H238110   0.313   3.440   0.652
12723TIP3   OH238111   4.116   2.695   3.033
12723TIP3    H138112   4.210   2.686   3.050
12723TIP3    H238113   4.074   2.657   3.110
12724TIP3   OH238114   1.054   4.466   5.428
12724TIP3    H138115   1.070   4.439   5.338
12724TIP3    H238116   1.090   4.554   5.434
12725TIP3   OH238117   3.359   2.128   4.860
12725TIP3    H138118   3.360   2.037   4.831
12725TIP3    H238119   3.297   2.128   4.933
12726TIP3   OH238120   7.936   4.860   3.451
12726TIP3    H138121   7.903   4.783   3.497
12726TIP3    H238122   8.021   4.832   3.417
12727TIP3   OH238123   2.598   5.093   4.476
12727TIP3    H138124   2.564   5.100   4.565
12727TIP3    H238125   2.581   5.179   4.437
12728TIP3   OH238126   0.192   5.445   1.351
12728TIP3    H138127   0.284   5.471   1.358
12728TIP3    H238128   0.194   5.361   1.305
12729TIP3   OH238129   5.784   5.255   3.562
12729TIP3    H138130   5.696   5.219   3.551
12729TIP3    H238131   5.794   5.266   3.656
12730TIP3   OH238132   5.625   4.377   3.021
12730TIP3    H138133   5.626   4.462   2.976
12730TIP3    H238134   5.559   4.386   3.089
12731TIP3   OH238135   6.733   1.085   2.405
12731TIP3    H138136   6.743   0.990   2.410
12731TIP3    H238137   6.696   1.109   2.490
12732TIP3   OH238138   3.755   6.752   6.557
12732TIP3    H138139   3.761   6.835   6.511
12732TIP3    H238140   3.663   6.728   6.550
12733TIP3   OH238141   6.502   3.544   3.696
12733TIP3    H138142   6.523   3.598   3.772
12733TIP3    H238143   6.440   3.479   3.730
12734TIP3   OH238144   2.111   1.528   3.166
12734TIP3    H138145   2.036   1.511   3.108
12734TIP3    H238146   2.157   1.601   3.124
12735TIP3   OH238147   5.652   2.000   1.404
12735TIP3    H138148   5.566   1.969   1.377
12735TIP3    H238149   5.642   2.095   1.413
12736TIP3   OH238150   5.381   3.640   1.710
12736TIP3    H138151   5.321   3.690   1.765
12736TIP3    H238152   5.333   3.561   1.687
12737TIP3   OH238153   2.077   5.502   2.033
12737TIP3    H138154   2.001   5.559   2.021
12737TIP3    H238155   2.089   5.459   1.949
12738TIP3   OH238156   4.911   5.111   6.471
12738TIP3    H138157   4.860   5.190   6.487
12738TIP3    H238158   4.989   5.141   6.425
12739TIP3   OH238159   5.936   4.538   3.126
12739TIP3    H138160   5.980   4.465   3.085
12739TIP3    H238161   5.888   4.500   3.200
12740TIP3   OH238162   8.166   4.280   1.500
12740TIP3    H138163   8.125   4.242   1.578
12740TIP3    H238164   8.120   4.239   1.426
12741TIP3   OH238165   6.447   2.011   5.168
12741TIP3    H138166   6.360   1.988   5.201
12741TIP3    H238167   6.443   1.994   5.074
12742TIP3   OH238168   3.463   2.939   0.956
12742TIP3    H138169   3.467   3.025   0.998
12742TIP3    H238170   3.539   2.892   0.989
12743TIP3   OH238171   5.436   4.792   0.734
12743TIP3    H138172   5.431   4.700   0.759
12743TIP3    H238173   5.345   4.823   0.736
12744TIP3   OH238174   2.173   3.776   4.238
12744TIP3    H138175   2.120   3.846   4.200
12744TIP3    H238176   2.109   3.716   4.278
12745TIP3   OH238177   1.710   2.071   6.229
12745TIP3    H138178   1.688   1.994   6.281
12745TIP3    H238179   1.736   2.137   6.294
12746TIP3   OH238180   0.725   4.711   4.197
12746TIP3    H138181   0.734   4.678   4.108
12746TIP3    H238182   0.690   4.638   4.247
12747TIP3   OH238183   6.623   6.248   5.554
12747TIP3    H138184   6.628   6.153   5.567
12747TIP3    H238185   6.563   6.278   5.622
12748TIP3   OH238186   5.473   4.939   4.125
12748TIP3    H138187   5.549   4.945   4.066
12748TIP3    H238188   5.501   4.878   4.193
12749TIP3   OH238189   1.717   0.916   1.050
12749TIP3    H138190   1.744   1.008   1.049
12749TIP3    H238191   1.643   0.914   1.111
12750TIP3   OH238192   1.112   1.291   5.188
12750TIP3    H138193   1.065   1.230   5.131
12750TIP3    H238194   1.175   1.237   5.235
12751TIP3   OH238195   0.467   6.307   5.621
12751TIP3    H138196   0.426   6.303   5.534
12751TIP3    H238197   0.458   6.218   5.655
12752TIP3   OH238198   2.676   3.824   3.063
12752TIP3    H138199   2.649   3.905   3.107
12752TIP3    H238200   2.771   3.830   3.058
12753TIP3   OH238201   5.893   2.005   1.631
12753TIP3    H138202   5.911   1.916   1.659
12753TIP3    H238203   5.838   1.996   1.554
12754TIP3   OH238204   1.070   2.771   5.470
12754TIP3    H138205   0.998   2.820   5.510
12754TIP3    H238206   1.055   2.780   5.376
12755TIP3   OH238207   7.982   0.348   0.078
12755TIP3    H138208   7.890   0.368   0.060
12755TIP3    H238209   7.980   0.261   0.119
12756TIP3   OH238210   7.316   5.688   0.089
12756TIP3    H138211   7.320   5.648   0.002
12756TIP3    H238212   7.261   5.629   0.140
12757TIP3   OH238213   5.927   6.411   4.445
12757TIP3    H138214   5.975   6.491   4.469
12757TIP3    H238215   5.969   6.342   4.497
12758TIP3   OH238216   6.445   5.009   0.763
12758TIP3    H138217   6.404   5.006   0.850
12758TIP3    H238218   6.471   5.100   0.752
12759TIP3   OH238219   5.826   1.484   3.355
12759TIP3    H138220   5.917   1.492   3.383
12759TIP3    H238221   5.777   1.469   3.436
12760TIP3   OH238222   0.167   5.042   0.799
12760TIP3    H138223   0.082   5.032   0.755
12760TIP3    H238224   0.147   5.094   0.877
12761TIP3   OH238225   4.844   0.212   6.621
12761TIP3    H138226   4.826   0.133   6.672
12761TIP3    H238227   4.810   0.284   6.675
12762TIP3   OH238228   5.329   1.036   0.562
12762TIP3    H138229   5.252   1.034   0.506
12762TIP3    H238230   5.364   0.947   0.558
12763TIP3   OH238231   3.756   0.858   4.347
12763TIP3    H138232   3.765   0.767   4.375
12763TIP3    H238233   3.664   0.866   4.322
12764TIP3   OH238234   4.019   3.414   4.035
12764TIP3    H138235   3.968   3.477   4.087
12764TIP3    H238236   3.956   3.349   4.006
12765TIP3   OH238237   3.136   6.092   1.900
12765TIP3    H138238   3.124   6.002   1.871
12765TIP3    H238239   3.105   6.145   1.826
12766TIP3   OH238240   2.986   3.830   2.869
12766TIP3    H138241   2.991   3.922   2.844
12766TIP3    H238242   3.009   3.830   2.962
12767TIP3   OH238243   2.646   0.626   4.084
12767TIP3    H138244   2.712   0.606   4.018
12767TIP3    H238245   2.630   0.720   4.074
12768TIP3   OH238246   0.766   5.564   3.656
12768TIP3    H138247   0.819   5.644   3.662
12768TIP3    H238248   0.689   5.582   3.710
12769TIP3   OH238249   5.795   0.281   1.876
12769TIP3    H138250   5.811   0.371   1.845
12769TIP3    H238251   5.856   0.227   1.825
12770TIP3   OH238252   3.324   6.395   2.932
12770TIP3    H138253   3.320   6.309   2.890
12770TIP3    H238254   3.406   6.434   2.899
12771TIP3   OH238255   2.812   3.357   3.499
12771TIP3    H138256   2.777   3.357   3.588
12771TIP3    H238257   2.771   3.281   3.457
12772TIP3   OH238258   7.772   2.798   5.891
12772TIP3    H138259   7.855   2.816   5.936
12772TIP3    H238260   7.727   2.736   5.948
12773TIP3   OH238261   6.000   3.762   6.144
12773TIP3    H138262   6.061   3.761   6.071
12773TIP3    H238263   5.917   3.791   6.106
12774TIP3   OH238264   7.020   6.536   2.373
12774TIP3    H138265   6.999   6.575   2.458
12774TIP3    H238266   7.034   6.443   2.392
12775TIP3   OH238267   8.121   2.119   5.668
12775TIP3    H138268   8.109   2.038   5.717
12775TIP3    H238269   8.208   2.150   5.693
12776TIP3   OH238270   0.520   1.198   2.237
12776TIP3    H138271   0.599   1.156   2.205
12776TIP3    H238272   0.511   1.167   2.327
12777TIP3   OH238273   2.678   7.500   0.518
12777TIP3    H138274   2.744   7.533   0.578
12777TIP3    H238275   2.610   7.464   0.575
12778TIP3   OH238276   0.019   7.351   2.760
12778TIP3    H138277  -0.029   7.351   2.677
12778TIP3    H238278   0.039   7.259   2.777
12779TIP3   OH238279   0.194   5.396   6.238
12779TIP3    H138280   0.232   5.410   6.151
12779TIP3    H238281   0.266   5.364   6.291
12780TIP3   OH238282   7.512   3.040   1.856
12780TIP3    H138283   7.458   3.057   1.779
12780TIP3    H238284   7.513   2.945   1.864
12781TIP3   OH238285   2.683   5.183   2.250
12781TIP3    H138286   2.653   5.252   2.310
12781TIP3    H238287   2.723   5.230   2.178
12782TIP3   OH238288   1.131   3.441   5.437
12782TIP3    H138289   1.051   3.424   5.387
12782TIP3    H238290   1.100   3.478   5.520
12783TIP3   OH238291   7.769   1.349   5.070
12783TIP3    H138292   7.724   1.433   5.065
12783TIP3    H238293   7.836   1.353   5.002
12784TIP3   OH238294   7.663   5.335   1.767
12784TIP3    H138295   7.569   5.354   1.765
12784TIP3    H238296   7.675   5.266   1.702
12785TIP3   OH238297   1.545   1.616   6.592
12785TIP3    H138298   1.605   1.542   6.594
12785TIP3    H238299   1.531   1.639   6.684
12786TIP3   OH238300   3.482   3.166   6.747
12786TIP3    H138301   3.457   3.258   6.739
12786TIP3    H238302   3.549   3.165   6.815
12787TIP3   OH238303   3.188   5.961   3.741
12787TIP3    H138304   3.227   5.947   3.828
12787TIP3    H238305   3.203   5.879   3.695
12788TIP3   OH238306   2.921   2.910   6.664
12788TIP3    H138307   2.840   2.879   6.625
12788TIP3    H238308   2.925   2.865   6.749
12789TIP3   OH238309   1.872   1.476   0.127
12789TIP3    H138310   1.901   1.561   0.093
12789TIP3    H238311   1.933   1.456   0.198
12790TIP3   OH238312   5.124   0.204   4.242
12790TIP3    H138313   5.081   0.120   4.256
12790TIP3    H238314   5.110   0.251   4.324
12791TIP3   OH238315   0.405   1.366   5.645
12791TIP3    H138316   0.344   1.426   5.603
12791TIP3    H238317   0.399   1.387   5.738
12792TIP3   OH238318   7.905   5.329   0.244
12792TIP3    H138319   7.972   5.292   0.186
12792TIP3    H238320   7.843   5.372   0.185
12793TIP3   OH238321   1.674   7.822   3.454
12793TIP3    H138322   1.632   7.835   3.369
12793TIP3    H238323   1.621   7.754   3.496
12794TIP3   OH238324   3.953   3.527   2.161
12794TIP3    H138325   3.894   3.452   2.167
12794TIP3    H238326   3.959   3.560   2.251
12795TIP3   OH238327   7.539   6.937   5.244
12795TIP3    H138328   7.557   6.846   5.269
12795TIP3    H238329   7.491   6.931   5.162
12796TIP3   OH238330   1.444   1.182   6.176
12796TIP3    H138331   1.521   1.163   6.122
12796TIP3    H238332   1.450   1.275   6.194
12797TIP3   OH238333   5.109   7.641   2.861
12797TIP3    H138334   5.101   7.580   2.787
12797TIP3    H238335   5.037   7.616   2.920
12798TIP3   OH238336   2.431   3.421   1.945
12798TIP3    H138337   2.383   3.501   1.925
12798TIP3    H238338   2.451   3.427   2.038
12799TIP3   OH238339   8.222   2.521   2.381
12799TIP3    H138340   8.195   2.612   2.391
12799TIP3    H238341   8.140   2.471   2.379
12800TIP3   OH238342   6.470   6.988   5.193
12800TIP3    H138343   6.434   6.928   5.128
12800TIP3    H238344   6.530   7.044   5.143
12801TIP3   OH238345   1.246   5.506   1.545
12801TIP3    H138346   1.235   5.414   1.567
12801TIP3    H238347   1.281   5.546   1.625
12802TIP3   OH238348   1.467   0.331   1.437
12802TIP3    H138349   1.504   0.372   1.359
12802TIP3    H238350   1.436   0.404   1.490
12803TIP3   OH238351   6.780   2.849   3.016
12803TIP3    H138352   6.698   2.898   3.027
12803TIP3    H238353   6.760   2.761   3.047
12804TIP3   OH238354   5.441   3.614   1.359
12804TIP3    H138355   5.393   3.562   1.424
12804TIP3    H238356   5.522   3.566   1.345
12805TIP3   OH238357   7.349   3.069   2.540
12805TIP3    H138358   7.376   3.160   2.527
12805TIP3    H238359   7.286   3.053   2.469
12806TIP3   OH238360   5.037   4.318   6.311
12806TIP3    H138361   5.043   4.394   6.369
12806TIP3    H238362   4.991   4.252   6.363
12807TIP3   OH238363   7.615   5.901   3.999
12807TIP3    H138364   7.536   5.870   3.954
12807TIP3    H238365   7.665   5.821   4.017
12808TIP3   OH238366   8.003   2.835   1.980
12808TIP3    H138367   8.077   2.896   1.972
12808TIP3    H238368   8.043   2.748   1.968
12809TIP3   OH238369   4.748   6.262   6.182
12809TIP3    H138370   4.792   6.333   6.228
12809TIP3    H238371   4.806   6.187   6.192
12810TIP3   OH238372   2.518   2.883   4.933
12810TIP3    H138373   2.533   2.864   5.026
12810TIP3    H238374   2.527   2.798   4.889
12811TIP3   OH238375   4.234   5.458   0.132
12811TIP3    H138376   4.215   5.539   0.181
12811TIP3    H238377   4.278   5.402   0.195
12812TIP3   OH238378   7.507   4.584   1.255
12812TIP3    H138379   7.451   4.552   1.184
12812TIP3    H238380   7.448   4.587   1.331
12813TIP3   OH238381   2.749   5.674   4.557
12813TIP3    H138382   2.737   5.579   4.568
12813TIP3    H238383   2.685   5.713   4.616
12814TIP3   OH238384   6.844   6.180   2.626
12814TIP3    H138385   6.854   6.272   2.652
12814TIP3    H238386   6.754   6.174   2.593
12815TIP3   OH238387   5.121   1.681   3.225
12815TIP3    H138388   5.201   1.668   3.174
12815TIP3    H238389   5.055   1.703   3.159
12816TIP3   OH238390   1.352   7.154   1.526
12816TIP3    H138391   1.435   7.190   1.494
12816TIP3    H238392   1.377   7.078   1.579
12817TIP3   OH238393   6.072   0.092   5.528
12817TIP3    H138394   5.985   0.082   5.490
12817TIP3    H238395   6.064   0.167   5.587
12818TIP3   OH238396   6.400   6.802   0.493
12818TIP3    H138397   6.372   6.886   0.459
12818TIP3    H238398   6.366   6.738   0.431
12819TIP3   OH238399   5.525   2.222   1.190
12819TIP3    H138400   5.558   2.252   1.275
12819TIP3    H238401   5.541   2.295   1.131
12820TIP3   OH238402   1.870   5.467   0.707
12820TIP3    H138403   1.950   5.454   0.758
12820TIP3    H238404   1.803   5.420   0.757
12821TIP3   OH238405   5.604   0.685   5.887
12821TIP3    H138406   5.623   0.689   5.793
12821TIP3    H238407   5.561   0.600   5.899
12822TIP3   OH238408   3.071   7.324   4.759
12822TIP3    H138409   3.134   7.277   4.705
12822TIP3    H238410   3.110   7.410   4.772
12823TIP3   OH238411   5.895   6.355   0.753
12823TIP3    H138412   5.966   6.412   0.725
12823TIP3    H238413   5.908   6.273   0.705
12824TIP3   OH238414   6.272   2.518   3.361
12824TIP3    H138415   6.303   2.609   3.358
12824TIP3    H238416   6.177   2.525   3.360
12825TIP3   OH238417   4.479   0.773   2.839
12825TIP3    H138418   4.570   0.800   2.845
12825TIP3    H238419   4.436   0.843   2.790
12826TIP3   OH238420   1.288   0.083   2.954
12826TIP3    H138421   1.308   0.169   2.919
12826TIP3    H238422   1.203   0.060   2.915
12827TIP3   OH238423   4.984   5.726   4.599
12827TIP3    H138424   5.050   5.739   4.667
12827TIP3    H238425   4.907   5.774   4.632
12828TIP3   OH238426   2.131   7.761   0.981
12828TIP3    H138427   2.062   7.772   1.047
12828TIP3    H238428   2.198   7.824   1.006
12829TIP3   OH238429   2.015   5.314   1.459
12829TIP3    H138430   1.998   5.237   1.406
12829TIP3    H238431   2.000   5.286   1.550
12830TIP3   OH238432   7.871   7.195   2.172
12830TIP3    H138433   7.806   7.185   2.241
12830TIP3    H238434   7.825   7.169   2.092
12831TIP3   OH238435   1.173   7.751   1.316
12831TIP3    H138436   1.118   7.828   1.309
12831TIP3    H238437   1.255   7.776   1.273
12832TIP3   OH238438   2.211   0.665   2.795
12832TIP3    H138439   2.139   0.607   2.766
12832TIP3    H238440   2.272   0.606   2.839
12833TIP3   OH238441   5.859   3.118   4.823
12833TIP3    H138442   5.860   3.153   4.733
12833TIP3    H238443   5.767   3.097   4.839
12834TIP3   OH238444   7.373   5.101   4.537
12834TIP3    H138445   7.323   5.124   4.459
12834TIP3    H238446   7.463   5.090   4.506
12835TIP3   OH238447   1.740   2.646   2.109
12835TIP3    H138448   1.650   2.667   2.135
12835TIP3    H238449   1.731   2.600   2.026
12836TIP3   OH238450   3.365   0.305   1.291
12836TIP3    H138451   3.294   0.245   1.316
12836TIP3    H238452   3.334   0.391   1.318
12837TIP3   OH238453   5.941   0.082   3.786
12837TIP3    H138454   6.015   0.089   3.726
12837TIP3    H238455   5.867   0.116   3.737
12838TIP3   OH238456   2.015   0.221   3.469
12838TIP3    H138457   2.081   0.198   3.404
12838TIP3    H238458   1.987   0.137   3.504
12839TIP3   OH238459   7.519   7.254   2.519
12839TIP3    H138460   7.435   7.216   2.547
12839TIP3    H238461   7.579   7.236   2.591
12840TIP3   OH238462   6.892   7.275   5.574
12840TIP3    H138463   6.942   7.334   5.518
12840TIP3    H238464   6.809   7.320   5.589
12841TIP3   OH238465   4.974   0.981   3.878
12841TIP3    H138466   4.965   0.982   3.783
12841TIP3    H238467   4.896   1.026   3.910
12842TIP3   OH238468   8.246   2.560   0.149
12842TIP3    H138469   8.257   2.506   0.228
12842TIP3    H238470   8.282   2.506   0.079
12843TIP3   OH238471   7.245   0.273   1.758
12843TIP3    H138472   7.158   0.239   1.777
12843TIP3    H238473   7.300   0.237   1.828
12844TIP3   OH238474   2.947   0.131   5.205
12844TIP3    H138475   2.884   0.125   5.133
12844TIP3    H238476   2.916   0.067   5.269
12845TIP3   OH238477   5.953   0.839   1.972
12845TIP3    H138478   5.969   0.824   2.065
12845TIP3    H238479   6.033   0.880   1.940
12846TIP3   OH238480   1.127   1.719   3.558
12846TIP3    H138481   1.052   1.728   3.500
12846TIP3    H238482   1.192   1.781   3.523
12847TIP3   OH238483   6.999   2.893   0.898
12847TIP3    H138484   7.065   2.963   0.893
12847TIP3    H238485   7.047   2.817   0.930
12848TIP3   OH238486   7.840   5.734   5.178
12848TIP3    H138487   7.763   5.677   5.184
12848TIP3    H238488   7.833   5.792   5.254
12849TIP3   OH238489   7.130   4.826   3.406
12849TIP3    H138490   7.178   4.749   3.375
12849TIP3    H238491   7.055   4.790   3.454
12850TIP3   OH238492   5.798   5.954   5.957
12850TIP3    H138493   5.780   5.875   6.007
12850TIP3    H238494   5.765   6.026   6.012
12851TIP3   OH238495   6.151   5.784   3.135
12851TIP3    H138496   6.127   5.766   3.226
12851TIP3    H238497   6.219   5.852   3.142
12852TIP3   OH238498   5.926   6.678   5.289
12852TIP3    H138499   5.964   6.666   5.376
12852TIP3    H238500   5.981   6.744   5.248
12853TIP3   OH238501   0.532   5.065   5.448
12853TIP3    H138502   0.447   5.107   5.435
12853TIP3    H238503   0.584   5.129   5.496
12854TIP3   OH238504   4.157   6.628   5.408
12854TIP3    H138505   4.200   6.709   5.437
12854TIP3    H238506   4.181   6.563   5.474
12855TIP3   OH238507   5.519   7.479   0.252
12855TIP3    H138508   5.495   7.485   0.160
12855TIP3    H238509   5.586   7.545   0.264
12856TIP3   OH238510   8.221   4.747   0.138
12856TIP3    H138511   8.140   4.731   0.090
12856TIP3    H238512   8.222   4.842   0.152
12857TIP3   OH238513   5.352   5.509   3.394
12857TIP3    H138514   5.362   5.554   3.310
12857TIP3    H238515   5.421   5.545   3.449
12858TIP3   OH238516   5.668   3.259   3.922
12858TIP3    H138517   5.747   3.239   3.870
12858TIP3    H238518   5.600   3.272   3.857
12859TIP3   OH238519   7.191   5.060   0.076
12859TIP3    H138520   7.284   5.038   0.081
12859TIP3    H238521   7.148   4.977   0.053
12860TIP3   OH238522   4.250   6.933   2.526
12860TIP3    H138523   4.168   6.897   2.559
12860TIP3    H238524   4.274   7.001   2.589
12861TIP3   OH238525   2.426   3.939   3.803
12861TIP3    H138526   2.515   3.904   3.789
12861TIP3    H238527   2.396   3.894   3.882
12862TIP3   OH238528   3.997   7.274   0.845
12862TIP3    H138529   3.997   7.368   0.864
12862TIP3    H238530   4.077   7.241   0.887
12863TIP3   OH238531   6.038   0.569   2.496
12863TIP3    H138532   5.998   0.655   2.488
12863TIP3    H238533   6.045   0.555   2.591
12864TIP3   OH238534   4.609   5.762   3.735
12864TIP3    H138535   4.592   5.813   3.814
12864TIP3    H238536   4.555   5.684   3.746
12865TIP3   OH238537   3.136   4.493   2.199
12865TIP3    H138538   3.112   4.455   2.115
12865TIP3    H238539   3.100   4.434   2.264
12866TIP3   OH238540   5.716   7.161   2.837
12866TIP3    H138541   5.657   7.170   2.912
12866TIP3    H238542   5.659   7.140   2.763
12867TIP3   OH238543   8.222   4.497   0.284
12867TIP3    H138544   8.187   4.572   0.332
12867TIP3    H238545   8.276   4.536   0.215
12868TIP3   OH238546   7.829   6.345   4.269
12868TIP3    H138547   7.794   6.276   4.214
12868TIP3    H238548   7.800   6.323   4.358
12869TIP3   OH238549   6.866   5.023   5.260
12869TIP3    H138550   6.836   5.091   5.200
12869TIP3    H238551   6.897   5.071   5.336
12870TIP3   OH238552   4.581   0.036   0.731
12870TIP3    H138553   4.538   0.074   0.807
12870TIP3    H238554   4.513  -0.019   0.690
12871TIP3   OH238555   0.704   0.942   1.253
12871TIP3    H138556   0.755   1.020   1.233
12871TIP3    H238557   0.721   0.925   1.346
12872TIP3   OH238558   8.061   6.249   3.165
12872TIP3    H138559   7.985   6.281   3.116
12872TIP3    H238560   8.036   6.163   3.197
12873TIP3   OH238561   4.821   1.899   6.212
12873TIP3    H138562   4.874   1.974   6.185
12873TIP3    H238563   4.732   1.932   6.216
12874TIP3   OH238564   5.051   5.035   2.599
12874TIP3    H138565   5.031   5.122   2.565
12874TIP3    H238566   5.073   5.048   2.691
12875TIP3   OH238567   2.580   1.465   3.784
12875TIP3    H138568   2.620   1.401   3.843
12875TIP3    H238569   2.486   1.449   3.791
12876TIP3   OH238570   2.782   7.543   6.423
12876TIP3    H138571   2.690   7.564   6.407
12876TIP3    H238572   2.799   7.465   6.371
12877TIP3   OH238573   2.671   0.152   6.295
12877TIP3    H138574   2.698   0.175   6.206
12877TIP3    H238575   2.741   0.096   6.328
12878TIP3   OH238576   7.185   4.296   6.442
12878TIP3    H138577   7.178   4.250   6.526
12878TIP3    H238578   7.100   4.339   6.431
12879TIP3   OH238579   5.447   7.166   3.011
12879TIP3    H138580   5.498   7.095   3.050
12879TIP3    H238581   5.357   7.147   3.037
12880TIP3   OH238582   1.551   3.302   6.495
12880TIP3    H138583   1.469   3.266   6.463
12880TIP3    H238584   1.591   3.344   6.419
12881TIP3   OH238585   6.219   1.125   4.071
12881TIP3    H138586   6.146   1.187   4.067
12881TIP3    H238587   6.219   1.094   4.162
12882TIP3   OH238588   4.277   6.233   5.997
12882TIP3    H138589   4.289   6.144   6.030
12882TIP3    H238590   4.187   6.234   5.963
12883TIP3   OH238591   7.869   1.548   3.835
12883TIP3    H138592   7.930   1.577   3.767
12883TIP3    H238593   7.808   1.621   3.845
12884TIP3   OH238594   5.508   5.273   1.168
12884TIP3    H138595   5.497   5.355   1.217
12884TIP3    H238596   5.433   5.220   1.192
12885TIP3   OH238597   6.489   2.545   5.944
12885TIP3    H138598   6.396   2.553   5.967
12885TIP3    H238599   6.489   2.502   5.859
12886TIP3   OH238600   6.594   6.981   4.317
12886TIP3    H138601   6.549   6.898   4.331
12886TIP3    H238602   6.541   7.045   4.364
12887TIP3   OH238603   5.365   6.456   1.863
12887TIP3    H138604   5.346   6.429   1.953
12887TIP3    H238605   5.460   6.467   1.861
12888TIP3   OH238606   2.631   0.455   4.319
12888TIP3    H138607   2.607   0.532   4.267
12888TIP3    H238608   2.549   0.424   4.356
12889TIP3   OH238609   2.530   2.577   0.955
12889TIP3    H138610   2.570   2.520   1.021
12889TIP3    H238611   2.435   2.564   0.966
12890TIP3   OH238612   5.708   5.515   4.913
12890TIP3    H138613   5.748   5.568   4.981
12890TIP3    H238614   5.727   5.562   4.831
12891TIP3   OH238615   7.136   6.110   5.485
12891TIP3    H138616   7.110   6.021   5.463
12891TIP3    H238617   7.097   6.164   5.415
12892TIP3   OH238618   7.771   4.223   1.190
12892TIP3    H138619   7.773   4.176   1.106
12892TIP3    H238620   7.853   4.271   1.192
12893TIP3   OH238621   3.254   5.716   5.429
12893TIP3    H138622   3.180   5.775   5.442
12893TIP3    H238623   3.304   5.721   5.511
12894TIP3   OH238624   2.781   4.608   2.411
12894TIP3    H138625   2.730   4.561   2.478
12894TIP3    H238626   2.778   4.699   2.439
12895TIP3   OH238627   6.070   6.250   4.936
12895TIP3    H138628   6.145   6.203   4.900
12895TIP3    H238629   6.033   6.189   5.001
12896TIP3   OH238630   4.941   3.820   5.495
12896TIP3    H138631   4.978   3.816   5.407
12896TIP3    H238632   4.913   3.912   5.504
12897TIP3   OH238633   4.567   0.513   5.712
12897TIP3    H138634   4.511   0.437   5.697
12897TIP3    H238635   4.508   0.588   5.712
12898TIP3   OH238636   1.442   0.324   0.167
12898TIP3    H138637   1.354   0.356   0.186
12898TIP3    H238638   1.489   0.330   0.250
12899TIP3   OH238639   5.345   3.884   5.999
12899TIP3    H138640   5.337   3.860   5.907
12899TIP3    H238641   5.420   3.943   6.003
12900TIP3   OH238642   7.734   2.543   2.711
12900TIP3    H138643   7.707   2.515   2.799
12900TIP3    H238644   7.736   2.461   2.661
12901TIP3   OH238645   6.533   3.808   0.074
12901TIP3    H138646   6.469   3.739   0.092
12901TIP3    H238647   6.551   3.800  -0.019
12902TIP3   OH238648   0.897   5.645   2.178
12902TIP3    H138649   0.878   5.724   2.128
12902TIP3    H238650   0.840   5.652   2.255
12903TIP3   OH238651   0.179   6.958   1.721
12903TIP3    H138652   0.174   6.931   1.629
12903TIP3    H238653   0.089   6.985   1.742
12904TIP3   OH238654   4.405   3.053   3.501
12904TIP3    H138655   4.400   3.070   3.407
12904TIP3    H238656   4.422   2.959   3.508
12905TIP3   OH238657   2.667   3.118   2.477
12905TIP3    H138658   2.710   3.051   2.424
12905TIP3    H238659   2.574   3.112   2.452
12906TIP3   OH238660   0.440   7.296   1.018
12906TIP3    H138661   0.368   7.359   1.015
12906TIP3    H238662   0.503   7.335   1.079
12907TIP3   OH238663   0.762   6.196   1.907
12907TIP3    H138664   0.800   6.169   1.990
12907TIP3    H238665   0.670   6.168   1.913
12908TIP3   OH238666   6.597   4.968   3.416
12908TIP3    H138667   6.551   4.935   3.494
12908TIP3    H238668   6.528   5.003   3.360
12909TIP3   OH238669   7.645   6.613   5.810
12909TIP3    H138670   7.730   6.652   5.833
12909TIP3    H238671   7.646   6.527   5.852
12910TIP3   OH238672   2.637   2.809   0.840
12910TIP3    H138673   2.600   2.841   0.758
12910TIP3    H238674   2.580   2.737   0.866
12911TIP3   OH238675   7.553   1.439   3.193
12911TIP3    H138676   7.637   1.394   3.205
12911TIP3    H238677   7.498   1.375   3.147
12912TIP3   OH238678   7.251   1.529   3.813
12912TIP3    H138679   7.178   1.486   3.770
12912TIP3    H238680   7.264   1.479   3.894
12913TIP3   OH238681   4.658   5.985   5.040
12913TIP3    H138682   4.709   6.004   4.962
12913TIP3    H238683   4.708   5.917   5.086
12914TIP3   OH238684   6.248   4.262   1.758
12914TIP3    H138685   6.264   4.169   1.748
12914TIP3    H238686   6.220   4.273   1.849
12915TIP3   OH238687   0.569   4.972   5.186
12915TIP3    H138688   0.476   4.957   5.171
12915TIP3    H238689   0.580   4.966   5.280
12916TIP3   OH238690   3.261   7.194   5.568
12916TIP3    H138691   3.326   7.234   5.510
12916TIP3    H238692   3.303   7.192   5.654
12917TIP3   OH238693   0.428   4.721   0.614
12917TIP3    H138694   0.445   4.663   0.688
12917TIP3    H238695   0.513   4.762   0.596
12918TIP3   OH238696   0.244   6.045   4.266
12918TIP3    H138697   0.268   6.077   4.353
12918TIP3    H238698   0.152   6.070   4.256
12919TIP3   OH238699   0.755   2.696   3.609
12919TIP3    H138700   0.728   2.668   3.696
12919TIP3    H238701   0.781   2.787   3.620
12920TIP3   OH238702   5.806   6.618   1.013
12920TIP3    H138703   5.869   6.663   1.070
12920TIP3    H238704   5.766   6.552   1.070
12921TIP3   OH238705   6.989   6.258   6.261
12921TIP3    H138706   6.925   6.204   6.307
12921TIP3    H238707   7.068   6.204   6.256
12922TIP3   OH238708   8.178   5.173   0.463
12922TIP3    H138709   8.100   5.219   0.493
12922TIP3    H238710   8.224   5.148   0.543
12923TIP3   OH238711   7.214   1.943   1.831
12923TIP3    H138712   7.164   2.024   1.836
12923TIP3    H238713   7.275   1.956   1.758
12924TIP3   OH238714   4.708   0.066   3.499
12924TIP3    H138715   4.719   0.160   3.485
12924TIP3    H238716   4.615   0.050   3.483
12925TIP3   OH238717   3.017   5.981   2.998
12925TIP3    H138718   3.025   5.918   3.071
12925TIP3    H238719   3.092   5.962   2.942
12926TIP3   OH238720   0.199   2.537   0.969
12926TIP3    H138721   0.255   2.573   1.038
12926TIP3    H238722   0.176   2.450   0.999
12927TIP3   OH238723   3.548   2.426   2.845
12927TIP3    H138724   3.492   2.503   2.858
12927TIP3    H238725   3.499   2.371   2.784
12928TIP3   OH238726   6.940   7.041   0.493
12928TIP3    H138727   6.949   6.947   0.477
12928TIP3    H238728   7.011   7.081   0.442
12929TIP3   OH238729   0.336   5.828   2.563
12929TIP3    H138730   0.375   5.754   2.518
12929TIP3    H238731   0.243   5.806   2.569
12930TIP3   OH238732   4.846   1.535   5.521
12930TIP3    H138733   4.904   1.469   5.483
12930TIP3    H238734   4.885   1.554   5.606
12931TIP3   OH238735   4.809   3.523   2.337
12931TIP3    H138736   4.745   3.586   2.371
12931TIP3    H238737   4.832   3.557   2.251
12932TIP3   OH238738   2.759   1.357   0.573
12932TIP3    H138739   2.771   1.360   0.478
12932TIP3    H238740   2.787   1.269   0.598
12933TIP3   OH238741   4.450   7.636   0.168
12933TIP3    H138742   4.447   7.641   0.263
12933TIP3    H238743   4.419   7.722   0.138
12934TIP3   OH238744   7.910   4.507   4.350
12934TIP3    H138745   7.896   4.437   4.414
12934TIP3    H238746   7.878   4.586   4.394
12935TIP3   OH238747   5.326   7.777   2.947
12935TIP3    H138748   5.296   7.791   3.037
12935TIP3    H238749   5.258   7.723   2.907
12936TIP3   OH238750   4.383   6.327   0.999
12936TIP3    H138751   4.367   6.347   0.907
12936TIP3    H238752   4.373   6.411   1.044
12937TIP3   OH238753   6.301   0.719   5.409
12937TIP3    H138754   6.308   0.660   5.483
12937TIP3    H238755   6.214   0.758   5.418
12938TIP3   OH238756   6.885   4.951   4.263
12938TIP3    H138757   6.892   5.047   4.268
12938TIP3    H238758   6.975   4.922   4.248
12939TIP3   OH238759   3.453   0.600   0.601
12939TIP3    H138760   3.380   0.626   0.658
12939TIP3    H238761   3.416   0.603   0.512
12940TIP3   OH238762   6.809   2.772   2.243
12940TIP3    H138763   6.815   2.676   2.249
12940TIP3    H238764   6.759   2.798   2.321
12941TIP3   OH238765   3.457   5.950   4.948
12941TIP3    H138766   3.401   5.961   4.871
12941TIP3    H238767   3.532   6.006   4.932
12942TIP3   OH238768   0.159   7.236   0.873
12942TIP3    H138769   0.224   7.211   0.938
12942TIP3    H238770   0.075   7.230   0.918
12943TIP3   OH238771   7.017   5.865   2.145
12943TIP3    H138772   7.006   5.861   2.050
12943TIP3    H238773   7.017   5.959   2.164
12944TIP3   OH238774  -0.011   0.311   3.364
12944TIP3    H138775  -0.011   0.390   3.419
12944TIP3    H238776   0.081   0.295   3.345
12945TIP3   OH238777   1.914   7.399   6.796
12945TIP3    H138778   1.900   7.305   6.809
12945TIP3    H238779   1.888   7.415   6.705
12946TIP3   OH238780   4.015   7.699   2.640
12946TIP3    H138781   4.038   7.792   2.647
12946TIP3    H238782   4.064   7.657   2.710
12947TIP3   OH238783   0.384   0.124   1.243
12947TIP3    H138784   0.356   0.049   1.295
12947TIP3    H238785   0.466   0.152   1.285
12948TIP3   OH238786   1.693   4.594   0.510
12948TIP3    H138787   1.602   4.573   0.528
12948TIP3    H238788   1.698   4.689   0.522
12949TIP3   OH238789   2.278   6.114   3.279
12949TIP3    H138790   2.213   6.156   3.223
12949TIP3    H238791   2.227   6.051   3.331
12950TIP3   OH238792   1.351   0.742   5.052
12950TIP3    H138793   1.320   0.670   4.997
12950TIP3    H238794   1.302   0.731   5.134
12951TIP3   OH238795   7.704   7.622   5.863
12951TIP3    H138796   7.737   7.663   5.943
12951TIP3    H238797   7.725   7.686   5.794
12952TIP3   OH238798   8.036   4.547   0.788
12952TIP3    H138799   7.984   4.469   0.806
12952TIP3    H238800   8.118   4.513   0.752
12953TIP3   OH238801   7.254   3.200   6.254
12953TIP3    H138802   7.191   3.167   6.318
12953TIP3    H238803   7.220   3.286   6.229
12954TIP3   OH238804   8.275   5.077   5.359
12954TIP3    H138805   8.191   5.036   5.380
12954TIP3    H238806   8.256   5.171   5.359
12955TIP3   OH238807   3.060   7.193   6.032
12955TIP3    H138808   3.099   7.228   6.112
12955TIP3    H238809   2.970   7.169   6.057
12956TIP3   OH238810   7.836   6.794   3.196
12956TIP3    H138811   7.761   6.774   3.253
12956TIP3    H238812   7.908   6.812   3.257
12957TIP3   OH238813   5.918   1.979   6.304
12957TIP3    H138814   5.924   1.924   6.225
12957TIP3    H238815   5.953   2.064   6.276
12958TIP3   OH238816   8.285   5.592   6.210
12958TIP3    H138817   8.266   5.667   6.267
12958TIP3    H238818   8.354   5.544   6.256
12959TIP3   OH238819   4.980   0.691   0.523
12959TIP3    H138820   4.954   0.709   0.433
12959TIP3    H238821   4.910   0.635   0.558
12960TIP3   OH238822   0.027   0.162   6.045
12960TIP3    H138823   0.086   0.208   5.985
12960TIP3    H238824  -0.007   0.230   6.103
12961TIP3   OH238825   8.162   7.231   0.882
12961TIP3    H138826   8.092   7.166   0.890
12961TIP3    H238827   8.118   7.312   0.859
12962TIP3   OH238828   5.955   4.050   3.067
12962TIP3    H138829   5.879   4.078   3.119
12962TIP3    H238830   5.997   4.132   3.041
12963TIP3   OH238831   4.847   7.296   6.343
12963TIP3    H138832   4.856   7.383   6.303
12963TIP3    H238833   4.771   7.304   6.400
12964TIP3   OH238834   7.938   7.217   1.220
12964TIP3    H138835   7.895   7.288   1.173
12964TIP3    H238836   7.953   7.149   1.154
12965TIP3   OH238837   5.352   5.242   1.811
12965TIP3    H138838   5.299   5.299   1.756
12965TIP3    H238839   5.363   5.162   1.759
12966TIP3   OH238840   0.744   4.620   3.940
12966TIP3    H138841   0.729   4.528   3.960
12966TIP3    H238842   0.807   4.619   3.868
12967TIP3   OH238843   6.884   2.201   0.592
12967TIP3    H138844   6.864   2.149   0.514
12967TIP3    H238845   6.855   2.289   0.570
12968TIP3   OH238846   1.596   2.126   5.050
12968TIP3    H138847   1.572   2.096   4.962
12968TIP3    H238848   1.672   2.182   5.036
12969TIP3   OH238849   3.458   7.158   4.763
12969TIP3    H138850   3.448   7.074   4.718
12969TIP3    H238851   3.428   7.141   4.853
12970TIP3   OH238852   4.070   6.139   1.163
12970TIP3    H138853   4.080   6.216   1.219
12970TIP3    H238854   4.068   6.175   1.074
12971TIP3   OH238855   2.831   6.687   3.259
12971TIP3    H138856   2.777   6.739   3.318
12971TIP3    H238857   2.805   6.596   3.275
12972TIP3   OH238858   1.463   2.957   5.897
12972TIP3    H138859   1.556   2.939   5.885
12972TIP3    H238860   1.457   2.997   5.984
12973TIP3   OH238861   4.006   5.505   1.374
12973TIP3    H138862   3.957   5.585   1.394
12973TIP3    H238863   4.047   5.523   1.289
12974TIP3   OH238864   5.493   3.162   2.138
12974TIP3    H138865   5.400   3.137   2.136
12974TIP3    H238866   5.513   3.189   2.049
12975TIP3   OH238867   4.651   5.209   5.813
12975TIP3    H138868   4.679   5.298   5.797
12975TIP3    H238869   4.731   5.157   5.808
12976TIP3   OH238870   2.027   0.174   5.666
12976TIP3    H138871   2.086   0.167   5.740
12976TIP3    H238872   2.050   0.256   5.624
12977TIP3   OH238873   0.655   6.626   5.054
12977TIP3    H138874   0.611   6.542   5.049
12977TIP3    H238875   0.740   6.607   5.095
12978TIP3   OH238876   5.444   1.069   2.866
12978TIP3    H138877   5.410   1.137   2.924
12978TIP3    H238878   5.409   1.092   2.779
12979TIP3   OH238879   2.686   2.694   2.511
12979TIP3    H138880   2.718   2.743   2.435
12979TIP3    H238881   2.597   2.667   2.487
12980TIP3   OH238882   0.191   7.355   5.624
12980TIP3    H138883   0.166   7.347   5.532
12980TIP3    H238884   0.134   7.292   5.670
12981TIP3   OH238885   2.342   2.049   3.251
12981TIP3    H138886   2.434   2.034   3.274
12981TIP3    H238887   2.341   2.049   3.155
12982TIP3   OH238888   3.571   2.977   4.373
12982TIP3    H138889   3.528   2.909   4.426
12982TIP3    H238890   3.632   2.928   4.317
12983TIP3   OH238891   6.169   1.317   5.429
12983TIP3    H138892   6.204   1.229   5.441
12983TIP3    H238893   6.084   1.303   5.386
12984TIP3   OH238894   8.250   5.576   5.936
12984TIP3    H138895   8.333   5.611   5.902
12984TIP3    H238896   8.264   5.569   6.030
12985TIP3   OH238897   4.718   2.152   5.947
12985TIP3    H138898   4.633   2.171   5.986
12985TIP3    H238899   4.728   2.218   5.878
12986TIP3   OH238900   1.504   7.802   0.484
12986TIP3    H138901   1.538   7.747   0.555
12986TIP3    H238902   1.581   7.825   0.433
12987TIP3   OH238903   5.499   6.193   5.032
12987TIP3    H138904   5.484   6.105   4.999
12987TIP3    H238905   5.411   6.232   5.034
12988TIP3   OH238906   4.019   1.852   3.811
12988TIP3    H138907   4.068   1.821   3.735
12988TIP3    H238908   4.061   1.934   3.835
12989TIP3   OH238909   7.300   0.816   1.492
12989TIP3    H138910   7.374   0.776   1.538
12989TIP3    H238911   7.332   0.902   1.465
12990TIP3   OH238912   3.246   4.979   0.440
12990TIP3    H138913   3.150   4.985   0.436
12990TIP3    H238914   3.269   5.024   0.522
12991TIP3   OH238915   0.756   7.593   4.044
12991TIP3    H138916   0.847   7.562   4.048
12991TIP3    H238917   0.763   7.679   4.002
12992TIP3   OH238918   5.284   2.740   6.300
12992TIP3    H138919   5.378   2.754   6.310
12992TIP3    H238920   5.247   2.828   6.292
12993TIP3   OH238921   2.502   2.633   4.771
12993TIP3    H138922   2.457   2.660   4.691
12993TIP3    H238923   2.595   2.633   4.748
12994TIP3   OH238924   0.336   1.731   3.686
12994TIP3    H138925   0.365   1.747   3.776
12994TIP3    H238926   0.338   1.636   3.677
12995TIP3   OH238927   7.870   1.864   6.405
12995TIP3    H138928   7.807   1.907   6.348
12995TIP3    H238929   7.830   1.866   6.492
12996TIP3   OH238930   6.027   0.323   2.417
12996TIP3    H138931   6.023   0.417   2.435
12996TIP3    H238932   6.121   0.302   2.422
12997TIP3   OH238933   2.407   6.480   4.216
12997TIP3    H138934   2.448   6.491   4.302
12997TIP3    H238935   2.392   6.570   4.185
12998TIP3   OH238936   1.128   2.039   2.997
12998TIP3    H138937   1.136   2.128   2.963
12998TIP3    H238938   1.187   1.988   2.941
12999TIP3   OH238939   5.744   6.000   4.714
12999TIP3    H138940   5.784   5.969   4.795
12999TIP3    H238941   5.664   5.948   4.705
13000TIP3   OH238942   0.810   7.530   2.298
13000TIP3    H138943   0.736   7.471   2.287
13000TIP3    H238944   0.887   7.474   2.293
13001TIP3   OH238945   4.361   3.947   5.076
13001TIP3    H138946   4.381   3.854   5.065
13001TIP3    H238947   4.339   3.978   4.988
13002TIP3   OH238948   7.581   3.442   1.840
13002TIP3    H138949   7.611   3.409   1.925
13002TIP3    H238950   7.609   3.533   1.839
13003TIP3   OH238951   6.556   4.187   3.294
13003TIP3    H138952   6.636   4.225   3.257
13003TIP3    H238953   6.485   4.239   3.256
13004TIP3   OH238954   5.033   7.778   5.208
13004TIP3    H138955   5.023   7.685   5.228
13004TIP3    H238956   5.109   7.805   5.258
13005TIP3   OH238957   3.775   5.531   4.137
13005TIP3    H138958   3.785   5.457   4.197
13005TIP3    H238959   3.850   5.588   4.156
13006TIP3   OH238960   2.465   5.137   6.558
13006TIP3    H138961   2.410   5.201   6.514
13006TIP3    H238962   2.486   5.177   6.643
13007TIP3   OH238963   1.981   3.073   6.649
13007TIP3    H138964   1.949   3.072   6.559
13007TIP3    H238965   1.951   3.157   6.685
13008TIP3   OH238966   4.418   3.149  -0.021
13008TIP3    H138967   4.364   3.228  -0.022
13008TIP3    H238968   4.390   3.101   0.057
13009TIP3   OH238969   2.506   1.009   5.426
13009TIP3    H138970   2.414   1.001   5.449
13009TIP3    H238971   2.523   0.935   5.367
13010TIP3   OH238972   5.016   5.097   3.505
13010TIP3    H138973   5.065   5.036   3.449
13010TIP3    H238974   5.078   5.169   3.521
13011TIP3   OH238975   0.751   7.046   4.431
13011TIP3    H138976   0.683   7.113   4.423
13011TIP3    H238977   0.756   7.028   4.525
13012TIP3   OH238978   0.374   3.622   2.113
13012TIP3    H138979   0.364   3.627   2.208
13012TIP3    H238980   0.468   3.633   2.098
13013TIP3   OH238981   5.309   6.025   1.393
13013TIP3    H138982   5.322   6.100   1.451
13013TIP3    H238983   5.216   6.029   1.370
13014TIP3   OH238984   2.631   3.727   6.765
13014TIP3    H138985   2.547   3.734   6.720
13014TIP3    H238986   2.670   3.814   6.756
13015TIP3   OH238987   5.356   0.389   2.799
13015TIP3    H138988   5.446   0.362   2.781
13015TIP3    H238989   5.313   0.310   2.830
13016TIP3   OH238990   0.377   2.054   1.492
13016TIP3    H138991   0.294   2.058   1.539
13016TIP3    H238992   0.353   2.051   1.400
13017TIP3   OH238993   3.286   0.244   0.353
13017TIP3    H138994   3.252   0.330   0.375
13017TIP3    H238995   3.295   0.200   0.438
13018TIP3   OH238996   3.503   6.737   5.586
13018TIP3    H138997   3.429   6.734   5.525
13018TIP3    H238998   3.489   6.661   5.644
13019TIP3   OH238999   0.665   3.960   4.868
13019TIP3    H139000   0.708   3.959   4.954
13019TIP3    H239001   0.637   3.870   4.854
13020TIP3   OH239002   3.030   5.970   4.202
13020TIP3    H139003   3.080   5.992   4.280
13020TIP3    H239004   2.943   5.949   4.234
13021TIP3   OH239005   8.219   2.145   0.129
13021TIP3    H139006   8.261   2.177   0.209
13021TIP3    H239007   8.220   2.219   0.069
13022TIP3   OH239008   3.769   7.633   6.487
13022TIP3    H139009   3.701   7.681   6.439
13022TIP3    H239010   3.789   7.558   6.431
13023TIP3   OH239011   2.644   3.104   3.097
13023TIP3    H139012   2.610   3.174   3.042
13023TIP3    H239013   2.579   3.034   3.090
13024TIP3   OH239014   7.445   6.555   0.721
13024TIP3    H139015   7.514   6.492   0.701
13024TIP3    H239016   7.454   6.623   0.655
13025TIP3   OH239017   7.602   1.198   6.568
13025TIP3    H139018   7.518   1.225   6.533
13025TIP3    H239019   7.634   1.274   6.616
13026TIP3   OH239020   7.317   0.268   0.623
13026TIP3    H139021   7.383   0.242   0.688
13026TIP3    H239022   7.357   0.342   0.577
13027TIP3   OH239023   2.833   7.766   0.985
13027TIP3    H139024   2.921   7.744   1.017
13027TIP3    H239025   2.798   7.825   1.051
13028TIP3   OH239026   2.007   0.849   3.781
13028TIP3    H139027   2.043   0.936   3.763
13028TIP3    H239028   2.017   0.802   3.698
13029TIP3   OH239029   2.050   1.885   2.413
13029TIP3    H139030   2.060   1.791   2.430
13029TIP3    H239031   1.972   1.910   2.464
13030TIP3   OH239032   6.876   4.570   4.474
13030TIP3    H139033   6.965   4.536   4.469
13030TIP3    H239034   6.844   4.539   4.559
13031TIP3   OH239035   7.283   6.742   5.390
13031TIP3    H139036   7.248   6.681   5.455
13031TIP3    H239037   7.361   6.779   5.432
13032TIP3   OH239038   7.503   2.025   3.024
13032TIP3    H139039   7.517   2.055   2.934
13032TIP3    H239040   7.589   2.033   3.065
13033TIP3   OH239041   4.234   4.540   6.029
13033TIP3    H139042   4.171   4.601   6.068
13033TIP3    H239043   4.274   4.495   6.104
13034TIP3   OH239044   4.039   3.644   1.326
13034TIP3    H139045   4.036   3.732   1.365
13034TIP3    H239046   3.952   3.632   1.288
13035TIP3   OH239047   1.747   2.531   5.343
13035TIP3    H139048   1.738   2.436   5.334
13035TIP3    H239049   1.687   2.568   5.279
13036TIP3   OH239050   1.235   0.935   6.565
13036TIP3    H139051   1.275   0.967   6.484
13036TIP3    H239052   1.181   0.861   6.538
13037TIP3   OH239053   8.114   6.316   0.669
13037TIP3    H139054   8.114   6.411   0.673
13037TIP3    H239055   8.206   6.292   0.655
13038TIP3   OH239056   3.304   5.923   1.603
13038TIP3    H139057   3.385   5.907   1.554
13038TIP3    H239058   3.317   5.879   1.687
13039TIP3   OH239059   1.729   6.403   4.563
13039TIP3    H139060   1.669   6.413   4.489
13039TIP3    H239061   1.803   6.460   4.542
13040TIP3   OH239062   5.314   6.866   1.692
13040TIP3    H139063   5.400   6.875   1.735
13040TIP3    H239064   5.314   6.777   1.658
13041TIP3   OH239065   3.307   1.915   3.958
13041TIP3    H139066   3.367   1.913   3.884
13041TIP3    H239067   3.305   1.825   3.990
13042TIP3   OH239068   6.988   5.107   4.538
13042TIP3    H139069   6.955   5.049   4.469
13042TIP3    H239070   6.981   5.195   4.501
13043TIP3   OH239071   5.616   0.284   2.816
13043TIP3    H139072   5.625   0.236   2.898
13043TIP3    H239073   5.681   0.354   2.821
13044TIP3   OH239074   1.311   0.231   6.116
13044TIP3    H139075   1.292   0.325   6.112
13044TIP3    H239076   1.346   0.217   6.204
13045TIP3   OH239077   3.022   0.875   1.611
13045TIP3    H139078   3.040   0.909   1.523
13045TIP3    H239079   2.930   0.849   1.608
13046TIP3   OH239080   0.102   5.697   5.493
13046TIP3    H139081   0.022   5.703   5.544
13046TIP3    H239082   0.122   5.787   5.468
13047TIP3   OH239083   2.798   3.229   6.397
13047TIP3    H139084   2.830   3.182   6.319
13047TIP3    H239085   2.873   3.228   6.457
13048TIP3   OH239086   7.028   2.237   6.585
13048TIP3    H139087   7.017   2.175   6.657
13048TIP3    H239088   7.028   2.183   6.507
13049TIP3   OH239089   6.646   4.051   5.265
13049TIP3    H139090   6.670   4.012   5.349
13049TIP3    H239091   6.727   4.051   5.214
13050TIP3   OH239092   7.816   4.149   1.843
13050TIP3    H139093   7.737   4.096   1.848
13050TIP3    H239094   7.836   4.171   1.933
13051TIP3   OH239095   6.465   2.282   1.151
13051TIP3    H139096   6.535   2.218   1.166
13051TIP3    H239097   6.477   2.310   1.060
13052TIP3   OH239098   1.836   0.569   2.705
13052TIP3    H139099   1.859   0.476   2.713
13052TIP3    H239100   1.862   0.607   2.789
13053TIP3   OH239101   5.763   2.902   1.321
13053TIP3    H139102   5.735   2.993   1.310
13053TIP3    H239103   5.799   2.900   1.410
13054TIP3   OH239104   4.477   2.627   6.554
13054TIP3    H139105   4.473   2.543   6.599
13054TIP3    H239106   4.391   2.666   6.569
13055TIP3   OH239107   5.258   6.950   0.231
13055TIP3    H139108   5.326   6.911   0.176
13055TIP3    H239109   5.178   6.902   0.207
13056TIP3   OH239110   1.735   5.304   3.871
13056TIP3    H139111   1.787   5.383   3.861
13056TIP3    H239112   1.746   5.279   3.963
13057TIP3   OH239113   4.417   5.405   3.953
13057TIP3    H139114   4.393   5.312   3.951
13057TIP3    H239115   4.512   5.405   3.949
13058TIP3   OH239116   0.073   2.804   0.534
13058TIP3    H139117   0.169   2.801   0.535
13058TIP3    H239118   0.050   2.806   0.441
13059TIP3   OH239119   0.752   1.540   4.577
13059TIP3    H139120   0.662   1.526   4.547
13059TIP3    H239121   0.789   1.452   4.582
13060TIP3   OH239122   1.025   2.769   3.087
13060TIP3    H139123   1.074   2.702   3.136
13060TIP3    H239124   1.000   2.833   3.153
13061TIP3   OH239125   0.488   7.211   2.107
13061TIP3    H139126   0.413   7.212   2.048
13061TIP3    H239127   0.564   7.216   2.049
13062TIP3   OH239128   8.005   0.057   5.359
13062TIP3    H139129   8.038  -0.030   5.382
13062TIP3    H239130   8.083   0.110   5.347
13063TIP3   OH239131   1.668   7.455   4.027
13063TIP3    H139132   1.724   7.504   4.087
13063TIP3    H239133   1.684   7.364   4.049
13064TIP3   OH239134   1.535   2.588   5.147
13064TIP3    H139135   1.441   2.573   5.136
13064TIP3    H239136   1.569   2.589   5.057
13065TIP3   OH239137   4.000   3.692   1.684
13065TIP3    H139138   3.917   3.735   1.664
13065TIP3    H239139   3.991   3.604   1.647
13066TIP3   OH239140   6.955   3.471   5.775
13066TIP3    H139141   6.983   3.536   5.839
13066TIP3    H239142   6.907   3.406   5.826
13067TIP3   OH239143   6.130   1.665   0.181
13067TIP3    H139144   6.225   1.671   0.177
13067TIP3    H239145   6.105   1.732   0.245
13068TIP3   OH239146   1.313   3.510   5.903
13068TIP3    H139147   1.347   3.501   5.814
13068TIP3    H239148   1.260   3.432   5.917
13069TIP3   OH239149   4.819   3.582   4.043
13069TIP3    H139150   4.742   3.592   4.099
13069TIP3    H239151   4.875   3.520   4.089
13070TIP3   OH239152   6.085   7.762   4.839
13070TIP3    H139153   6.115   7.744   4.750
13070TIP3    H239154   6.130   7.843   4.863
13071TIP3   OH239155   0.431   4.507   2.725
13071TIP3    H139156   0.416   4.600   2.711
13071TIP3    H239157   0.454   4.500   2.818
13072TIP3   OH239158   1.618   4.800   0.076
13072TIP3    H139159   1.579   4.718   0.046
13072TIP3    H239160   1.706   4.775   0.105
13073TIP3   OH239161   1.111   3.775   3.370
13073TIP3    H139162   1.070   3.843   3.317
13073TIP3    H239163   1.197   3.763   3.330
13074TIP3   OH239164   6.874   2.819   0.384
13074TIP3    H139165   6.816   2.748   0.413
13074TIP3    H239166   6.821   2.871   0.324
13075TIP3   OH239167   1.580   6.677   2.383
13075TIP3    H139168   1.527   6.756   2.381
13075TIP3    H239169   1.606   6.667   2.474
13076TIP3   OH239170   7.770   6.190   5.848
13076TIP3    H139171   7.859   6.171   5.819
13076TIP3    H239172   7.770   6.284   5.866
13077TIP3   OH239173   0.701   5.304   4.767
13077TIP3    H139174   0.704   5.266   4.854
13077TIP3    H239175   0.609   5.326   4.752
13078TIP3   OH239176   6.688   2.232   0.922
13078TIP3    H139177   6.745   2.250   0.996
13078TIP3    H239178   6.711   2.143   0.894
13079TIP3   OH239179   7.512   5.348   0.676
13079TIP3    H139180   7.459   5.340   0.756
13079TIP3    H239181   7.504   5.440   0.651
13080TIP3   OH239182   7.511   6.366   1.629
13080TIP3    H139183   7.525   6.330   1.717
13080TIP3    H239184   7.438   6.316   1.594
13081TIP3   OH239185   7.088   2.713   2.792
13081TIP3    H139186   7.032   2.652   2.841
13081TIP3    H239187   7.028   2.770   2.745
13082TIP3   OH239188   7.510   5.414   1.506
13082TIP3    H139189   7.457   5.414   1.586
13082TIP3    H239190   7.553   5.328   1.506
13083TIP3   OH239191   2.734   2.827   2.822
13083TIP3    H139192   2.807   2.796   2.876
13083TIP3    H239193   2.718   2.757   2.760
13084TIP3   OH239194   6.457   2.336   4.181
13084TIP3    H139195   6.549   2.314   4.191
13084TIP3    H239196   6.452   2.381   4.096
13085TIP3   OH239197   5.084   5.708   0.289
13085TIP3    H139198   5.134   5.685   0.210
13085TIP3    H239199   5.042   5.626   0.315
13086TIP3   OH239200   5.515   5.765   6.541
13086TIP3    H139201   5.515   5.745   6.635
13086TIP3    H239202   5.426   5.796   6.523
13087TIP3   OH239203   5.387   6.609   0.036
13087TIP3    H139204   5.412   6.518   0.022
13087TIP3    H239205   5.349   6.637  -0.047
13088TIP3   OH239206   7.458   2.888   3.184
13088TIP3    H139207   7.524   2.943   3.142
13088TIP3    H239208   7.406   2.853   3.112
13089TIP3   OH239209   3.823   3.453   4.589
13089TIP3    H139210   3.786   3.366   4.606
13089TIP3    H239211   3.898   3.437   4.533
13090TIP3   OH239212   7.810   0.719   1.025
13090TIP3    H139213   7.828   0.790   0.964
13090TIP3    H239214   7.747   0.664   0.980
13091TIP3   OH239215   6.962   5.586   5.732
13091TIP3    H139216   6.892   5.534   5.771
13091TIP3    H239217   7.042   5.558   5.778
13092TIP3   OH239218   2.152   0.737   3.263
13092TIP3    H139219   2.081   0.695   3.214
13092TIP3    H239220   2.226   0.738   3.202
13093TIP3   OH239221   0.055   1.016   1.630
13093TIP3    H139222   0.120   1.086   1.638
13093TIP3    H239223   0.094   0.954   1.569
13094TIP3   OH239224   6.551   6.460   1.337
13094TIP3    H139225   6.553   6.512   1.417
13094TIP3    H239226   6.472   6.407   1.344
13095TIP3   OH239227   0.335   1.762   5.367
13095TIP3    H139228   0.255   1.754   5.315
13095TIP3    H239229   0.386   1.830   5.323
13096TIP3   OH239230   2.599   2.669   3.837
13096TIP3    H139231   2.568   2.580   3.821
13096TIP3    H239232   2.682   2.658   3.883
13097TIP3   OH239233   3.114   0.723   4.680
13097TIP3    H139234   3.112   0.818   4.669
13097TIP3    H239235   3.194   0.695   4.634
13098TIP3   OH239236   3.653   4.148   2.049
13098TIP3    H139237   3.677   4.236   2.077
13098TIP3    H239238   3.580   4.124   2.106
13099TIP3   OH239239   5.573   5.024   3.186
13099TIP3    H139240   5.483   5.054   3.173
13099TIP3    H239241   5.622   5.105   3.206
13100TIP3   OH239242   0.315   6.733   2.952
13100TIP3    H139243   0.376   6.764   3.019
13100TIP3    H239244   0.248   6.686   3.001
13101TIP3   OH239245   3.698   1.259   6.200
13101TIP3    H139246   3.705   1.212   6.117
13101TIP3    H239247   3.787   1.257   6.236
13102TIP3   OH239248   2.918   5.077   5.320
13102TIP3    H139249   2.832   5.108   5.292
13102TIP3    H239250   2.980   5.126   5.265
13103TIP3   OH239251   7.730   0.079   3.505
13103TIP3    H139252   7.711   0.131   3.583
13103TIP3    H239253   7.783   0.136   3.450
13104TIP3   OH239254   5.027   7.422   3.697
13104TIP3    H139255   5.116   7.405   3.726
13104TIP3    H239256   5.036   7.484   3.625
13105TIP3   OH239257   4.292   3.704   0.893
13105TIP3    H139258   4.288   3.668   0.804
13105TIP3    H239259   4.204   3.689   0.928
13106TIP3   OH239260   4.513   3.240   2.025
13106TIP3    H139261   4.554   3.312   2.073
13106TIP3    H239262   4.494   3.174   2.091
13107TIP3   OH239263   5.662   0.243   5.211
13107TIP3    H139264   5.571   0.230   5.238
13107TIP3    H239265   5.690   0.321   5.260
13108TIP3   OH239266   6.953   6.003   6.641
13108TIP3    H139267   6.883   6.028   6.580
13108TIP3    H239268   7.010   5.946   6.590
13109TIP3   OH239269   4.923   0.984   3.018
13109TIP3    H139270   4.941   0.954   2.929
13109TIP3    H239271   4.925   1.080   3.011
13110TIP3   OH239272   3.393   3.236   6.083
13110TIP3    H139273   3.438   3.297   6.141
13110TIP3    H239274   3.328   3.289   6.037
13111TIP3   OH239275   3.536   0.840   1.735
13111TIP3    H139276   3.500   0.926   1.759
13111TIP3    H239277   3.609   0.861   1.677
13112TIP3   OH239278   6.614   7.749   3.682
13112TIP3    H139279   6.596   7.656   3.673
13112TIP3    H239280   6.706   7.758   3.659
13113TIP3   OH239281   3.565   6.927   2.544
13113TIP3    H139282   3.586   6.840   2.509
13113TIP3    H239283   3.500   6.962   2.484
13114TIP3   OH239284   7.449   6.187   2.840
13114TIP3    H139285   7.482   6.100   2.816
13114TIP3    H239286   7.364   6.170   2.880
13115TIP3   OH239287   1.501   0.503   5.812
13115TIP3    H139288   1.542   0.433   5.864
13115TIP3    H239289   1.441   0.458   5.753
13116TIP3   OH239290   4.511   2.364   2.409
13116TIP3    H139291   4.603   2.347   2.391
13116TIP3    H239292   4.475   2.388   2.323
13117TIP3   OH239293   4.844   4.295   3.699
13117TIP3    H139294   4.804   4.230   3.641
13117TIP3    H239295   4.829   4.379   3.655
13118TIP3   OH239296   6.503   0.441   6.344
13118TIP3    H139297   6.573   0.504   6.324
13118TIP3    H239298   6.434   0.495   6.383
13119TIP3   OH239299   0.717   1.019   3.315
13119TIP3    H139300   0.641   1.074   3.293
13119TIP3    H239301   0.744   1.050   3.402
13120TIP3   OH239302   2.574   7.362   4.638
13120TIP3    H139303   2.554   7.275   4.673
13120TIP3    H239304   2.491   7.409   4.640
13121TIP3   OH239305   7.365   6.898   4.759
13121TIP3    H139306   7.432   6.882   4.692
13121TIP3    H239307   7.310   6.820   4.758
13122TIP3   OH239308   7.636   1.629   5.324
13122TIP3    H139309   7.546   1.645   5.295
13122TIP3    H239310   7.629   1.553   5.382
13123TIP3   OH239311   0.908   7.294   6.449
13123TIP3    H139312   0.901   7.359   6.380
13123TIP3    H239313   0.832   7.237   6.437
13124TIP3   OH239314   1.239   5.578   4.264
13124TIP3    H139315   1.242   5.489   4.230
13124TIP3    H239316   1.302   5.627   4.210
13125TIP3   OH239317   2.104   7.169   6.307
13125TIP3    H139318   2.094   7.143   6.399
13125TIP3    H239319   2.091   7.263   6.308
13126TIP3   OH239320   1.001   7.449   0.625
13126TIP3    H139321   1.015   7.541   0.605
13126TIP3    H239322   1.010   7.405   0.540
13127TIP3   OH239323   7.218   0.767   6.157
13127TIP3    H139324   7.295   0.789   6.104
13127TIP3    H239325   7.143   0.792   6.103
13128TIP3   OH239326   5.272   3.857   1.448
13128TIP3    H139327   5.195   3.812   1.415
13128TIP3    H239328   5.340   3.789   1.452
13129TIP3   OH239329   5.620   4.531   6.433
13129TIP3    H139330   5.549   4.485   6.388
13129TIP3    H239331   5.576   4.593   6.491
13130TIP3   OH239332   0.542   1.727   0.349
13130TIP3    H139333   0.618   1.669   0.343
13130TIP3    H239334   0.487   1.701   0.275
13131TIP3   OH239335   6.987   7.176   5.906
13131TIP3    H139336   6.917   7.124   5.946
13131TIP3    H239337   6.994   7.143   5.816
13132TIP3   OH239338   5.254   1.723   0.182
13132TIP3    H139339   5.264   1.772   0.264
13132TIP3    H239340   5.252   1.632   0.209
13133TIP3   OH239341   4.107   5.194   4.491
13133TIP3    H139342   4.033   5.205   4.551
13133TIP3    H239343   4.176   5.249   4.527
13134TIP3   OH239344   6.407   5.370   2.986
13134TIP3    H139345   6.449   5.291   3.019
13134TIP3    H239346   6.475   5.437   2.991
13135TIP3   OH239347   6.620   3.183   6.221
13135TIP3    H139348   6.552   3.243   6.249
13135TIP3    H239349   6.572   3.107   6.187
13136TIP3   OH239350   7.210   6.782   0.785
13136TIP3    H139351   7.265   6.746   0.715
13136TIP3    H239352   7.250   6.749   0.866
13137TIP3   OH239353   6.677   6.573   4.622
13137TIP3    H139354   6.752   6.633   4.624
13137TIP3    H239355   6.715   6.488   4.599
13138TIP3   OH239356   6.210   6.307   0.511
13138TIP3    H139357   6.279   6.328   0.448
13138TIP3    H239358   6.189   6.391   0.552
13139TIP3   OH239359   5.675   4.484   4.536
13139TIP3    H139360   5.659   4.492   4.442
13139TIP3    H239361   5.588   4.495   4.575
13140TIP3   OH239362   2.667   4.562   1.735
13140TIP3    H139363   2.605   4.607   1.792
13140TIP3    H239364   2.719   4.508   1.795
13141TIP3   OH239365   0.367   3.079   5.564
13141TIP3    H139366   0.335   3.167   5.584
13141TIP3    H239367   0.455   3.093   5.530
13142TIP3   OH239368   2.459   0.024   5.374
13142TIP3    H139369   2.478  -0.035   5.447
13142TIP3    H239370   2.380  -0.012   5.334
13143TIP3   OH239371   1.057   2.986   1.186
13143TIP3    H139372   1.038   2.895   1.208
13143TIP3    H239373   1.138   2.982   1.135
13144TIP3   OH239374   0.849   1.139   4.354
13144TIP3    H139375   0.759   1.128   4.384
13144TIP3    H239376   0.877   1.052   4.328
13145TIP3   OH239377   6.428   5.448   5.444
13145TIP3    H139378   6.490   5.442   5.517
13145TIP3    H239379   6.342   5.449   5.485
13146TIP3   OH239380   5.446   0.938   2.140
13146TIP3    H139381   5.412   1.008   2.195
13146TIP3    H239382   5.506   0.982   2.080
13147TIP3   OH239383   0.711   5.404   2.904
13147TIP3    H139384   0.751   5.451   2.831
13147TIP3    H239385   0.785   5.364   2.951
13148TIP3   OH239386   3.365   3.507   3.000
13148TIP3    H139387   3.360   3.412   2.994
13148TIP3    H239388   3.459   3.526   3.001
13149TIP3   OH239389   5.381   1.764   4.667
13149TIP3    H139390   5.341   1.696   4.612
13149TIP3    H239391   5.362   1.736   4.757
13150TIP3   OH239392   7.015   6.906   2.514
13150TIP3    H139393   6.944   6.957   2.475
13150TIP3    H239394   7.088   6.915   2.452
13151TIP3   OH239395   5.561   7.193   0.252
13151TIP3    H139396   5.597   7.193   0.340
13151TIP3    H239397   5.517   7.278   0.244
13152TIP3   OH239398   3.471   0.460   3.834
13152TIP3    H139399   3.455   0.417   3.751
13152TIP3    H239400   3.531   0.401   3.881
13153TIP3   OH239401   2.982   6.948   0.982
13153TIP3    H139402   2.891   6.919   0.978
13153TIP3    H239403   2.978   7.036   1.019
13154TIP3   OH239404   2.238   7.488   1.247
13154TIP3    H139405   2.202   7.512   1.162
13154TIP3    H239406   2.314   7.546   1.258
13155TIP3   OH239407   5.245   0.772   5.836
13155TIP3    H139408   5.200   0.845   5.879
13155TIP3    H239409   5.201   0.694   5.869
13156TIP3   OH239410   3.874   6.383   5.208
13156TIP3    H139411   3.794   6.408   5.161
13156TIP3    H239412   3.929   6.462   5.206
13157TIP3   OH239413   5.955   5.745   2.104
13157TIP3    H139414   5.979   5.766   2.194
13157TIP3    H239415   6.038   5.728   2.059
13158TIP3   OH239416   7.400   5.185   3.124
13158TIP3    H139417   7.364   5.118   3.181
13158TIP3    H239418   7.495   5.170   3.125
13159TIP3   OH239419   0.888   4.809   0.919
13159TIP3    H139420   0.954   4.790   0.985
13159TIP3    H239421   0.926   4.780   0.837
13160TIP3   OH239422   3.682   5.299   6.012
13160TIP3    H139423   3.659   5.280   5.921
13160TIP3    H239424   3.613   5.257   6.063
13161TIP3   OH239425   4.569   5.733   0.813
13161TIP3    H139426   4.494   5.736   0.873
13161TIP3    H239427   4.634   5.679   0.858
13162TIP3   OH239428   2.280   1.043   2.595
13162TIP3    H139429   2.334   1.031   2.673
13162TIP3    H239430   2.274   1.137   2.583
13163TIP3   OH239431   1.820   0.084   1.627
13163TIP3    H139432   1.743   0.054   1.676
13163TIP3    H239433   1.804   0.056   1.537
13164TIP3   OH239434   0.613   3.885   3.125
13164TIP3    H139435   0.520   3.907   3.122
13164TIP3    H239436   0.618   3.796   3.091
13165TIP3   OH239437   0.563   5.083   1.440
13165TIP3    H139438   0.597   5.110   1.525
13165TIP3    H239439   0.613   5.135   1.377
13166TIP3   OH239440   2.066   1.597   2.464
13166TIP3    H139441   1.975   1.569   2.461
13166TIP3    H239442   2.106   1.556   2.387
13167TIP3   OH239443   7.444   0.272   4.368
13167TIP3    H139444   7.524   0.311   4.335
13167TIP3    H239445   7.381   0.280   4.296
13168TIP3   OH239446   3.283   2.470   2.264
13168TIP3    H139447   3.319   2.554   2.294
13168TIP3    H239448   3.217   2.448   2.329
13169TIP3   OH239449   8.003   3.609   3.568
13169TIP3    H139450   7.916   3.606   3.606
13169TIP3    H239451   8.029   3.517   3.561
13170TIP3   OH239452   6.389   0.301   2.401
13170TIP3    H139453   6.354   0.265   2.319
13170TIP3    H239454   6.412   0.391   2.379
13171TIP3   OH239455   4.001   4.351   1.137
13171TIP3    H139456   4.069   4.286   1.154
13171TIP3    H239457   3.931   4.330   1.199
13172TIP3   OH239458   3.274   5.560   1.435
13172TIP3    H139459   3.241   5.548   1.346
13172TIP3    H239460   3.213   5.621   1.476
13173TIP3   OH239461   1.300   6.615   0.417
13173TIP3    H139462   1.209   6.641   0.409
13173TIP3    H239463   1.309   6.538   0.360
13174TIP3   OH239464   3.159   1.755   5.887
13174TIP3    H139465   3.236   1.805   5.914
13174TIP3    H239466   3.153   1.770   5.793
13175TIP3   OH239467   4.178   2.630   6.439
13175TIP3    H139468   4.211   2.678   6.515
13175TIP3    H239469   4.103   2.582   6.473
13176TIP3   OH239470   2.718   2.545   1.807
13176TIP3    H139471   2.622   2.541   1.812
13176TIP3    H239472   2.738   2.638   1.799
13177TIP3   OH239473   2.564   0.103   1.508
13177TIP3    H139474   2.541   0.170   1.444
13177TIP3    H239475   2.657   0.088   1.496
13178TIP3   OH239476   5.138   2.017   0.936
13178TIP3    H139477   5.054   1.980   0.961
13178TIP3    H239478   5.203   1.952   0.962
13179TIP3   OH239479   2.745   5.970   0.628
13179TIP3    H139480   2.820   6.026   0.648
13179TIP3    H239481   2.744   5.905   0.698
13180TIP3   OH239482   5.283   5.472   5.888
13180TIP3    H139483   5.271   5.424   5.970
13180TIP3    H239484   5.378   5.483   5.880
13181TIP3   OH239485   6.362   5.873   6.422
13181TIP3    H139486   6.331   5.928   6.494
13181TIP3    H239487   6.435   5.922   6.384
13182TIP3   OH239488   0.993   3.604   0.607
13182TIP3    H139489   0.897   3.600   0.607
13182TIP3    H239490   1.020   3.548   0.680
13183TIP3   OH239491   5.727   4.096   1.882
13183TIP3    H139492   5.685   4.181   1.892
13183TIP3    H239493   5.818   4.111   1.908
13184TIP3   OH239494   5.193   7.498   0.607
13184TIP3    H139495   5.219   7.569   0.665
13184TIP3    H239496   5.275   7.462   0.573
13185TIP3   OH239497   5.126   1.519   4.126
13185TIP3    H139498   5.220   1.523   4.104
13185TIP3    H239499   5.102   1.428   4.110
13186TIP3   OH239500   6.525   4.027   5.921
13186TIP3    H139501   6.615   4.044   5.949
13186TIP3    H239502   6.528   3.938   5.885
13187TIP3   OH239503   2.515   1.226   2.990
13187TIP3    H139504   2.556   1.232   2.904
13187TIP3    H239505   2.479   1.314   3.005
13188TIP3   OH239506   3.853   0.329   2.663
13188TIP3    H139507   3.773   0.280   2.640
13188TIP3    H239508   3.825   0.421   2.662
13189TIP3   OH239509   0.480   5.514   6.312
13189TIP3    H139510   0.448   5.561   6.235
13189TIP3    H239511   0.541   5.575   6.354
13190TIP3   OH239512   6.190   0.147   2.210
13190TIP3    H139513   6.109   0.191   2.183
13190TIP3    H239514   6.162   0.083   2.275
13191TIP3   OH239515   0.131   6.485   3.637
13191TIP3    H139516   0.209   6.538   3.653
13191TIP3    H239517   0.100   6.512   3.551
13192TIP3   OH239518   6.254   7.136   6.539
13192TIP3    H139519   6.229   7.228   6.535
13192TIP3    H239520   6.194   7.092   6.478
13193TIP3   OH239521   0.467   6.831   1.329
13193TIP3    H139522   0.547   6.790   1.295
13193TIP3    H239523   0.458   6.912   1.279
13194TIP3   OH239524   3.303   1.568   0.747
13194TIP3    H139525   3.292   1.595   0.656
13194TIP3    H239526   3.367   1.630   0.783
13195TIP3   OH239527   7.097   7.396   3.950
13195TIP3    H139528   7.139   7.469   3.905
13195TIP3    H239529   7.041   7.437   4.016
13196TIP3   OH239530   4.824   0.876   2.363
13196TIP3    H139531   4.844   0.843   2.275
13196TIP3    H239532   4.758   0.816   2.397
13197TIP3   OH239533   5.731   3.815   5.705
13197TIP3    H139534   5.804   3.875   5.720
13197TIP3    H239535   5.692   3.845   5.623
13198TIP3   OH239536   2.638   0.917   3.965
13198TIP3    H139537   2.728   0.948   3.950
13198TIP3    H239538   2.614   0.876   3.882
13199TIP3   OH239539   7.156   0.468   6.024
13199TIP3    H139540   7.190   0.408   6.091
13199TIP3    H239541   7.064   0.479   6.047
13200TIP3   OH239542   0.262   5.633   3.506
13200TIP3    H139543   0.182   5.583   3.524
13200TIP3    H239544   0.315   5.575   3.451
13201TIP3   OH239545   7.071   1.003   6.625
13201TIP3    H139546   7.013   0.936   6.590
13201TIP3    H239547   7.107   0.964   6.705
13202TIP3   OH239548   4.491   3.035   2.881
13202TIP3    H139549   4.458   3.008   2.795
13202TIP3    H239550   4.556   3.102   2.862
13203TIP3   OH239551   2.123   3.443   4.137
13203TIP3    H139552   2.079   3.359   4.149
13203TIP3    H239553   2.171   3.458   4.219
13204TIP3   OH239554   7.921   3.099   6.114
13204TIP3    H139555   7.975   3.039   6.062
13204TIP3    H239556   7.859   3.136   6.051
13205TIP3   OH239557   6.674   7.121   4.679
13205TIP3    H139558   6.587   7.161   4.677
13205TIP3    H239559   6.718   7.154   4.600
13206TIP3   OH239560   1.344   0.925   0.299
13206TIP3    H139561   1.435   0.916   0.325
13206TIP3    H239562   1.347   0.974   0.217
13207TIP3   OH239563   4.024   7.716   0.469
13207TIP3    H139564   3.934   7.744   0.486
13207TIP3    H239565   4.040   7.648   0.535
13208TIP3   OH239566   0.526   0.828   6.308
13208TIP3    H139567   0.594   0.894   6.320
13208TIP3    H239568   0.570   0.757   6.262
13209TIP3   OH239569   3.625   0.071   3.228
13209TIP3    H139570   3.720   0.067   3.240
13209TIP3    H239571   3.598   0.152   3.272
13210TIP3   OH239572   0.793   0.458   3.214
13210TIP3    H139573   0.809   0.365   3.203
13210TIP3    H239574   0.739   0.482   3.138
13211TIP3   OH239575   6.320   1.063   0.120
13211TIP3    H139576   6.231   1.078   0.088
13211TIP3    H239577   6.376   1.084   0.045
13212TIP3   OH239578   3.745   7.250   4.352
13212TIP3    H139579   3.684   7.178   4.340
13212TIP3    H239580   3.732   7.278   4.443
13213TIP3   OH239581   5.853   1.898   4.927
13213TIP3    H139582   5.935   1.940   4.950
13213TIP3    H239583   5.810   1.960   4.867
13214TIP3   OH239584   3.368   1.056   3.836
13214TIP3    H139585   3.405   1.016   3.758
13214TIP3    H239586   3.444   1.091   3.884
13215TIP3   OH239587   1.098   1.619   2.857
13215TIP3    H139588   1.135   1.543   2.903
13215TIP3    H239589   1.047   1.665   2.923
13216TIP3   OH239590   3.926   0.441   3.145
13216TIP3    H139591   3.900   0.501   3.075
13216TIP3    H239592   3.891   0.480   3.225
13217TIP3   OH239593   2.157   4.458   4.400
13217TIP3    H139594   2.070   4.452   4.361
13217TIP3    H239595   2.172   4.371   4.438
13218TIP3   OH239596   6.638   1.716   4.821
13218TIP3    H139597   6.651   1.723   4.727
13218TIP3    H239598   6.722   1.738   4.860
13219TIP3   OH239599   5.093   7.667   3.880
13219TIP3    H139600   5.019   7.713   3.840
13219TIP3    H239601   5.101   7.586   3.830
13220TIP3   OH239602   5.138   2.247   5.391
13220TIP3    H139603   5.221   2.237   5.438
13220TIP3    H239604   5.140   2.336   5.357
13221TIP3   OH239605   1.451   7.291   6.651
13221TIP3    H139606   1.502   7.328   6.578
13221TIP3    H239607   1.366   7.335   6.645
13222TIP3   OH239608   0.862   1.833   2.191
13222TIP3    H139609   0.951   1.802   2.179
13222TIP3    H239610   0.855   1.910   2.135
13223TIP3   OH239611   6.999   5.554   0.617
13223TIP3    H139612   6.921   5.605   0.636
13223TIP3    H239613   6.966   5.466   0.596
13224TIP3   OH239614   1.104   6.479   2.059
13224TIP3    H139615   1.086   6.432   1.978
13224TIP3    H239616   1.022   6.523   2.080
13225TIP3   OH239617   3.528   3.951   6.328
13225TIP3    H139618   3.487   4.026   6.369
13225TIP3    H239619   3.542   3.889   6.400
13226TIP3   OH239620   2.432   2.131   5.767
13226TIP3    H139621   2.506   2.126   5.707
13226TIP3    H239622   2.442   2.215   5.811
13227TIP3   OH239623   0.957   7.397   5.176
13227TIP3    H139624   0.892   7.416   5.108
13227TIP3    H239625   0.952   7.302   5.188
13228TIP3   OH239626   4.251   1.046   3.765
13228TIP3    H139627   4.193   0.971   3.775
13228TIP3    H239628   4.194   1.117   3.735
13229TIP3   OH239629   2.807   5.756   5.451
13229TIP3    H139630   2.748   5.822   5.487
13229TIP3    H239631   2.891   5.773   5.493
13230TIP3   OH239632   6.543   4.393   1.524
13230TIP3    H139633   6.623   4.445   1.513
13230TIP3    H239634   6.510   4.383   1.435
13231TIP3   OH239635   6.341   4.526   3.354
13231TIP3    H139636   6.265   4.581   3.335
13231TIP3    H239637   6.348   4.468   3.279
13232TIP3   OH239638   5.223   2.401   6.739
13232TIP3    H139639   5.191   2.312   6.735
13232TIP3    H239640   5.148   2.456   6.717
13233TIP3   OH239641   7.662   2.336   6.113
13233TIP3    H139642   7.690   2.425   6.132
13233TIP3    H239643   7.659   2.331   6.017
13234TIP3   OH239644   5.073   6.044   2.253
13234TIP3    H139645   5.015   5.999   2.192
13234TIP3    H239646   5.154   5.994   2.251
13235TIP3   OH239647   1.896   3.701   2.626
13235TIP3    H139648   1.941   3.671   2.547
13235TIP3    H239649   1.803   3.698   2.604
13236TIP3   OH239650   1.233   3.091   2.492
13236TIP3    H139651   1.306   3.103   2.431
13236TIP3    H239652   1.269   3.033   2.560
13237TIP3   OH239653   7.262   1.961   1.200
13237TIP3    H139654   7.189   1.899   1.203
13237TIP3    H239655   7.337   1.912   1.231
13238TIP3   OH239656   0.362   4.530   4.547
13238TIP3    H139657   0.350   4.549   4.640
13238TIP3    H239658   0.431   4.590   4.519
13239TIP3   OH239659   7.441   6.317   1.009
13239TIP3    H139660   7.535   6.326   0.991
13239TIP3    H239661   7.404   6.281   0.928
13240TIP3   OH239662   4.173   2.262   6.676
13240TIP3    H139663   4.132   2.175   6.668
13240TIP3    H239664   4.153   2.290   6.765
13241TIP3   OH239665   5.064   3.956   6.243
13241TIP3    H139666   5.041   3.978   6.334
13241TIP3    H239667   5.023   4.024   6.191
13242TIP3   OH239668   2.654   3.092   5.714
13242TIP3    H139669   2.590   3.033   5.676
13242TIP3    H239670   2.637   3.088   5.809
13243TIP3   OH239671   7.801   5.876   3.545
13243TIP3    H139672   7.895   5.896   3.548
13243TIP3    H239673   7.769   5.902   3.632
13244TIP3   OH239674   4.561   7.313   0.603
13244TIP3    H139675   4.598   7.356   0.680
13244TIP3    H239676   4.470   7.297   0.625
13245TIP3   OH239677   2.579   0.697   6.345
13245TIP3    H139678   2.672   0.674   6.345
13245TIP3    H239679   2.566   0.746   6.426
13246TIP3   OH239680   0.644   5.685   6.028
13246TIP3    H139681   0.698   5.753   6.068
13246TIP3    H239682   0.563   5.686   6.079
13247TIP3   OH239683   3.620   6.287   1.435
13247TIP3    H139684   3.691   6.349   1.421
13247TIP3    H239685   3.545   6.341   1.458
13248TIP3   OH239686   4.400   3.851   1.414
13248TIP3    H139687   4.474   3.799   1.384
13248TIP3    H239688   4.354   3.795   1.476
13249TIP3   OH239689   3.411   2.092   0.891
13249TIP3    H139690   3.403   2.065   0.800
13249TIP3    H239691   3.339   2.153   0.905
13250TIP3   OH239692   2.338   0.534   1.754
13250TIP3    H139693   2.351   0.467   1.686
13250TIP3    H239694   2.305   0.610   1.706
13251TIP3   OH239695   2.548   6.020   1.425
13251TIP3    H139696   2.501   6.059   1.352
13251TIP3    H239697   2.607   6.090   1.456
13252TIP3   OH239698   1.233   2.575   5.328
13252TIP3    H139699   1.222   2.521   5.250
13252TIP3    H239700   1.164   2.641   5.320
13253TIP3   OH239701   4.760   1.896   5.865
13253TIP3    H139702   4.696   1.880   5.797
13253TIP3    H239703   4.734   1.979   5.904
13254TIP3   OH239704   3.938   6.244   2.278
13254TIP3    H139705   3.881   6.182   2.233
13254TIP3    H239706   4.027   6.210   2.265
13255TIP3   OH239707   5.730   4.628   0.665
13255TIP3    H139708   5.647   4.601   0.704
13255TIP3    H239709   5.787   4.551   0.671
13256TIP3   OH239710   0.957   6.319   4.353
13256TIP3    H139711   0.998   6.280   4.276
13256TIP3    H239712   0.956   6.247   4.417
13257TIP3   OH239713   7.800   7.063   4.626
13257TIP3    H139714   7.780   7.113   4.705
13257TIP3    H239715   7.752   7.109   4.557
13258TIP3   OH239716   3.377   7.096   0.285
13258TIP3    H139717   3.357   7.071   0.375
13258TIP3    H239718   3.384   7.014   0.237
13259TIP3   OH239719   1.907   1.249   4.288
13259TIP3    H139720   1.862   1.185   4.343
13259TIP3    H239721   1.854   1.328   4.294
13260TIP3   OH239722   6.881   5.011   1.592
13260TIP3    H139723   6.967   5.010   1.551
13260TIP3    H239724   6.881   4.935   1.651
13261TIP3   OH239725   7.378   1.803   0.344
13261TIP3    H139726   7.284   1.817   0.329
13261TIP3    H239727   7.397   1.722   0.297
13262TIP3   OH239728   5.054   0.993   0.458
13262TIP3    H139729   5.037   1.011   0.366
13262TIP3    H239730   5.028   0.901   0.470
13263TIP3   OH239731   1.693   2.775   0.466
13263TIP3    H139732   1.757   2.722   0.514
13263TIP3    H239733   1.645   2.711   0.412
13264TIP3   OH239734   0.703   7.247   0.048
13264TIP3    H139735   0.657   7.327   0.023
13264TIP3    H239736   0.710   7.252   0.143
13265TIP3   OH239737   1.436   6.109   1.178
13265TIP3    H139738   1.463   6.158   1.101
13265TIP3    H239739   1.353   6.150   1.205
13266TIP3   OH239740   7.286   6.515   6.304
13266TIP3    H139741   7.255   6.468   6.227
13266TIP3    H239742   7.354   6.459   6.341
13267TIP3   OH239743   5.759   4.039   5.270
13267TIP3    H139744   5.852   4.016   5.272
13267TIP3    H239745   5.756   4.124   5.225
13268TIP3   OH239746   0.867   0.675   6.357
13268TIP3    H139747   0.778   0.656   6.389
13268TIP3    H239748   0.873   0.628   6.274
13269TIP3   OH239749   4.208   2.519   0.382
13269TIP3    H139750   4.226   2.605   0.420
13269TIP3    H239751   4.112   2.512   0.383
13270TIP3   OH239752   0.726   3.478   0.656
13270TIP3    H139753   0.659   3.429   0.608
13270TIP3    H239754   0.683   3.560   0.680
13271TIP3   OH239755   0.750   0.155   5.650
13271TIP3    H139756   0.824   0.174   5.706
13271TIP3    H239757   0.733   0.062   5.663
13272TIP3   OH239758   7.359   7.507   3.143
13272TIP3    H139759   7.323   7.593   3.167
13272TIP3    H239760   7.431   7.528   3.083
13273TIP3   OH239761   2.571   7.154   5.229
13273TIP3    H139762   2.628   7.229   5.212
13273TIP3    H239763   2.618   7.103   5.295
13274TIP3   OH239764   3.563   5.579   3.609
13274TIP3    H139765   3.540   5.487   3.598
13274TIP3    H239766   3.655   5.578   3.636
13275TIP3   OH239767   4.574   3.660   4.147
13275TIP3    H139768   4.543   3.604   4.076
13275TIP3    H239769   4.502   3.662   4.210
13276TIP3   OH239770   4.903   0.908   6.393
13276TIP3    H139771   4.874   0.979   6.335
13276TIP3    H239772   4.836   0.904   6.461
13277TIP3   OH239773   5.633   6.336   3.858
13277TIP3    H139774   5.594   6.423   3.849
13277TIP3    H239775   5.599   6.302   3.940
13278TIP3   OH239776   1.517   4.791   4.784
13278TIP3    H139777   1.583   4.821   4.721
13278TIP3    H239778   1.491   4.870   4.831
13279TIP3   OH239779   6.271   6.307   3.517
13279TIP3    H139780   6.269   6.401   3.535
13279TIP3    H239781   6.178   6.283   3.509
13280TIP3   OH239782   4.808   5.784   3.147
13280TIP3    H139783   4.839   5.771   3.236
13280TIP3    H239784   4.766   5.701   3.124
13281TIP3   OH239785   7.328   4.197   6.253
13281TIP3    H139786   7.275   4.247   6.315
13281TIP3    H239787   7.346   4.259   6.182
13282TIP3   OH239788   6.612   5.222   6.012
13282TIP3    H139789   6.619   5.316   6.026
13282TIP3    H239790   6.688   5.185   6.057
13283TIP3   OH239791   2.230   4.999   1.980
13283TIP3    H139792   2.185   4.954   2.052
13283TIP3    H239793   2.298   5.051   2.024
13284TIP3   OH239794   5.646   6.725   2.668
13284TIP3    H139795   5.682   6.788   2.605
13284TIP3    H239796   5.693   6.742   2.749
13285TIP3   OH239797   5.232   6.975   2.771
13285TIP3    H139798   5.319   6.975   2.730
13285TIP3    H239799   5.175   7.016   2.706
13286TIP3   OH239800   6.968   3.083   1.693
13286TIP3    H139801   6.984   3.118   1.781
13286TIP3    H239802   6.873   3.074   1.688
13287TIP3   OH239803   1.333   2.735   5.792
13287TIP3    H139804   1.371   2.822   5.807
13287TIP3    H239805   1.381   2.677   5.851
13288TIP3   OH239806   5.414   1.510   3.578
13288TIP3    H139807   5.420   1.416   3.595
13288TIP3    H239808   5.425   1.550   3.664
13289TIP3   OH239809   5.321   5.320   1.460
13289TIP3    H139810   5.404   5.284   1.491
13289TIP3    H239811   5.286   5.251   1.403
13290TIP3   OH239812   7.014   5.863   5.435
13290TIP3    H139813   7.100   5.835   5.404
13290TIP3    H239814   6.968   5.893   5.356
13291TIP3   OH239815   1.908   6.952   5.913
13291TIP3    H139816   1.838   7.011   5.886
13291TIP3    H239817   1.987   7.005   5.908
13292TIP3   OH239818   1.610   4.293   6.106
13292TIP3    H139819   1.592   4.255   6.020
13292TIP3    H239820   1.626   4.217   6.162
13293TIP3   OH239821   0.323   5.817   0.978
13293TIP3    H139822   0.256   5.875   0.942
13293TIP3    H239823   0.377   5.873   1.032
13294TIP3   OH239824   3.630   5.831   2.015
13294TIP3    H139825   3.610   5.806   1.924
13294TIP3    H239826   3.579   5.910   2.030
13295TIP3   OH239827   3.430   5.511   5.978
13295TIP3    H139828   3.442   5.417   5.966
13295TIP3    H239829   3.426   5.523   6.073
13296TIP3   OH239830   6.813   6.470   4.897
13296TIP3    H139831   6.854   6.498   4.979
13296TIP3    H239832   6.747   6.537   4.880
13297TIP3   OH239833   6.474   2.517   0.158
13297TIP3    H139834   6.463   2.439   0.103
13297TIP3    H239835   6.412   2.506   0.230
13298TIP3   OH239836   0.778   1.791   0.889
13298TIP3    H139837   0.840   1.811   0.819
13298TIP3    H239838   0.819   1.719   0.937
13299TIP3   OH239839   5.580   7.105   3.796
13299TIP3    H139840   5.539   7.157   3.727
13299TIP3    H239841   5.523   7.029   3.806
13300TIP3   OH239842   0.360   5.833   3.235
13300TIP3    H139843   0.290   5.791   3.184
13300TIP3    H239844   0.319   5.852   3.320
13301TIP3   OH239845   1.561   6.120   3.718
13301TIP3    H139846   1.631   6.181   3.693
13301TIP3    H239847   1.598   6.071   3.792
13302TIP3   OH239848   8.253   1.969   4.924
13302TIP3    H139849   8.259   2.014   5.008
13302TIP3    H239850   8.314   2.015   4.867
13303TIP3   OH239851   5.039   4.505   1.387
13303TIP3    H139852   4.973   4.553   1.436
13303TIP3    H239853   5.121   4.522   1.434
13304TIP3   OH239854   1.399   4.534   5.357
13304TIP3    H139855   1.393   4.603   5.422
13304TIP3    H239856   1.446   4.463   5.401
13305TIP3   OH239857   1.830   3.795   1.046
13305TIP3    H139858   1.813   3.725   0.983
13305TIP3    H239859   1.807   3.875   0.998
13306TIP3   OH239860   4.706   1.331   0.963
13306TIP3    H139861   4.725   1.279   1.041
13306TIP3    H239862   4.659   1.270   0.905
13307TIP3   OH239863   3.684   2.760   2.815
13307TIP3    H139864   3.765   2.793   2.853
13307TIP3    H239865   3.617   2.774   2.882
13308TIP3   OH239866   1.197   6.211   1.275
13308TIP3    H139867   1.155   6.186   1.357
13308TIP3    H239868   1.131   6.195   1.208
13309TIP3   OH239869   2.781   7.618   3.403
13309TIP3    H139870   2.849   7.553   3.423
13309TIP3    H239871   2.703   7.586   3.448
13310TIP3   OH239872   3.467   1.982   6.301
13310TIP3    H139873   3.443   1.895   6.269
13310TIP3    H239874   3.402   2.040   6.262
13311TIP3   OH239875   3.946   5.177   5.911
13311TIP3    H139876   3.935   5.269   5.888
13311TIP3    H239877   3.857   5.144   5.921
13312TIP3   OH239878   0.655   6.978   5.481
13312TIP3    H139879   0.565   7.009   5.490
13312TIP3    H239880   0.656   6.932   5.397
13313TIP3   OH239881   0.429   4.815   6.062
13313TIP3    H139882   0.410   4.909   6.066
13313TIP3    H239883   0.488   4.800   6.136
13314TIP3   OH239884   2.517   3.475   4.163
13314TIP3    H139885   2.603   3.433   4.171
13314TIP3    H239886   2.497   3.470   4.069
13315TIP3   OH239887   3.047   5.195   3.609
13315TIP3    H139888   3.085   5.107   3.609
13315TIP3    H239889   3.059   5.226   3.699
13316TIP3   OH239890   6.168   3.673   0.547
13316TIP3    H139891   6.240   3.645   0.490
13316TIP3    H239892   6.197   3.653   0.636
13317TIP3   OH239893   1.217   1.460   3.559
13317TIP3    H139894   1.148   1.396   3.576
13317TIP3    H239895   1.173   1.544   3.556
13318TIP3   OH239896   8.202   2.018   6.370
13318TIP3    H139897   8.245   2.007   6.285
13318TIP3    H239898   8.126   2.074   6.352
13319TIP3   OH239899   6.224   4.684   4.574
13319TIP3    H139900   6.298   4.627   4.554
13319TIP3    H239901   6.147   4.626   4.571
13320TIP3   OH239902   4.417   1.860   4.480
13320TIP3    H139903   4.385   1.794   4.419
13320TIP3    H239904   4.485   1.815   4.531
13321TIP3   OH239905   4.432   7.172   6.486
13321TIP3    H139906   4.368   7.199   6.551
13321TIP3    H239907   4.429   7.077   6.487
13322TIP3   OH239908   2.160   3.964   1.358
13322TIP3    H139909   2.095   4.034   1.355
13322TIP3    H239910   2.173   3.940   1.266
13323TIP3   OH239911   4.703   1.304   6.725
13323TIP3    H139912   4.626   1.358   6.708
13323TIP3    H239913   4.777   1.362   6.709
13324TIP3   OH239914   2.634   1.507   2.725
13324TIP3    H139915   2.682   1.491   2.807
13324TIP3    H239916   2.604   1.597   2.733
13325TIP3   OH239917   7.631   2.823   1.131
13325TIP3    H139918   7.675   2.768   1.066
13325TIP3    H239919   7.700   2.847   1.193
13326TIP3   OH239920   1.139   5.043   3.345
13326TIP3    H139921   1.163   5.136   3.341
13326TIP3    H239922   1.187   5.009   3.421
13327TIP3   OH239923   7.206   7.309   5.726
13327TIP3    H139924   7.155   7.228   5.718
13327TIP3    H239925   7.236   7.310   5.817
13328TIP3   OH239926   1.795   1.714   6.297
13328TIP3    H139927   1.807   1.759   6.214
13328TIP3    H239928   1.710   1.744   6.329
13329TIP3   OH239929   4.403   0.792   4.778
13329TIP3    H139930   4.357   0.717   4.816
13329TIP3    H239931   4.453   0.755   4.704
13330TIP3   OH239932   1.013   5.040   1.800
13330TIP3    H139933   0.946   5.009   1.861
13330TIP3    H239934   1.079   5.082   1.855
13331TIP3   OH239935   5.450   4.343   2.212
13331TIP3    H139936   5.418   4.413   2.155
13331TIP3    H239937   5.544   4.339   2.196
13332TIP3   OH239938   5.814   1.300   2.977
13332TIP3    H139939   5.870   1.272   3.049
13332TIP3    H239940   5.752   1.361   3.017
13333TIP3   OH239941   1.280   4.607   4.523
13333TIP3    H139942   1.208   4.545   4.518
13333TIP3    H239943   1.308   4.603   4.615
13334TIP3   OH239944   7.860   1.619   0.869
13334TIP3    H139945   7.930   1.558   0.891
13334TIP3    H239946   7.791   1.602   0.932
13335TIP3   OH239947   0.754   2.901   4.718
13335TIP3    H139948   0.751   2.989   4.756
13335TIP3    H239949   0.681   2.854   4.759
13336TIP3   OH239950   6.634   2.758   6.037
13336TIP3    H139951   6.573   2.707   5.983
13336TIP3    H239952   6.689   2.803   5.973
13337TIP3   OH239953   5.643   3.693   1.977
13337TIP3    H139954   5.549   3.675   1.982
13337TIP3    H239955   5.682   3.613   1.942
13338TIP3   OH239956   5.283   2.678   6.763
13338TIP3    H139957   5.240   2.634   6.837
13338TIP3    H239958   5.267   2.621   6.688
13339TIP3   OH239959   7.362   0.098   0.157
13339TIP3    H139960   7.268   0.110   0.148
13339TIP3    H239961   7.374   0.061   0.244
13340TIP3   OH239962   6.635   3.967   2.983
13340TIP3    H139963   6.697   3.906   2.944
13340TIP3    H239964   6.679   3.999   3.062
13341TIP3   OH239965   6.823   3.744   2.884
13341TIP3    H139966   6.877   3.669   2.910
13341TIP3    H239967   6.750   3.706   2.836
13342TIP3   OH239968   6.032   6.760   1.100
13342TIP3    H139969   6.080   6.749   1.018
13342TIP3    H239970   6.054   6.848   1.130
13343TIP3   OH239971   3.658   7.179   5.686
13343TIP3    H139972   3.660   7.084   5.690
13343TIP3    H239973   3.675   7.200   5.594
13344TIP3   OH239974   6.918   3.165   1.065
13344TIP3    H139975   6.945   3.197   1.151
13344TIP3    H239976   7.000   3.156   1.016
13345TIP3   OH239977   7.649   2.550   4.146
13345TIP3    H139978   7.699   2.618   4.099
13345TIP3    H239979   7.714   2.505   4.199
13346TIP3   OH239980   0.373   4.920   6.416
13346TIP3    H139981   0.347   4.881   6.500
13346TIP3    H239982   0.421   4.850   6.371
13347TIP3   OH239983   4.225   4.338   2.432
13347TIP3    H139984   4.318   4.351   2.416
13347TIP3    H239985   4.191   4.301   2.351
13348TIP3   OH239986   7.232   2.445   4.557
13348TIP3    H139987   7.300   2.466   4.493
13348TIP3    H239988   7.250   2.354   4.582
13349TIP3   OH239989   1.108   3.588   4.072
13349TIP3    H139990   1.055   3.643   4.014
13349TIP3    H239991   1.062   3.504   4.073
13350TIP3   OH239992   7.271   1.758   2.284
13350TIP3    H139993   7.278   1.818   2.210
13350TIP3    H239994   7.227   1.809   2.353
13351TIP3   OH239995   0.781   0.578   3.479
13351TIP3    H139996   0.860   0.550   3.527
13351TIP3    H239997   0.800   0.557   3.388
13352TIP3   OH239998   3.998   6.048   0.914
13352TIP3    H139999   3.975   6.051   0.821
13352TIP3    H240000   4.048   5.967   0.924
13353TIP3   OH240001   3.123   1.765   4.420
13353TIP3    H140002   3.169   1.835   4.373
13353TIP3    H240003   3.067   1.810   4.482
13354TIP3   OH240004   6.025   4.983   3.758
13354TIP3    H140005   6.052   4.925   3.829
13354TIP3    H240006   5.992   5.061   3.803
13355TIP3   OH240007   0.668   7.405   5.291
13355TIP3    H140008   0.620   7.407   5.208
13355TIP3    H240009   0.759   7.389   5.266
13356TIP3   OH240010   1.307   1.345   1.972
13356TIP3    H140011   1.219   1.375   1.993
13356TIP3    H240012   1.335   1.401   1.900
13357TIP3   OH240013   5.499   7.287   5.270
13357TIP3    H140014   5.484   7.210   5.325
13357TIP3    H240015   5.573   7.332   5.311
13358TIP3   OH240016   0.831   1.658   6.050
13358TIP3    H140017   0.901   1.596   6.074
13358TIP3    H240018   0.823   1.715   6.126
13359TIP3   OH240019   8.211   4.992   0.229
13359TIP3    H140020   8.116   5.000   0.237
13359TIP3    H240021   8.246   5.048   0.298
13360TIP3   OH240022   7.296   6.888   1.279
13360TIP3    H140023   7.287   6.839   1.197
13360TIP3    H240024   7.364   6.842   1.327
13361TIP3   OH240025   6.650   3.380   5.081
13361TIP3    H140026   6.711   3.307   5.074
13361TIP3    H240027   6.619   3.376   5.172
13362TIP3   OH240028   2.252   0.163   1.890
13362TIP3    H140029   2.297   0.100   1.833
13362TIP3    H240030   2.207   0.109   1.955
13363TIP3   OH240031   5.708   2.799   3.875
13363TIP3    H140032   5.706   2.825   3.783
13363TIP3    H240033   5.763   2.864   3.918
13364TIP3   OH240034   7.477   1.769   2.462
13364TIP3    H140035   7.445   1.700   2.521
13364TIP3    H240036   7.426   1.758   2.382
13365TIP3   OH240037   5.720   4.375   1.823
13365TIP3    H140038   5.804   4.418   1.808
13365TIP3    H240039   5.655   4.438   1.791
13366TIP3   OH240040   6.084   6.410   1.723
13366TIP3    H140041   5.997   6.401   1.683
13366TIP3    H240042   6.123   6.324   1.715
13367TIP3   OH240043   7.053   3.854   5.664
13367TIP3    H140044   7.096   3.770   5.676
13367TIP3    H240045   7.008   3.845   5.579
13368TIP3   OH240046   3.780   1.867   3.942
13368TIP3    H140047   3.851   1.885   3.880
13368TIP3    H240048   3.799   1.779   3.975
13369TIP3   OH240049   4.399   7.327   2.499
13369TIP3    H140050   4.322   7.379   2.474
13369TIP3    H240051   4.467   7.353   2.436
13370TIP3   OH240052   5.719   1.918   0.189
13370TIP3    H140053   5.662   1.857   0.141
13370TIP3    H240054   5.698   1.904   0.281
13371TIP3   OH240055   7.627   7.392   5.201
13371TIP3    H140056   7.557   7.368   5.261
13371TIP3    H240057   7.693   7.324   5.213
13372TIP3   OH240058   2.932   2.425   4.186
13372TIP3    H140059   2.948   2.384   4.271
13372TIP3    H240060   2.868   2.368   4.144
13373TIP3   OH240061   6.393   0.155   2.041
13373TIP3    H140062   6.387   0.233   1.987
13373TIP3    H240063   6.320   0.163   2.104
13374TIP3   OH240064   2.352   3.690   1.839
13374TIP3    H140065   2.442   3.722   1.829
13374TIP3    H240066   2.319   3.737   1.916
13375TIP3   OH240067   0.311   4.493   1.344
13375TIP3    H140068   0.392   4.513   1.390
13375TIP3    H240069   0.290   4.403   1.370
13376TIP3   OH240070   6.092   5.277   4.398
13376TIP3    H140071   6.109   5.327   4.318
13376TIP3    H240072   6.044   5.199   4.369
13377TIP3   OH240073   1.358   1.517   2.784
13377TIP3    H140074   1.323   1.489   2.868
13377TIP3    H240075   1.329   1.450   2.722
13378TIP3   OH240076   0.144   3.106   1.985
13378TIP3    H140077   0.166   3.189   2.026
13378TIP3    H240078   0.212   3.093   1.919
13379TIP3   OH240079   2.746   4.010   1.375
13379TIP3    H140080   2.666   4.009   1.323
13379TIP3    H240081   2.800   4.078   1.334
13380TIP3   OH240082   2.136   2.967   1.288
13380TIP3    H140083   2.054   3.018   1.293
13380TIP3    H240084   2.156   2.946   1.379
13381TIP3   OH240085   5.696   1.291   6.606
13381TIP3    H140086   5.688   1.231   6.681
13381TIP3    H240087   5.790   1.294   6.589
13382TIP3   OH240088   8.125   7.673   2.614
13382TIP3    H140089   8.100   7.759   2.580
13382TIP3    H240090   8.049   7.644   2.666
13383TIP3   OH240091   2.752   5.436   3.381
13383TIP3    H140092   2.839   5.452   3.345
13383TIP3    H240093   2.729   5.518   3.425
13384TIP3   OH240094   8.280   3.452   1.206
13384TIP3    H140095   8.307   3.541   1.232
13384TIP3    H240096   8.190   3.462   1.175
13385TIP3   OH240097   7.651   7.038   2.063
13385TIP3    H140098   7.574   7.015   2.013
13385TIP3    H240099   7.618   7.058   2.151
13386TIP3   OH240100   7.845   5.350   4.896
13386TIP3    H140101   7.760   5.320   4.929
13386TIP3    H240102   7.823   5.415   4.828
13387TIP3   OH240103   2.220   0.918   4.951
13387TIP3    H140104   2.181   0.835   4.923
13387TIP3    H240105   2.309   0.895   4.979
13388TIP3   OH240106   2.457   2.059   2.172
13388TIP3    H140107   2.434   2.148   2.144
13388TIP3    H240108   2.373   2.017   2.188
13389TIP3   OH240109   0.949   3.204   4.307
13389TIP3    H140110   0.857   3.177   4.313
13389TIP3    H240111   0.996   3.139   4.359
13390TIP3   OH240112   4.003   4.763   6.434
13390TIP3    H140113   4.029   4.840   6.385
13390TIP3    H240114   4.082   4.734   6.478
13391TIP3   OH240115   3.439   5.162   4.496
13391TIP3    H140116   3.467   5.072   4.515
13391TIP3    H240117   3.387   5.188   4.572
13392TIP3   OH240118   7.264   3.447   4.276
13392TIP3    H140119   7.233   3.363   4.310
13392TIP3    H240120   7.351   3.457   4.314
13393TIP3   OH240121   2.707   2.363   6.038
13393TIP3    H140122   2.759   2.361   5.957
13393TIP3    H240123   2.769   2.343   6.107
13394TIP3   OH240124   7.914   6.470   5.248
13394TIP3    H140125   7.961   6.543   5.207
13394TIP3    H240126   7.922   6.398   5.186
13395TIP3   OH240127   7.821   1.473   4.700
13395TIP3    H140128   7.862   1.437   4.778
13395TIP3    H240129   7.891   1.477   4.635
13396TIP3   OH240130   8.275   2.799   6.111
13396TIP3    H140131   8.263   2.709   6.141
13396TIP3    H240132   8.309   2.790   6.022
13397TIP3   OH240133   8.242   5.895   5.004
13397TIP3    H140134   8.270   5.943   5.082
13397TIP3    H240135   8.291   5.935   4.932
13398TIP3   OH240136   2.831   3.932   0.032
13398TIP3    H140137   2.843   3.867  -0.037
13398TIP3    H240138   2.804   3.882   0.109
13399TIP3   OH240139   0.796   5.925   5.349
13399TIP3    H140140   0.844   5.907   5.430
13399TIP3    H240141   0.794   5.840   5.303
13400TIP3   OH240142   1.972   4.454   1.908
13400TIP3    H140143   1.942   4.406   1.831
13400TIP3    H240144   1.923   4.536   1.906
13401TIP3   OH240145   4.856   5.873   3.920
13401TIP3    H140146   4.907   5.921   3.985
13401TIP3    H240147   4.773   5.921   3.914
13402TIP3   OH240148   3.435   3.719   3.359
13402TIP3    H140149   3.472   3.638   3.395
13402TIP3    H240150   3.435   3.780   3.432
13403TIP3   OH240151   4.090   2.933   6.607
13403TIP3    H140152   4.017   2.972   6.653
13403TIP3    H240153   4.146   3.007   6.583
13404TIP3   OH240154   1.959   3.390   6.459
13404TIP3    H140155   2.000   3.457   6.404
13404TIP3    H240156   1.889   3.354   6.405
13405TIP3   OH240157   7.325   4.572   0.628
13405TIP3    H140158   7.365   4.487   0.611
13405TIP3    H240159   7.400   4.631   0.642
13406TIP3   OH240160   0.164   2.510   6.692
13406TIP3    H140161   0.115   2.534   6.771
13406TIP3    H240162   0.256   2.516   6.719
13407TIP3   OH240163   5.768   6.009   4.167
13407TIP3    H140164   5.715   5.959   4.229
13407TIP3    H240165   5.739   6.099   4.178
13408TIP3   OH240166   2.202   5.087   2.305
13408TIP3    H140167   2.144   5.016   2.280
13408TIP3    H240168   2.155   5.167   2.278
13409TIP3   OH240169   1.814   4.400   4.475
13409TIP3    H140170   1.845   4.361   4.393
13409TIP3    H240171   1.757   4.471   4.447
13410TIP3   OH240172   4.664   3.398   0.498
13410TIP3    H140173   4.620   3.472   0.539
13410TIP3    H240174   4.757   3.421   0.502
13411TIP3   OH240175   3.224   0.631   3.164
13411TIP3    H140176   3.226   0.678   3.080
13411TIP3    H240177   3.284   0.557   3.151
13412TIP3   OH240178   4.346   2.543   3.887
13412TIP3    H140179   4.422   2.586   3.847
13412TIP3    H240180   4.286   2.615   3.907
13413TIP3   OH240181   4.061   4.571   3.423
13413TIP3    H140182   4.074   4.662   3.398
13413TIP3    H240183   4.004   4.535   3.355
13414TIP3   OH240184   3.196   5.772   2.577
13414TIP3    H140185   3.182   5.806   2.488
13414TIP3    H240186   3.152   5.687   2.576
13415TIP3   OH240187   1.858   6.350   0.808
13415TIP3    H140188   1.905   6.375   0.887
13415TIP3    H240189   1.767   6.340   0.836
13416TIP3   OH240190   0.412   6.195   0.903
13416TIP3    H140191   0.355   6.154   0.969
13416TIP3    H240192   0.500   6.170   0.930
13417TIP3   OH240193   4.574   4.145   3.757
13417TIP3    H140194   4.483   4.134   3.782
13417TIP3    H240195   4.579   4.234   3.723
13418TIP3   OH240196   7.590   0.079   1.668
13418TIP3    H140197   7.597   0.107   1.576
13418TIP3    H240198   7.516   0.129   1.702
13419TIP3   OH240199   0.799   6.279   1.267
13419TIP3    H140200   0.862   6.284   1.194
13419TIP3    H240201   0.728   6.337   1.241
13420TIP3   OH240202   0.084   3.954   0.914
13420TIP3    H140203   0.166   3.965   0.962
13420TIP3    H240204   0.111   3.944   0.823
13421TIP3   OH240205   0.919   1.842   3.427
13421TIP3    H140206   0.901   1.912   3.363
13421TIP3    H240207   0.914   1.886   3.512
13422TIP3   OH240208   5.891   6.653   6.128
13422TIP3    H140209   5.860   6.743   6.113
13422TIP3    H240210   5.987   6.661   6.128
13423TIP3   OH240211   8.217   1.321   0.574
13423TIP3    H140212   8.171   1.283   0.648
13423TIP3    H240213   8.307   1.331   0.604
13424TIP3   OH240214   1.359   1.716   2.044
13424TIP3    H140215   1.325   1.774   1.976
13424TIP3    H240216   1.452   1.738   2.050
13425TIP3   OH240217   3.472   1.592   1.927
13425TIP3    H140218   3.529   1.554   1.994
13425TIP3    H240219   3.454   1.681   1.958
13426TIP3   OH240220   6.183   0.124   4.843
13426TIP3    H140221   6.111   0.074   4.805
13426TIP3    H240222   6.240   0.058   4.883
13427TIP3   OH240223   2.552   6.569   0.006
13427TIP3    H140224   2.463   6.539   0.028
13427TIP3    H240225   2.605   6.490   0.011
13428TIP3   OH240226   1.701   2.848   3.963
13428TIP3    H140227   1.620   2.866   3.915
13428TIP3    H240228   1.703   2.752   3.971
13429TIP3   OH240229   1.191   6.498   1.321
13429TIP3    H140230   1.169   6.410   1.290
13429TIP3    H240231   1.281   6.491   1.352
13430TIP3   OH240232   3.120   6.964   0.748
13430TIP3    H140233   3.060   6.965   0.823
13430TIP3    H240234   3.066   6.933   0.676
13431TIP3   OH240235   0.923   3.397   0.279
13431TIP3    H140236   0.881   3.478   0.308
13431TIP3    H240237   0.979   3.423   0.206
13432TIP3   OH240238   8.254   7.502   3.809
13432TIP3    H140239   8.216   7.513   3.896
13432TIP3    H240240   8.339   7.463   3.825
13433TIP3   OH240241   6.967   6.170   1.492
13433TIP3    H140242   7.000   6.165   1.402
13433TIP3    H240243   7.039   6.138   1.546
13434TIP3   OH240244   4.796   7.798   6.504
13434TIP3    H140245   4.758   7.837   6.583
13434TIP3    H240246   4.811   7.706   6.527
13435TIP3   OH240247   7.262   2.865   4.823
13435TIP3    H140248   7.219   2.825   4.899
13435TIP3    H240249   7.208   2.942   4.803
13436TIP3   OH240250   5.385   3.633   3.331
13436TIP3    H140251   5.436   3.567   3.284
13436TIP3    H240252   5.382   3.707   3.271
13437TIP3   OH240253   6.858   2.493   4.886
13437TIP3    H140254   6.787   2.486   4.949
13437TIP3    H240255   6.816   2.526   4.806
13438TIP3   OH240256   1.280   1.665   1.276
13438TIP3    H140257   1.218   1.674   1.204
13438TIP3    H240258   1.321   1.580   1.263
13439TIP3   OH240259   1.219   4.104   3.158
13439TIP3    H140260   1.172   4.023   3.176
13439TIP3    H240261   1.310   4.085   3.180
13440TIP3   OH240262   1.079   5.577   3.951
13440TIP3    H140263   0.995   5.588   3.995
13440TIP3    H240264   1.083   5.484   3.928
13441TIP3   OH240265   1.000   6.916   3.904
13441TIP3    H140266   1.039   7.003   3.916
13441TIP3    H240267   0.914   6.933   3.865
13442TIP3   OH240268   3.027   2.468   3.250
13442TIP3    H140269   3.121   2.467   3.269
13442TIP3    H240270   3.016   2.402   3.182
13443TIP3   OH240271   6.266   4.293   0.208
13443TIP3    H140272   6.359   4.275   0.198
13443TIP3    H240273   6.232   4.294   0.118
13444TIP3   OH240274   3.274   1.326   3.826
13444TIP3    H140275   3.300   1.374   3.748
13444TIP3    H240276   3.314   1.239   3.816
13445TIP3   OH240277   6.312   1.652   2.052
13445TIP3    H140278   6.387   1.593   2.047
13445TIP3    H240279   6.286   1.650   2.144
13446TIP3   OH240280   2.272   3.850   2.076
13446TIP3    H140281   2.193   3.880   2.121
13446TIP3    H240282   2.283   3.759   2.105
13447TIP3   OH240283   5.289   0.739   0.420
13447TIP3    H140284   5.208   0.724   0.467
13447TIP3    H240285   5.352   0.678   0.460
13448TIP3   OH240286   6.393   2.458   4.819
13448TIP3    H140287   6.396   2.539   4.769
13448TIP3    H240288   6.401   2.389   4.753
13449TIP3   OH240289   3.649   5.197   0.624
13449TIP3    H140290   3.580   5.253   0.660
13449TIP3    H240291   3.609   5.157   0.546
13450TIP3   OH240292   1.420   6.567   2.074
13450TIP3    H140293   1.347   6.593   2.130
13450TIP3    H240294   1.416   6.471   2.072
13451TIP3   OH240295   2.351   7.043   0.250
13451TIP3    H140296   2.404   7.100   0.195
13451TIP3    H240297   2.314   7.101   0.317
13452TIP3   OH240298   3.475   4.930   1.496
13452TIP3    H140299   3.512   4.964   1.415
13452TIP3    H240300   3.551   4.917   1.553
13453TIP3   OH240301   5.604   5.383   6.727
13453TIP3    H140302   5.669   5.343   6.669
13453TIP3    H240303   5.593   5.319   6.798
13454TIP3   OH240304   3.909   0.404   4.086
13454TIP3    H140305   3.969   0.478   4.075
13454TIP3    H240306   3.825   0.444   4.108
13455TIP3   OH240307   1.208   7.453   2.096
13455TIP3    H140308   1.151   7.413   2.030
13455TIP3    H240309   1.147   7.488   2.162
13456TIP3   OH240310   6.263   6.952   2.108
13456TIP3    H140311   6.287   6.877   2.162
13456TIP3    H240312   6.291   7.028   2.158
13457TIP3   OH240313   7.512   7.506   5.633
13457TIP3    H140314   7.431   7.470   5.598
13457TIP3    H240315   7.493   7.599   5.646
13458TIP3   OH240316   3.207   1.554   2.137
13458TIP3    H140317   3.246   1.483   2.087
13458TIP3    H240318   3.242   1.543   2.225
13459TIP3   OH240319   3.621   2.833   4.879
13459TIP3    H140320   3.617   2.871   4.966
13459TIP3    H240321   3.633   2.739   4.894
13460TIP3   OH240322   7.656   7.311   4.031
13460TIP3    H140323   7.723   7.364   3.988
13460TIP3    H240324   7.621   7.255   3.961
13461TIP3   OH240325   5.780   7.042   1.106
13461TIP3    H140326   5.732   6.976   1.157
13461TIP3    H240327   5.817   7.101   1.171
13462TIP3   OH240328   5.478   4.421   1.111
13462TIP3    H140329   5.420   4.491   1.079
13462TIP3    H240330   5.430   4.382   1.184
13463TIP3   OH240331   5.201   1.306   2.926
13463TIP3    H140332   5.177   1.250   2.999
13463TIP3    H240333   5.118   1.322   2.880
13464TIP3   OH240334   5.183   4.355   5.376
13464TIP3    H140335   5.116   4.392   5.319
13464TIP3    H240336   5.134   4.300   5.437
13465TIP3   OH240337   3.918   1.023   3.335
13465TIP3    H140338   3.907   1.114   3.363
13465TIP3    H240339   3.864   0.973   3.395
13466TIP3   OH240340   6.711   6.933   1.061
13466TIP3    H140341   6.747   6.866   1.002
13466TIP3    H240342   6.784   6.994   1.074
13467TIP3   OH240343   6.109   2.598   4.786
13467TIP3    H140344   6.046   2.644   4.731
13467TIP3    H240345   6.145   2.529   4.729
13468TIP3   OH240346   6.331   4.363   4.670
13468TIP3    H140347   6.385   4.362   4.749
13468TIP3    H240348   6.379   4.419   4.609
13469TIP3   OH240349   8.084   7.622   6.374
13469TIP3    H140350   8.165   7.674   6.375
13469TIP3    H240351   8.097   7.557   6.444
13470TIP3   OH240352   4.978   7.661   1.706
13470TIP3    H140353   5.023   7.629   1.628
13470TIP3    H240354   4.937   7.744   1.678
13471TIP3   OH240355   5.739   0.133   3.007
13471TIP3    H140356   5.694   0.070   3.063
13471TIP3    H240357   5.792   0.079   2.947
13472TIP3   OH240358   2.659   3.393   2.384
13472TIP3    H140359   2.644   3.304   2.416
13472TIP3    H240360   2.619   3.449   2.450
13473TIP3   OH240361   1.729   5.270   5.925
13473TIP3    H140362   1.643   5.228   5.930
13473TIP3    H240363   1.718   5.353   5.971
13474TIP3   OH240364   0.948   5.672   3.371
13474TIP3    H140365   1.007   5.597   3.366
13474TIP3    H240366   0.883   5.656   3.302
13475TIP3   OH240367   3.135   4.517   4.280
13475TIP3    H140368   3.144   4.508   4.375
13475TIP3    H240369   3.222   4.496   4.245
13476TIP3   OH240370   7.648   4.564   2.949
13476TIP3    H140371   7.728   4.618   2.945
13476TIP3    H240372   7.632   4.537   2.859
13477TIP3   OH240373   4.967   4.180   0.366
13477TIP3    H140374   4.949   4.088   0.348
13477TIP3    H240375   5.028   4.178   0.440
13478TIP3   OH240376   7.643   4.123   6.028
13478TIP3    H140377   7.693   4.138   5.948
13478TIP3    H240378   7.557   4.096   5.998
13479TIP3   OH240379   2.758   4.674   5.008
13479TIP3    H140380   2.715   4.758   4.991
13479TIP3    H240381   2.825   4.667   4.940
13480TIP3   OH240382   1.434   5.313   1.232
13480TIP3    H140383   1.401   5.260   1.304
13480TIP3    H240384   1.489   5.379   1.274
13481TIP3   OH240385   6.132   4.521   1.166
13481TIP3    H140386   6.163   4.436   1.134
13481TIP3    H240387   6.213   4.569   1.188
13482TIP3   OH240388   8.011   3.703   0.405
13482TIP3    H140389   8.069   3.627   0.411
13482TIP3    H240390   7.923   3.665   0.397
13483TIP3   OH240391   7.551   7.546   2.148
13483TIP3    H140392   7.644   7.569   2.145
13483TIP3    H240393   7.513   7.607   2.211
13484TIP3   OH240394   1.795   2.856   1.850
13484TIP3    H140395   1.705   2.824   1.852
13484TIP3    H240396   1.827   2.835   1.762
13485TIP3   OH240397   3.451   4.704   4.446
13485TIP3    H140398   3.499   4.785   4.464
13485TIP3    H240399   3.427   4.671   4.533
13486TIP3   OH240400   3.385   1.530   4.928
13486TIP3    H140401   3.388   1.535   4.833
13486TIP3    H240402   3.293   1.513   4.949
13487TIP3   OH240403   7.865   6.347   1.752
13487TIP3    H140404   7.908   6.405   1.816
13487TIP3    H240405   7.932   6.333   1.685
13488TIP3   OH240406   7.827   1.667   1.256
13488TIP3    H140407   7.792   1.600   1.197
13488TIP3    H240408   7.770   1.743   1.244
13489TIP3   OH240409   5.727   4.852   5.097
13489TIP3    H140410   5.671   4.906   5.042
13489TIP3    H240411   5.815   4.868   5.065
13490TIP3   OH240412   1.932   5.004   3.418
13490TIP3    H140413   1.967   4.917   3.437
13490TIP3    H240414   1.870   4.990   3.346
13491TIP3   OH240415  -0.026   5.553   1.538
13491TIP3    H140416   0.032   5.573   1.612
13491TIP3    H240417   0.029   5.566   1.461
13492TIP3   OH240418   6.084   3.169   3.308
13492TIP3    H140419   6.087   3.259   3.340
13492TIP3    H240420   6.154   3.165   3.242
13493TIP3   OH240421   4.539   6.972   0.235
13493TIP3    H140422   4.557   6.882   0.208
13493TIP3    H240423   4.446   6.984   0.216
13494TIP3   OH240424   7.927   5.091   4.670
13494TIP3    H140425   8.006   5.113   4.720
13494TIP3    H240426   7.956   5.093   4.578
13495TIP3   OH240427   7.803   2.501   5.469
13495TIP3    H140428   7.771   2.574   5.523
13495TIP3    H240429   7.851   2.543   5.398
13496TIP3   OH240430   7.575   5.695   6.188
13496TIP3    H140431   7.547   5.606   6.211
13496TIP3    H240432   7.564   5.745   6.268
13497TIP3   OH240433   0.020   3.745   1.773
13497TIP3    H140434   0.059   3.825   1.809
13497TIP3    H240435   0.002   3.690   1.850
13498TIP3   OH240436   6.508   2.877   3.981
13498TIP3    H140437   6.472   2.828   3.907
13498TIP3    H240438   6.603   2.870   3.970
13499TIP3   OH240439   2.016   6.200   2.123
13499TIP3    H140440   2.012   6.107   2.103
13499TIP3    H240441   1.993   6.206   2.216
13500TIP3   OH240442   5.328   3.840   5.575
13500TIP3    H140443   5.393   3.911   5.577
13500TIP3    H240444   5.370   3.767   5.620
13501TIP3   OH240445   4.000   4.048   5.234
13501TIP3    H140446   3.926   4.102   5.205
13501TIP3    H240447   4.012   4.070   5.326
13502TIP3   OH240448   3.476   5.080   5.336
13502TIP3    H140449   3.442   5.151   5.282
13502TIP3    H240450   3.464   5.001   5.283
13503TIP3   OH240451   6.098   6.321   2.011
13503TIP3    H140452   6.077   6.365   1.929
13503TIP3    H240453   6.193   6.309   2.008
13504TIP3   OH240454   1.294   0.538   6.358
13504TIP3    H140455   1.329   0.605   6.417
13504TIP3    H240456   1.292   0.581   6.272
13505TIP3   OH240457   1.074   3.614   1.799
13505TIP3    H140458   1.143   3.599   1.863
13505TIP3    H240459   1.110   3.677   1.737
13506TIP3   OH240460   6.671   1.794   1.879
13506TIP3    H140461   6.752   1.838   1.851
13506TIP3    H240462   6.606   1.864   1.883
13507TIP3   OH240463   7.201   5.620   4.095
13507TIP3    H140464   7.188   5.712   4.073
13507TIP3    H240465   7.291   5.616   4.127
13508TIP3   OH240466   8.110   3.758   3.834
13508TIP3    H140467   8.174   3.798   3.774
13508TIP3    H240468   8.157   3.685   3.874
13509TIP3   OH240469   1.310   0.969   3.877
13509TIP3    H140470   1.381   0.953   3.939
13509TIP3    H240471   1.293   0.884   3.837
13510TIP3   OH240472   4.676   5.945   0.599
13510TIP3    H140473   4.603   5.932   0.660
13510TIP3    H240474   4.714   6.029   0.625
13511TIP3   OH240475   5.165   0.057   5.868
13511TIP3    H140476   5.248   0.056   5.821
13511TIP3    H240477   5.184   0.011   5.950
13512TIP3   OH240478   2.659   5.158   5.212
13512TIP3    H140479   2.672   5.252   5.199
13512TIP3    H240480   2.700   5.117   5.136
13513TIP3   OH240481   2.453   1.840   4.403
13513TIP3    H140482   2.376   1.826   4.458
13513TIP3    H240483   2.420   1.893   4.330
13514TIP3   OH240484   0.249   7.368   2.300
13514TIP3    H140485   0.239   7.397   2.209
13514TIP3    H240486   0.206   7.435   2.352
13515TIP3   OH240487   4.449   6.152   4.542
13515TIP3    H140488   4.487   6.069   4.572
13515TIP3    H240489   4.477   6.159   4.451
13516TIP3   OH240490   2.547   1.595   0.306
13516TIP3    H140491   2.630   1.596   0.352
13516TIP3    H240492   2.565   1.551   0.223
13517TIP3   OH240493   7.380   4.148   3.304
13517TIP3    H140494   7.443   4.092   3.349
13517TIP3    H240495   7.413   4.154   3.214
13518TIP3   OH240496   5.733   5.472   0.382
13518TIP3    H140497   5.789   5.411   0.334
13518TIP3    H240498   5.713   5.541   0.319
13519TIP3   OH240499   2.834   2.437   5.163
13519TIP3    H140500   2.740   2.446   5.180
13519TIP3    H240501   2.852   2.498   5.092
13520TIP3   OH240502   7.410   0.369   0.232
13520TIP3    H140503   7.421   0.393   0.140
13520TIP3    H240504   7.406   0.273   0.231
13521TIP3   OH240505   0.776   5.369   0.670
13521TIP3    H140506   0.847   5.371   0.734
13521TIP3    H240507   0.821   5.358   0.586
13522TIP3   OH240508   4.673   2.121   6.505
13522TIP3    H140509   4.758   2.133   6.464
13522TIP3    H240510   4.693   2.094   6.594
13523TIP3   OH240511   6.187   7.004   4.935
13523TIP3    H140512   6.185   7.100   4.938
13523TIP3    H240513   6.256   6.983   4.872
13524TIP3   OH240514   6.020   6.179   4.087
13524TIP3    H140515   6.014   6.110   4.153
13524TIP3    H240516   5.933   6.218   4.086
13525TIP3   OH240517   1.927   2.137   2.469
13525TIP3    H140518   1.888   2.082   2.400
13525TIP3    H240519   1.854   2.155   2.529
13526TIP3   OH240520   4.873   2.702   2.995
13526TIP3    H140521   4.859   2.767   2.925
13526TIP3    H240522   4.916   2.751   3.065
13527TIP3   OH240523   2.739   0.734   4.392
13527TIP3    H140524   2.647   0.722   4.369
13527TIP3    H240525   2.736   0.776   4.478
13528TIP3   OH240526   6.251   5.595   5.837
13528TIP3    H140527   6.270   5.613   5.929
13528TIP3    H240528   6.332   5.618   5.791
13529TIP3   OH240529   5.285   7.721   0.228
13529TIP3    H140530   5.193   7.721   0.200
13529TIP3    H240531   5.334   7.692   0.151
13530TIP3   OH240532   7.366   5.622   5.045
13530TIP3    H140533   7.422   5.566   4.991
13530TIP3    H240534   7.280   5.618   5.002
13531TIP3   OH240535   4.707   6.260   5.417
13531TIP3    H140536   4.704   6.166   5.403
13531TIP3    H240537   4.697   6.298   5.329
13532TIP3   OH240538   7.855   0.551   4.573
13532TIP3    H140539   7.849   0.643   4.547
13532TIP3    H240540   7.945   0.526   4.551
13533TIP3   OH240541   7.054   6.156   2.415
13533TIP3    H140542   7.003   6.141   2.335
13533TIP3    H240543   6.988   6.160   2.485
13534TIP3   OH240544   5.012   6.589   2.865
13534TIP3    H140545   4.921   6.560   2.861
13534TIP3    H240546   5.062   6.519   2.823
13535TIP3   OH240547   1.551   0.966   4.023
13535TIP3    H140548   1.549   0.990   4.115
13535TIP3    H240549   1.607   0.889   4.019
13536TIP3   OH240550   1.017   1.429   0.806
13536TIP3    H140551   0.930   1.437   0.767
13536TIP3    H240552   1.067   1.501   0.767
13537TIP3   OH240553   4.892   5.684   5.655
13537TIP3    H140554   4.870   5.595   5.627
13537TIP3    H240555   4.985   5.679   5.679
13538TIP3   OH240556   4.092   5.543   4.743
13538TIP3    H140557   4.075   5.597   4.666
13538TIP3    H240558   4.129   5.462   4.709
13539TIP3   OH240559   0.984   3.184   3.737
13539TIP3    H140560   1.024   3.271   3.741
13539TIP3    H240561   1.052   3.127   3.700
13540TIP3   OH240562   1.734   6.939   3.934
13540TIP3    H140563   1.805   6.890   3.891
13540TIP3    H240564   1.669   6.951   3.865
13541TIP3   OH240565   1.412   3.107   2.801
13541TIP3    H140566   1.378   3.019   2.786
13541TIP3    H240567   1.506   3.100   2.784
13542TIP3   OH240568   2.404   6.972   1.422
13542TIP3    H140569   2.436   7.030   1.352
13542TIP3    H240570   2.319   6.943   1.391
13543TIP3   OH240571   2.169   2.450   5.546
13543TIP3    H140572   2.134   2.387   5.483
13543TIP3    H240573   2.242   2.492   5.500
13544TIP3   OH240574   5.812   0.211   0.878
13544TIP3    H140575   5.861   0.209   0.796
13544TIP3    H240576   5.831   0.127   0.920
13545TIP3   OH240577   0.096   0.012   4.943
13545TIP3    H140578   0.103  -0.035   4.861
13545TIP3    H240579   0.175   0.065   4.949
13546TIP3   OH240580   7.457   0.295   1.117
13546TIP3    H140581   7.399   0.225   1.148
13546TIP3    H240582   7.513   0.315   1.192
13547TIP3   OH240583   4.691   2.343   0.200
13547TIP3    H140584   4.627   2.319   0.134
13547TIP3    H240585   4.749   2.405   0.156
13548TIP3   OH240586   1.138   3.144   6.665
13548TIP3    H140587   1.155   3.074   6.601
13548TIP3    H240588   1.212   3.203   6.656
13549TIP3   OH240589   3.570   1.759   2.381
13549TIP3    H140590   3.578   1.810   2.301
13549TIP3    H240591   3.480   1.727   2.381
13550TIP3   OH240592   4.093   2.382   4.613
13550TIP3    H140593   4.135   2.345   4.690
13550TIP3    H240594   4.048   2.309   4.572
13551TIP3   OH240595   3.503   3.943   2.779
13551TIP3    H140596   3.528   3.991   2.701
13551TIP3    H240597   3.409   3.926   2.768
13552TIP3   OH240598   2.083   1.475   6.756
13552TIP3    H140599   2.039   1.501   6.674
13552TIP3    H240600   2.034   1.398   6.785
13553TIP3   OH240601   6.985   2.242   3.977
13553TIP3    H140602   7.037   2.181   4.029
13553TIP3    H240603   7.049   2.305   3.944
13554TIP3   OH240604   6.313   5.476   3.899
13554TIP3    H140605   6.244   5.498   3.835
13554TIP3    H240606   6.386   5.444   3.845
13555TIP3   OH240607   1.314   5.510   0.796
13555TIP3    H140608   1.353   5.578   0.742
13555TIP3    H240609   1.338   5.533   0.886
13556TIP3   OH240610   2.449   3.765   0.922
13556TIP3    H140611   2.471   3.769   1.015
13556TIP3    H240612   2.403   3.682   0.911
13557TIP3   OH240613   0.272   0.450   5.663
13557TIP3    H140614   0.198   0.504   5.690
13557TIP3    H240615   0.343   0.513   5.648
13558TIP3   OH240616   3.618   7.578   1.513
13558TIP3    H140617   3.671   7.587   1.593
13558TIP3    H240618   3.606   7.484   1.503
13559TIP3   OH240619   6.207   6.570   6.119
13559TIP3    H140620   6.281   6.509   6.114
13559TIP3    H240621   6.150   6.533   6.186
13560TIP3   OH240622   3.961   2.173   4.484
13560TIP3    H140623   4.023   2.125   4.428
13560TIP3    H240624   3.941   2.112   4.555
13561TIP3   OH240625   0.791   5.901   6.121
13561TIP3    H140626   0.731   5.958   6.170
13561TIP3    H240627   0.862   5.884   6.182
13562TIP3   OH240628   4.301   5.853   4.159
13562TIP3    H140629   4.347   5.784   4.111
13562TIP3    H240630   4.286   5.922   4.095
13563TIP3   OH240631   8.075   7.480   4.612
13563TIP3    H140632   7.991   7.522   4.631
13563TIP3    H240633   8.064   7.444   4.524
13564TIP3   OH240634   5.942   4.429   0.591
13564TIP3    H140635   5.933   4.510   0.540
13564TIP3    H240636   6.022   4.389   0.557
13565TIP3   OH240637   5.022   0.209   0.981
13565TIP3    H140638   5.099   0.236   0.930
13565TIP3    H240639   5.052   0.211   1.072
13566TIP3   OH240640   0.479   0.156   6.610
13566TIP3    H140641   0.550   0.132   6.550
13566TIP3    H240642   0.467   0.250   6.597
13567TIP3   OH240643   2.881   4.791   5.583
13567TIP3    H140644   2.842   4.704   5.569
13567TIP3    H240645   2.894   4.825   5.495
13568TIP3   OH240646   3.950   6.589   6.700
13568TIP3    H140647   3.903   6.659   6.654
13568TIP3    H240648   3.881   6.542   6.746
13569TIP3   OH240649   0.400   4.528   5.968
13569TIP3    H140650   0.328   4.489   5.918
13569TIP3    H240651   0.372   4.618   5.985
13570TIP3   OH240652   8.141   6.787   0.298
13570TIP3    H140653   8.132   6.698   0.332
13570TIP3    H240654   8.229   6.790   0.260
13571TIP3   OH240655   3.274   1.250   1.268
13571TIP3    H140656   3.305   1.194   1.339
13571TIP3    H240657   3.322   1.332   1.278
13572TIP3   OH240658   1.394   7.151   6.377
13572TIP3    H140659   1.421   7.064   6.348
13572TIP3    H240660   1.319   7.135   6.434
13573TIP3   OH240661   7.212   4.929   6.342
13573TIP3    H140662   7.137   4.893   6.295
13573TIP3    H240663   7.177   4.959   6.425
13574TIP3   OH240664   4.775   4.407   4.436
13574TIP3    H140665   4.832   4.331   4.427
13574TIP3    H240666   4.781   4.452   4.352
13575TIP3   OH240667   6.177   0.002   0.760
13575TIP3    H140668   6.250   0.064   0.753
13575TIP3    H240669   6.218  -0.084   0.746
13576TIP3   OH240670   3.768   5.053   0.398
13576TIP3    H140671   3.687   5.105   0.392
13576TIP3    H240672   3.741   4.964   0.374
13577TIP3   OH240673   5.400   1.693   2.544
13577TIP3    H140674   5.482   1.722   2.505
13577TIP3    H240675   5.392   1.745   2.624
13578TIP3   OH240676   0.159   2.946   0.030
13578TIP3    H140677   0.188   3.033   0.003
13578TIP3    H240678   0.203   2.930   0.113
13579TIP3   OH240679   0.448   1.819   5.630
13579TIP3    H140680   0.425   1.784   5.544
13579TIP3    H240681   0.542   1.834   5.625
13580TIP3   OH240682   4.452   6.572   5.355
13580TIP3    H140683   4.474   6.479   5.346
13580TIP3    H240684   4.388   6.575   5.425
13581TIP3   OH240685   3.385   7.317   4.186
13581TIP3    H140686   3.416   7.267   4.261
13581TIP3    H240687   3.312   7.265   4.152
13582TIP3   OH240688   3.750   3.760   1.603
13582TIP3    H140689   3.728   3.756   1.510
13582TIP3    H240690   3.703   3.686   1.642
13583TIP3   OH240691   0.556   7.146   3.388
13583TIP3    H140692   0.495   7.198   3.441
13583TIP3    H240693   0.541   7.176   3.299
13584TIP3   OH240694   2.028   2.706   2.465
13584TIP3    H140695   1.986   2.649   2.402
13584TIP3    H240696   2.021   2.794   2.427
13585TIP3   OH240697   7.591   6.614   1.073
13585TIP3    H140698   7.629   6.680   1.015
13585TIP3    H240699   7.608   6.531   1.028
13586TIP3   OH240700   4.863   2.546   5.189
13586TIP3    H140701   4.856   2.465   5.139
13586TIP3    H240702   4.939   2.590   5.152
13587TIP3   OH240703   3.650   3.195   4.966
13587TIP3    H140704   3.718   3.128   4.974
13587TIP3    H240705   3.691   3.275   5.000
13588TIP3   OH240706   5.137   4.525   4.975
13588TIP3    H140707   5.109   4.525   4.884
13588TIP3    H240708   5.230   4.544   4.972
13589TIP3   OH240709   4.267   4.116   4.852
13589TIP3    H140710   4.328   4.103   4.780
13589TIP3    H240711   4.251   4.211   4.853
13590TIP3   OH240712   2.434   2.741   6.175
13590TIP3    H140713   2.519   2.714   6.140
13590TIP3    H240714   2.432   2.705   6.263
13591TIP3   OH240715   1.662   1.132   3.373
13591TIP3    H140716   1.635   1.206   3.427
13591TIP3    H240717   1.746   1.158   3.337
13592TIP3   OH240718   2.379   5.336   5.318
13592TIP3    H140719   2.427   5.258   5.291
13592TIP3    H240720   2.360   5.322   5.411
13593TIP3   OH240721   4.598   6.134   3.382
13593TIP3    H140722   4.598   6.225   3.411
13593TIP3    H240723   4.643   6.086   3.452
13594TIP3   OH240724   1.081   4.424   2.827
13594TIP3    H140725   1.029   4.358   2.872
13594TIP3    H240726   1.051   4.507   2.864
13595TIP3   OH240727   7.469   5.412   4.885
13595TIP3    H140728   7.528   5.338   4.874
13595TIP3    H240729   7.415   5.411   4.806
13596TIP3   OH240730   7.162   2.032   0.923
13596TIP3    H140731   7.222   1.995   0.858
13596TIP3    H240732   7.208   2.025   1.006
13597TIP3   OH240733   7.668   5.283   6.355
13597TIP3    H140734   7.648   5.190   6.354
13597TIP3    H240735   7.731   5.293   6.427
13598TIP3   OH240736   5.361   4.752   6.241
13598TIP3    H140737   5.334   4.708   6.322
13598TIP3    H240738   5.339   4.689   6.172
13599TIP3   OH240739   7.738   1.867   0.791
13599TIP3    H140740   7.770   1.781   0.819
13599TIP3    H240741   7.794   1.891   0.717
13600TIP3   OH240742   2.569   4.032   6.019
13600TIP3    H140743   2.646   3.981   6.044
13600TIP3    H240744   2.597   4.123   6.022
13601TIP3   OH240745   0.727   6.188   0.719
13601TIP3    H140746   0.676   6.260   0.680
13601TIP3    H240747   0.786   6.160   0.650
13602TIP3   OH240748   7.245   5.335   2.687
13602TIP3    H140749   7.175   5.335   2.622
13602TIP3    H240750   7.225   5.412   2.742
13603TIP3   OH240751   4.461   6.778   0.864
13603TIP3    H140752   4.553   6.753   0.850
13603TIP3    H240753   4.424   6.785   0.776
13604TIP3   OH240754   1.414   3.118   6.122
13604TIP3    H140755   1.358   3.141   6.047
13604TIP3    H240756   1.435   3.202   6.163
13605TIP3   OH240757   4.916   5.504   0.666
13605TIP3    H140758   4.963   5.431   0.706
13605TIP3    H240759   4.831   5.504   0.710
13606TIP3   OH240760   1.720   2.658   6.601
13606TIP3    H140761   1.770   2.582   6.632
13606TIP3    H240762   1.751   2.731   6.654
13607TIP3   OH240763   1.087   4.940   4.913
13607TIP3    H140764   1.155   4.886   4.954
13607TIP3    H240765   1.059   5.000   4.982
13608TIP3   OH240766   1.058   1.295   1.668
13608TIP3    H140767   1.133   1.353   1.679
13608TIP3    H240768   1.017   1.323   1.587
13609TIP3   OH240769   7.883   4.147   3.978
13609TIP3    H140770   7.954   4.100   4.022
13609TIP3    H240771   7.873   4.102   3.894
13610TIP3   OH240772   7.929   0.914   2.967
13610TIP3    H140773   7.882   0.965   2.901
13610TIP3    H240774   8.019   0.911   2.935
13611TIP3   OH240775   0.470   5.912   5.904
13611TIP3    H140776   0.482   5.851   5.976
13611TIP3    H240777   0.378   5.937   5.908
13612TIP3   OH240778   0.960   2.279   6.239
13612TIP3    H140779   1.034   2.325   6.277
13612TIP3    H240780   0.931   2.219   6.307
13613TIP3   OH240781   6.517   2.077   1.448
13613TIP3    H140782   6.587   2.099   1.387
13613TIP3    H240783   6.523   1.982   1.459
13614TIP3   OH240784   1.286   0.379   2.115
13614TIP3    H140785   1.316   0.468   2.095
13614TIP3    H240786   1.240   0.388   2.199
13615TIP3   OH240787   4.104   7.393   2.699
13615TIP3    H140788   4.061   7.316   2.736
13615TIP3    H240789   4.120   7.450   2.775
13616TIP3   OH240790   3.348   3.422   5.544
13616TIP3    H140791   3.291   3.374   5.605
13616TIP3    H240792   3.418   3.457   5.599
13617TIP3   OH240793   5.372   0.317   4.883
13617TIP3    H140794   5.408   0.228   4.873
13617TIP3    H240795   5.424   0.356   4.953
13618TIP3   OH240796   1.359   3.828   0.223
13618TIP3    H140797   1.264   3.826   0.231
13618TIP3    H240798   1.382   3.740   0.191
13619TIP3   OH240799   7.291   2.289   6.685
13619TIP3    H140800   7.285   2.194   6.698
13619TIP3    H240801   7.204   2.314   6.653
13620TIP3   OH240802   1.780   1.355   0.814
13620TIP3    H140803   1.751   1.412   0.743
13620TIP3    H240804   1.790   1.414   0.889
13621TIP3   OH240805   7.412   4.182   4.269
13621TIP3    H140806   7.475   4.203   4.200
13621TIP3    H240807   7.331   4.161   4.222
13622TIP3   OH240808   1.782   4.542   5.589
13622TIP3    H140809   1.721   4.475   5.559
13622TIP3    H240810   1.780   4.609   5.521
13623TIP3   OH240811   0.583   2.253   1.521
13623TIP3    H140812   0.567   2.314   1.449
13623TIP3    H240813   0.517   2.185   1.511
13624TIP3   OH240814   4.683   3.326   4.178
13624TIP3    H140815   4.657   3.308   4.268
13624TIP3    H240816   4.779   3.326   4.180
13625TIP3   OH240817   3.618   6.187   5.295
13625TIP3    H140818   3.653   6.269   5.260
13625TIP3    H240819   3.530   6.180   5.256
13626TIP3   OH240820   3.494   5.378   2.165
13626TIP3    H140821   3.532   5.465   2.176
13626TIP3    H240822   3.444   5.363   2.245
13627TIP3   OH240823   5.230   7.334   3.983
13627TIP3    H140824   5.199   7.368   4.067
13627TIP3    H240825   5.320   7.367   3.976
13628TIP3   OH240826   5.504   3.291   6.075
13628TIP3    H140827   5.567   3.302   6.146
13628TIP3    H240828   5.557   3.270   5.998
13629TIP3   OH240829   6.067   7.394   2.521
13629TIP3    H140830   6.147   7.403   2.469
13629TIP3    H240831   6.099   7.372   2.609
13630TIP3   OH240832   4.235   2.160   6.389
13630TIP3    H140833   4.176   2.201   6.452
13630TIP3    H240834   4.291   2.232   6.359
13631TIP3   OH240835   4.539   2.577   4.919
13631TIP3    H140836   4.471   2.572   4.852
13631TIP3    H240837   4.618   2.600   4.870
13632TIP3   OH240838   5.582   0.954   4.812
13632TIP3    H140839   5.644   0.973   4.741
13632TIP3    H240840   5.609   0.868   4.845
13633TIP3   OH240841   1.561   1.133   1.707
13633TIP3    H140842   1.640   1.110   1.757
13633TIP3    H240843   1.518   1.049   1.690
13634TIP3   OH240844   7.771   6.061   5.329
13634TIP3    H140845   7.788   6.053   5.423
13634TIP3    H240846   7.828   6.132   5.300
13635TIP3   OH240847   1.532   3.602   3.533
13635TIP3    H140848   1.615   3.574   3.570
13635TIP3    H240849   1.537   3.698   3.533
13636TIP3   OH240850   3.974   4.360   1.992
13636TIP3    H140851   3.894   4.390   2.035
13636TIP3    H240852   3.949   4.278   1.949
13637TIP3   OH240853   6.006   1.686   0.516
13637TIP3    H140854   5.965   1.629   0.451
13637TIP3    H240855   5.946   1.684   0.591
13638TIP3   OH240856   3.739   1.476   3.784
13638TIP3    H140857   3.767   1.385   3.795
13638TIP3    H240858   3.769   1.519   3.864
13639TIP3   OH240859   8.145   5.635   4.722
13639TIP3    H140860   8.068   5.662   4.672
13639TIP3    H240861   8.110   5.607   4.807
13640TIP3   OH240862   2.391   0.868   3.755
13640TIP3    H140863   2.376   0.959   3.729
13640TIP3    H240864   2.423   0.826   3.675
13641TIP3   OH240865   1.970   4.406   4.207
13641TIP3    H140866   1.941   4.471   4.144
13641TIP3    H240867   1.918   4.328   4.187
13642TIP3   OH240868   1.020   0.656   0.618
13642TIP3    H140869   1.035   0.748   0.641
13642TIP3    H240870   1.031   0.653   0.523
13643TIP3   OH240871   3.029   3.379   2.260
13643TIP3    H140872   3.109   3.357   2.307
13643TIP3    H240873   2.996   3.458   2.304
13644TIP3   OH240874   1.331   7.710   0.675
13644TIP3    H140875   1.331   7.749   0.762
13644TIP3    H240876   1.385   7.768   0.621
13645TIP3   OH240877   6.660   6.781   5.277
13645TIP3    H140878   6.614   6.754   5.357
13645TIP3    H240879   6.653   6.877   5.277
13646TIP3   OH240880   4.645   6.074   6.022
13646TIP3    H140881   4.713   6.088   5.957
13646TIP3    H240882   4.652   6.150   6.081
13647TIP3   OH240883   3.442   4.091   4.779
13647TIP3    H140884   3.463   4.182   4.799
13647TIP3    H240885   3.523   4.043   4.800
13648TIP3   OH240886   5.811   1.796   5.742
13648TIP3    H140887   5.866   1.846   5.802
13648TIP3    H240888   5.721   1.817   5.769
13649TIP3   OH240889   4.178   7.292   1.660
13649TIP3    H140890   4.248   7.227   1.661
13649TIP3    H240891   4.218   7.371   1.695
13650TIP3   OH240892   3.349   6.721   2.913
13650TIP3    H140893   3.385   6.687   2.831
13650TIP3    H240894   3.359   6.816   2.906
13651TIP3   OH240895   4.082   3.665   4.425
13651TIP3    H140896   4.108   3.748   4.466
13651TIP3    H240897   4.147   3.650   4.357
13652TIP3   OH240898   4.405   0.753   0.550
13652TIP3    H140899   4.312   0.759   0.570
13652TIP3    H240900   4.416   0.665   0.512
13653TIP3   OH240901   0.990   6.412  -0.002
13653TIP3    H140902   0.988   6.488   0.055
13653TIP3    H240903   0.903   6.410  -0.042
13654TIP3   OH240904   6.756   6.806   2.059
13654TIP3    H140905   6.673   6.758   2.062
13654TIP3    H240906   6.769   6.827   1.967
13655TIP3   OH240907   6.583   3.650   1.231
13655TIP3    H140908   6.592   3.627   1.323
13655TIP3    H240909   6.672   3.669   1.201
13656TIP3   OH240910   2.652   0.177   2.776
13656TIP3    H140911   2.602   0.167   2.694
13656TIP3    H240912   2.644   0.092   2.818
13657TIP3   OH240913   2.401   3.190   5.913
13657TIP3    H140914   2.322   3.169   5.961
13657TIP3    H240915   2.471   3.143   5.959
13658TIP3   OH240916   1.030   6.845   1.512
13658TIP3    H140917   0.999   6.934   1.493
13658TIP3    H240918   1.064   6.814   1.428
13659TIP3   OH240919   7.057   7.018   4.122
13659TIP3    H140920   7.008   6.968   4.188
13659TIP3    H240921   7.040   7.110   4.144
13660TIP3   OH240922   8.026   3.109   1.381
13660TIP3    H140923   8.101   3.162   1.355
13660TIP3    H240924   8.049   3.074   1.467
13661TIP3   OH240925   1.446   1.394   1.743
13661TIP3    H140926   1.464   1.303   1.717
13661TIP3    H240927   1.516   1.415   1.805
13662TIP3   OH240928   5.884   1.115   4.597
13662TIP3    H140929   5.884   1.046   4.664
13662TIP3    H240930   5.974   1.147   4.596
13663TIP3   OH240931   5.789   5.331   4.219
13663TIP3    H140932   5.840   5.250   4.227
13663TIP3    H240933   5.818   5.384   4.294
13664TIP3   OH240934   3.122   0.602   2.421
13664TIP3    H140935   3.169   0.519   2.416
13664TIP3    H240936   3.049   0.593   2.360
13665TIP3   OH240937   1.339   3.650   4.633
13665TIP3    H140938   1.316   3.743   4.629
13665TIP3    H240939   1.303   3.613   4.553
13666TIP3   OH240940   2.480   4.630   1.938
13666TIP3    H140941   2.508   4.674   2.018
13666TIP3    H240942   2.422   4.560   1.967
13667TIP3   OH240943   4.556   0.586   6.684
13667TIP3    H140944   4.513   0.518   6.737
13667TIP3    H240945   4.567   0.659   6.745
13668TIP3   OH240946   7.927   3.392   3.898
13668TIP3    H140947   8.009   3.342   3.904
13668TIP3    H240948   7.886   3.363   3.817
13669TIP3   OH240949   1.316   6.068   4.747
13669TIP3    H140950   1.309   6.117   4.829
13669TIP3    H240951   1.339   5.979   4.773
13670TIP3   OH240952   7.651   0.721   1.344
13670TIP3    H140953   7.642   0.760   1.431
13670TIP3    H240954   7.623   0.791   1.284
13671TIP3   OH240955   1.953   5.134   4.812
13671TIP3    H140956   1.911   5.181   4.739
13671TIP3    H240957   1.958   5.199   4.882
13672TIP3   OH240958   1.480   4.051   1.751
13672TIP3    H140959   1.575   4.042   1.758
13672TIP3    H240960   1.454   3.983   1.689
13673TIP3   OH240961   0.297   6.675   3.318
13673TIP3    H140962   0.348   6.737   3.370
13673TIP3    H240963   0.345   6.593   3.323
13674TIP3   OH240964   0.191   3.735   1.524
13674TIP3    H140965   0.157   3.696   1.443
13674TIP3    H240966   0.119   3.726   1.587
13675TIP3   OH240967   0.990   7.013   1.840
13675TIP3    H140968   1.064   7.058   1.799
13675TIP3    H240969   0.915   7.037   1.786
13676TIP3   OH240970   2.051   7.554   0.029
13676TIP3    H140971   1.965   7.595   0.042
13676TIP3    H240972   2.045   7.515  -0.058
13677TIP3   OH240973   6.520   2.037   2.795
13677TIP3    H140974   6.489   1.947   2.792
13677TIP3    H240975   6.492   2.069   2.881
13678TIP3   OH240976   0.110   3.918   6.274
13678TIP3    H140977   0.186   3.880   6.317
13678TIP3    H240978   0.123   3.902   6.181
13679TIP3   OH240979   6.685   0.095   5.730
13679TIP3    H140980   6.771   0.122   5.763
13679TIP3    H240981   6.699   0.082   5.636
13680TIP3   OH240982   1.408   4.835   5.428
13680TIP3    H140983   1.439   4.898   5.363
13680TIP3    H240984   1.336   4.881   5.473
13681TIP3   OH240985   3.750   7.419   0.938
13681TIP3    H140986   3.764   7.332   0.975
13681TIP3    H240987   3.767   7.408   0.844
13682TIP3   OH240988   5.363   7.213   5.663
13682TIP3    H140989   5.423   7.232   5.736
13682TIP3    H240990   5.283   7.181   5.705
13683TIP3   OH240991   4.298   6.490   5.582
13683TIP3    H140992   4.328   6.411   5.537
13683TIP3    H240993   4.323   6.476   5.673
13684TIP3   OH240994   6.906   0.455   2.899
13684TIP3    H140995   6.910   0.415   2.812
13684TIP3    H240996   6.862   0.539   2.885
13685TIP3   OH240997   3.941   2.722   0.635
13685TIP3    H140998   3.999   2.778   0.583
13685TIP3    H240999   3.952   2.635   0.597
13686TIP3   OH241000   2.897   3.290   2.874
13686TIP3    H141001   2.975   3.233   2.874
13686TIP3    H241002   2.823   3.229   2.867
13687TIP3   OH241003   4.779   4.315   5.162
13687TIP3    H141004   4.737   4.246   5.213
13687TIP3    H241005   4.741   4.309   5.075
13688TIP3   OH241006   0.225   7.471   3.859
13688TIP3    H141007   0.317   7.448   3.870
13688TIP3    H241008   0.221   7.563   3.885
13689TIP3   OH241009   0.980   2.639   3.857
13689TIP3    H141010   1.036   2.580   3.806
13689TIP3    H241011   1.040   2.679   3.920
13690TIP3   OH241012   7.212   2.832   3.361
13690TIP3    H141013   7.269   2.909   3.364
13690TIP3    H241014   7.160   2.843   3.281
13691TIP3   OH241015   4.465   2.133   4.025
13691TIP3    H141016   4.506   2.089   4.098
13691TIP3    H241017   4.396   2.187   4.064
13692TIP3   OH241018   6.181   2.208   4.273
13692TIP3    H141019   6.209   2.154   4.347
13692TIP3    H241020   6.258   2.260   4.251
13693TIP3   OH241021   4.712   3.745   4.682
13693TIP3    H141022   4.697   3.651   4.691
13693TIP3    H241023   4.807   3.756   4.687
13694TIP3   OH241024   4.211   7.382   5.891
13694TIP3    H141025   4.161   7.301   5.898
13694TIP3    H241026   4.155   7.441   5.842
13695TIP3   OH241027   7.496   6.707   1.328
13695TIP3    H141028   7.582   6.701   1.370
13695TIP3    H241029   7.509   6.666   1.242
13696TIP3   OH241030   8.254   2.365   5.264
13696TIP3    H141031   8.237   2.448   5.219
13696TIP3    H241032   8.201   2.370   5.344
13697TIP3   OH241033   6.808   6.659   6.001
13697TIP3    H141034   6.806   6.589   6.065
13697TIP3    H241035   6.901   6.681   5.991
13698TIP3   OH241036   1.387   3.455   5.297
13698TIP3    H141037   1.308   3.444   5.349
13698TIP3    H241038   1.357   3.488   5.213
13699TIP3   OH241039   4.879   0.809  -0.020
13699TIP3    H141040   4.944   0.800   0.050
13699TIP3    H241041   4.800   0.768   0.015
13700TIP3   OH241042   4.240   3.660   4.808
13700TIP3    H141043   4.245   3.643   4.714
13700TIP3    H241044   4.148   3.680   4.824
13701TIP3   OH241045   7.375   4.995   4.967
13701TIP3    H141046   7.468   5.015   4.950
13701TIP3    H241047   7.327   5.060   4.916
13702TIP3   OH241048   7.730   4.478   1.888
13702TIP3    H141049   7.720   4.569   1.916
13702TIP3    H241050   7.756   4.483   1.796
13703TIP3   OH241051   5.394   1.974   1.786
13703TIP3    H141052   5.337   1.952   1.860
13703TIP3    H241053   5.469   2.018   1.826
13704TIP3   OH241054   0.587   1.659   0.072
13704TIP3    H141055   0.661   1.672   0.013
13704TIP3    H241056   0.623   1.610   0.146
13705TIP3   OH241057   3.364   1.341   2.089
13705TIP3    H141058   3.452   1.356   2.123
13705TIP3    H241059   3.318   1.297   2.160
13706TIP3   OH241060   7.683   4.802   2.741
13706TIP3    H141061   7.627   4.832   2.812
13706TIP3    H241062   7.752   4.753   2.785
13707TIP3   OH241063   4.466   5.850   4.587
13707TIP3    H141064   4.376   5.850   4.553
13707TIP3    H241065   4.459   5.889   4.674
13708TIP3   OH241066   7.720   6.866   2.786
13708TIP3    H141067   7.769   6.784   2.783
13708TIP3    H241068   7.648   6.854   2.724
13709TIP3   OH241069   2.464   7.489   0.054
13709TIP3    H141070   2.398   7.505   0.121
13709TIP3    H241071   2.547   7.488   0.102
13710TIP3   OH241072   4.849   5.382   1.969
13710TIP3    H141073   4.900   5.456   1.936
13710TIP3    H241074   4.768   5.422   2.002
13711TIP3   OH241075   2.405   6.781   1.146
13711TIP3    H141076   2.420   6.875   1.141
13711TIP3    H241077   2.456   6.744   1.074
13712TIP3   OH241078   4.479   7.202   3.626
13712TIP3    H141079   4.479   7.280   3.680
13712TIP3    H241080   4.571   7.185   3.607
13713TIP3   OH241081   4.543   6.888   1.431
13713TIP3    H141082   4.529   6.982   1.423
13713TIP3    H241083   4.636   6.879   1.452
13714TIP3   OH241084   6.920   4.046   5.210
13714TIP3    H141085   6.877   4.108   5.151
13714TIP3    H241086   7.001   4.090   5.236
13715TIP3   OH241087   6.020   0.417   0.406
13715TIP3    H141088   6.022   0.431   0.311
13715TIP3    H241089   6.022   0.322   0.416
13716TIP3   OH241090   2.610   7.244   4.311
13716TIP3    H141091   2.537   7.246   4.250
13716TIP3    H241092   2.595   7.318   4.369
13717TIP3   OH241093   2.757   4.501   0.418
13717TIP3    H141094   2.829   4.564   0.425
13717TIP3    H241095   2.798   4.424   0.378
13718TIP3   OH241096   5.261   2.492   2.936
13718TIP3    H141097   5.330   2.427   2.951
13718TIP3    H241098   5.197   2.474   3.005
13719TIP3   OH241099   1.426   0.591   1.914
13719TIP3    H141100   1.397   0.570   1.825
13719TIP3    H241101   1.521   0.593   1.908
13720TIP3   OH241102   1.530   0.094   5.253
13720TIP3    H141103   1.571   0.075   5.169
13720TIP3    H241104   1.436   0.095   5.235
13721TIP3   OH241105   0.327   3.277   5.745
13721TIP3    H141106   0.290   3.328   5.817
13721TIP3    H241107   0.338   3.189   5.781
13722TIP3   OH241108   2.949   5.957   1.380
13722TIP3    H141109   3.015   6.019   1.408
13722TIP3    H241110   2.884   6.010   1.334
13723TIP3   OH241111   4.710   6.717   3.466
13723TIP3    H141112   4.802   6.698   3.444
13723TIP3    H241113   4.660   6.679   3.394
13724TIP3   OH241114   4.209   1.484   1.861
13724TIP3    H141115   4.162   1.517   1.784
13724TIP3    H241116   4.153   1.413   1.893
13725TIP3   OH241117   4.632   5.033   6.239
13725TIP3    H141118   4.654   5.126   6.241
13725TIP3    H241119   4.602   5.017   6.150
13726TIP3   OH241120   1.650   1.291   4.807
13726TIP3    H141121   1.611   1.309   4.892
13726TIP3    H241122   1.676   1.199   4.811
13727TIP3   OH241123   5.415   3.594   3.667
13727TIP3    H141124   5.448   3.523   3.612
13727TIP3    H241125   5.378   3.657   3.607
13728TIP3   OH241126   5.453   2.031   4.685
13728TIP3    H141127   5.409   1.955   4.647
13728TIP3    H241128   5.419   2.035   4.775
13729TIP3   OH241129   5.749   6.918   6.129
13729TIP3    H141130   5.751   6.980   6.057
13729TIP3    H241131   5.660   6.884   6.130
13730TIP3   OH241132   5.527   0.269   1.971
13730TIP3    H141133   5.582   0.265   2.049
13730TIP3    H241134   5.588   0.289   1.900
13731TIP3   OH241135   6.204   4.635   2.875
13731TIP3    H141136   6.196   4.716   2.825
13731TIP3    H241137   6.161   4.569   2.821
13732TIP3   OH241138   2.093   6.452   3.228
13732TIP3    H141139   2.007   6.492   3.226
13732TIP3    H241140   2.079   6.362   3.196
13733TIP3   OH241141   1.982   5.474   1.225
13733TIP3    H141142   1.981   5.427   1.309
13733TIP3    H241143   2.073   5.502   1.215
13734TIP3   OH241144   2.840   3.152   6.132
13734TIP3    H141145   2.869   3.087   6.067
13734TIP3    H241146   2.912   3.213   6.138
13735TIP3   OH241147   2.349   5.640   2.625
13735TIP3    H141148   2.294   5.659   2.548
13735TIP3    H241149   2.438   5.635   2.590
13736TIP3   OH241150   2.352   4.801   3.252
13736TIP3    H141151   2.280   4.820   3.191
13736TIP3    H241152   2.358   4.880   3.306
13737TIP3   OH241153   0.048   5.065   1.779
13737TIP3    H141154   0.028   5.049   1.871
13737TIP3    H241155  -0.015   5.011   1.731
13738TIP3   OH241156   6.362   7.002   5.961
13738TIP3    H141157   6.307   7.061   5.909
13738TIP3    H241158   6.394   7.057   6.033
13739TIP3   OH241159   1.061   6.074   4.923
13739TIP3    H141160   1.137   6.099   4.975
13739TIP3    H241161   1.088   5.993   4.879
13740TIP3   OH241162   8.044   0.988   2.488
13740TIP3    H141163   7.958   0.995   2.529
13740TIP3    H241164   8.039   1.046   2.412
13741TIP3   OH241165   4.069   0.214   2.186
13741TIP3    H141166   4.047   0.148   2.252
13741TIP3    H241167   4.083   0.164   2.106
13742TIP3   OH241168   1.936   4.200   6.417
13742TIP3    H141169   2.003   4.243   6.364
13742TIP3    H241170   1.970   4.112   6.431
13743TIP3   OH241171   2.936   3.199   0.493
13743TIP3    H141172   2.913   3.109   0.516
13743TIP3    H241173   2.856   3.249   0.505
13744TIP3   OH241174   0.680   7.815   0.608
13744TIP3    H141175   0.665   7.772   0.692
13744TIP3    H241176   0.595   7.812   0.563
13745TIP3   OH241177   1.689   5.523   1.071
13745TIP3    H141178   1.722   5.441   1.034
13745TIP3    H241179   1.687   5.584   0.998
13746TIP3   OH241180   0.773   2.804   1.163
13746TIP3    H141181   0.812   2.749   1.095
13746TIP3    H241182   0.761   2.890   1.121
13747TIP3   OH241183   8.139   5.165   3.083
13747TIP3    H141184   8.162   5.253   3.054
13747TIP3    H241185   8.126   5.174   3.178
13748TIP3   OH241186   4.124   4.187   0.003
13748TIP3    H141187   4.163   4.187   0.091
13748TIP3    H241188   4.144   4.273  -0.032
13749TIP3   OH241189   6.615   2.325   1.588
13749TIP3    H141190   6.581   2.405   1.547
13749TIP3    H241191   6.569   2.254   1.544
13750TIP3   OH241192   6.564   7.379   2.396
13750TIP3    H141193   6.620   7.392   2.473
13750TIP3    H241194   6.625   7.351   2.328
13751TIP3   OH241195   3.454   6.199   6.695
13751TIP3    H141196   3.367   6.235   6.679
13751TIP3    H241197   3.511   6.276   6.700
13752TIP3   OH241198   0.437   5.420   5.507
13752TIP3    H141199   0.485   5.431   5.424
13752TIP3    H241200   0.505   5.401   5.571
13753TIP3   OH241201   3.521   3.059   3.652
13753TIP3    H141202   3.461   3.032   3.583
13753TIP3    H241203   3.602   3.013   3.633
13754TIP3   OH241204   1.220   5.425   5.503
13754TIP3    H141205   1.142   5.370   5.508
13754TIP3    H241206   1.186   5.515   5.500
13755TIP3   OH241207   0.984   5.066   3.635
13755TIP3    H141208   0.947   5.147   3.600
13755TIP3    H241209   0.940   4.997   3.586
13756TIP3   OH241210   6.157   7.324   0.023
13756TIP3    H141211   6.110   7.328  -0.060
13756TIP3    H241212   6.186   7.414   0.037
13757TIP3   OH241213   0.814   2.790   4.174
13757TIP3    H141214   0.877   2.857   4.149
13757TIP3    H241215   0.781   2.819   4.259
13758TIP3   OH241216   4.910   3.460   3.394
13758TIP3    H141217   4.887   3.395   3.460
13758TIP3    H241218   4.981   3.510   3.433
13759TIP3   OH241219   4.959   5.024   0.154
13759TIP3    H141220   4.916   4.947   0.117
13759TIP3    H241221   5.023   5.050   0.088
13760TIP3   OH241222   3.560   2.810   5.612
13760TIP3    H141223   3.496   2.753   5.656
13760TIP3    H241224   3.575   2.767   5.528
13761TIP3   OH241225   7.637   7.132   3.819
13761TIP3    H141226   7.618   7.173   3.735
13761TIP3    H241227   7.687   7.053   3.796
13762TIP3   OH241228   2.734   4.597   5.973
13762TIP3    H141229   2.671   4.627   5.907
13762TIP3    H241230   2.685   4.597   6.055
13763TIP3   OH241231   7.800   6.068   3.262
13763TIP3    H141232   7.755   6.003   3.316
13763TIP3    H241233   7.875   6.021   3.226
13764TIP3   OH241234   5.248   2.993   1.706
13764TIP3    H141235   5.217   2.968   1.619
13764TIP3    H241236   5.339   3.020   1.692
13765TIP3   OH241237   4.934   1.696   5.236
13765TIP3    H141238   5.011   1.684   5.180
13765TIP3    H241239   4.920   1.611   5.277
13766TIP3   OH241240   2.961   1.871   6.045
13766TIP3    H141241   3.014   1.838   5.972
13766TIP3    H241242   2.885   1.911   6.003
13767TIP3   OH241243   3.927   5.631   0.058
13767TIP3    H141244   3.989   5.656   0.127
13767TIP3    H241245   3.941   5.694  -0.012
13768TIP3   OH241246   7.466   0.492   0.569
13768TIP3    H141247   7.399   0.557   0.592
13768TIP3    H241248   7.548   0.542   0.568
13769TIP3   OH241249   5.622   7.044   0.876
13769TIP3    H141250   5.693   7.035   0.939
13769TIP3    H241251   5.562   6.972   0.897
13770TIP3   OH241252   6.148   6.909   6.738
13770TIP3    H141253   6.240   6.930   6.720
13770TIP3    H241254   6.098   6.963   6.678
13771TIP3   OH241255   5.641   1.369   0.670
13771TIP3    H141256   5.568   1.320   0.708
13771TIP3    H241257   5.645   1.449   0.723
13772TIP3   OH241258   2.727   6.212   0.355
13772TIP3    H141259   2.676   6.198   0.434
13772TIP3    H241260   2.670   6.265   0.299
13773TIP3   OH241261   3.250   7.207   6.525
13773TIP3    H141262   3.317   7.270   6.552
13773TIP3    H241263   3.229   7.159   6.605
13774TIP3   OH241264   3.268   0.476   1.819
13774TIP3    H141265   3.185   0.481   1.773
13774TIP3    H241266   3.295   0.384   1.810
13775TIP3   OH241267   4.463   3.120   2.277
13775TIP3    H141268   4.512   3.039   2.291
13775TIP3    H241269   4.479   3.171   2.356
13776TIP3   OH241270   7.253   7.793   1.372
13776TIP3    H141271   7.228   7.723   1.312
13776TIP3    H241272   7.210   7.871   1.338
13777TIP3   OH241273   7.501   0.871   4.658
13777TIP3    H141274   7.574   0.885   4.719
13777TIP3    H241275   7.543   0.870   4.572
13778TIP3   OH241276   3.492   0.084   3.521
13778TIP3    H141277   3.530   0.119   3.441
13778TIP3    H241278   3.481   0.161   3.577
13779TIP3   OH241279   2.199   7.459   3.682
13779TIP3    H141280   2.211   7.369   3.712
13779TIP3    H241281   2.213   7.513   3.760
13780TIP3   OH241282   1.793   4.768   1.931
13780TIP3    H141283   1.745   4.709   1.872
13780TIP3    H241284   1.736   4.777   2.007
13781TIP3   OH241285   2.616   3.393   5.954
13781TIP3    H141286   2.695   3.365   5.906
13781TIP3    H241287   2.543   3.361   5.901
13782TIP3   OH241288   2.336   0.951   2.350
13782TIP3    H141289   2.311   0.985   2.436
13782TIP3    H241290   2.408   0.890   2.368
13783TIP3   OH241291   4.411   2.526   1.737
13783TIP3    H141292   4.326   2.521   1.780
13783TIP3    H241293   4.396   2.580   1.659
13784TIP3   OH241294   5.300   4.502   4.160
13784TIP3    H141295   5.229   4.566   4.156
13784TIP3    H241296   5.273   4.432   4.100
13785TIP3   OH241297   5.886   1.747   5.264
13785TIP3    H141298   5.820   1.817   5.263
13785TIP3    H241299   5.880   1.709   5.352
13786TIP3   OH241300   1.192   7.359   1.067
13786TIP3    H141301   1.264   7.297   1.082
13786TIP3    H241302   1.200   7.383   0.975
13787TIP3   OH241303   7.014   5.523   5.448
13787TIP3    H141304   7.007   5.568   5.532
13787TIP3    H241305   7.095   5.473   5.454
13788TIP3   OH241306   3.109   0.774   1.209
13788TIP3    H141307   3.020   0.783   1.244
13788TIP3    H241308   3.163   0.829   1.265
13789TIP3   OH241309   3.761   7.804   1.790
13789TIP3    H141310   3.687   7.851   1.827
13789TIP3    H241311   3.731   7.714   1.782
13790TIP3   OH241312   1.226   2.424   1.008
13790TIP3    H141313   1.167   2.351   1.028
13790TIP3    H241314   1.283   2.431   1.085
13791TIP3   OH241315   7.755   6.592   2.756
13791TIP3    H141316   7.790   6.573   2.843
13791TIP3    H241317   7.696   6.519   2.738
13792TIP3   OH241318   2.109   0.112   4.003
13792TIP3    H141319   2.116   0.019   3.980
13792TIP3    H241320   2.161   0.120   4.083
13793TIP3   OH241321   5.377   4.224   0.720
13793TIP3    H141322   5.397   4.164   0.793
13793TIP3    H241323   5.463   4.257   0.693
13794TIP3   OH241324   5.421   4.134   5.631
13794TIP3    H141325   5.380   4.220   5.644
13794TIP3    H241326   5.417   4.121   5.536
13795TIP3   OH241327   0.988   2.764   0.223
13795TIP3    H141328   0.917   2.793   0.281
13795TIP3    H241329   0.974   2.815   0.143
13796TIP3   OH241330   1.429   6.246   6.567
13796TIP3    H141331   1.349   6.285   6.602
13796TIP3    H241332   1.489   6.242   6.642
13797TIP3   OH241333   8.240   1.032   6.556
13797TIP3    H141334   8.331   1.030   6.588
13797TIP3    H241335   8.231   0.952   6.505
13798TIP3   OH241336   0.750   1.562   0.308
13798TIP3    H141337   0.836   1.591   0.338
13798TIP3    H241338   0.742   1.473   0.343
13799TIP3   OH241339   5.998   2.432   5.027
13799TIP3    H141340   6.039   2.452   4.943
13799TIP3    H241341   5.951   2.512   5.050
13800TIP3   OH241342   1.304   7.771   6.149
13800TIP3    H141343   1.372   7.831   6.121
13800TIP3    H241344   1.284   7.718   6.072
13801TIP3   OH241345   1.613   5.502   6.054
13801TIP3    H141346   1.545   5.564   6.081
13801TIP3    H241347   1.585   5.418   6.091
13802TIP3   OH241348   5.321   4.448   0.156
13802TIP3    H141349   5.395   4.508   0.163
13802TIP3    H241350   5.295   4.431   0.247
13803TIP3   OH241351   2.485   0.112   2.229
13803TIP3    H141352   2.425   0.066   2.171
13803TIP3    H241353   2.448   0.199   2.239
13804TIP3   OH241354   3.030   0.346   3.360
13804TIP3    H141355   3.059   0.310   3.277
13804TIP3    H241356   3.090   0.310   3.425
13805TIP3   OH241357   1.863   6.468   2.371
13805TIP3    H141358   1.898   6.379   2.369
13805TIP3    H241359   1.893   6.503   2.455
13806TIP3   OH241360   8.185   6.543   0.450
13806TIP3    H141361   8.135   6.480   0.399
13806TIP3    H241362   8.276   6.526   0.426
13807TIP3   OH241363   0.403   6.218   2.897
13807TIP3    H141364   0.400   6.166   2.817
13807TIP3    H241365   0.388   6.308   2.867
13808TIP3   OH241366   6.292   1.071   5.476
13808TIP3    H141367   6.314   1.044   5.387
13808TIP3    H241368   6.376   1.075   5.522
13809TIP3   OH241369   5.049   7.103   2.595
13809TIP3    H141370   5.038   7.195   2.574
13809TIP3    H241371   4.962   7.073   2.620
13810TIP3   OH241372   5.002   4.851   1.286
13810TIP3    H141373   4.969   4.929   1.241
13810TIP3    H241374   4.985   4.779   1.226
13811TIP3   OH241375   2.787   5.359   5.868
13811TIP3    H141376   2.756   5.369   5.958
13811TIP3    H241377   2.723   5.301   5.827
13812TIP3   OH241378   2.294   3.248   5.367
13812TIP3    H141379   2.364   3.272   5.307
13812TIP3    H241380   2.218   3.234   5.310
13813TIP3   OH241381   2.849   0.962   3.238
13813TIP3    H141382   2.835   1.053   3.264
13813TIP3    H241383   2.941   0.945   3.257
13814TIP3   OH241384   8.263   7.373   6.092
13814TIP3    H141385   8.324   7.329   6.032
13814TIP3    H241386   8.267   7.465   6.067
13815TIP3   OH241387   0.357   5.569   2.043
13815TIP3    H141388   0.322   5.507   1.979
13815TIP3    H241389   0.433   5.524   2.081
13816TIP3   OH241390   0.706   6.873   0.459
13816TIP3    H141391   0.737   6.895   0.371
13816TIP3    H241392   0.667   6.954   0.492
13817TIP3   OH241393   2.251   6.669   3.204
13817TIP3    H141394   2.210   6.583   3.205
13817TIP3    H241395   2.343   6.651   3.225
13818TIP3   OH241396   5.622   4.571   5.100
13818TIP3    H141397   5.679   4.648   5.107
13818TIP3    H241398   5.680   4.502   5.067
13819TIP3   OH241399   6.141   2.652   0.652
13819TIP3    H141400   6.069   2.609   0.605
13819TIP3    H241401   6.183   2.581   0.701
13820TIP3   OH241402   6.399   1.540   3.158
13820TIP3    H141403   6.375   1.632   3.160
13820TIP3    H241404   6.480   1.537   3.106
13821TIP3   OH241405   6.794   3.671   2.423
13821TIP3    H141406   6.729   3.740   2.433
13821TIP3    H241407   6.871   3.704   2.469
13822TIP3   OH241408   0.246   0.016   2.452
13822TIP3    H141409   0.297   0.032   2.531
13822TIP3    H241410   0.212   0.103   2.427
13823TIP3   OH241411   3.351   0.035   0.207
13823TIP3    H141412   3.434   0.052   0.163
13823TIP3    H241413   3.330   0.118   0.251
13824TIP3   OH241414   8.010   2.279   3.149
13824TIP3    H141415   8.026   2.185   3.159
13824TIP3    H241416   7.915   2.289   3.159
13825TIP3   OH241417   6.338   5.685   2.218
13825TIP3    H141418   6.326   5.600   2.260
13825TIP3    H241419   6.402   5.730   2.273
13826TIP3   OH241420   1.523   3.898   2.599
13826TIP3    H141421   1.550   3.949   2.674
13826TIP3    H241422   1.427   3.902   2.599
13827TIP3   OH241423   5.431   6.187   5.434
13827TIP3    H141424   5.471   6.260   5.481
13827TIP3    H241425   5.498   6.119   5.432
13828TIP3   OH241426   3.798   2.929   3.628
13828TIP3    H141427   3.827   2.944   3.718
13828TIP3    H241428   3.860   2.978   3.574
13829TIP3   OH241429   3.078   4.605   3.885
13829TIP3    H141430   3.169   4.579   3.902
13829TIP3    H241431   3.052   4.652   3.964
13830TIP3   OH241432   0.809   7.131   5.296
13830TIP3    H141433   0.775   7.090   5.376
13830TIP3    H241434   0.863   7.063   5.255
13831TIP3   OH241435   1.065   2.772   5.209
13831TIP3    H141436   0.977   2.770   5.173
13831TIP3    H241437   1.118   2.812   5.140
13832TIP3   OH241438   5.447   6.317   2.458
13832TIP3    H141439   5.421   6.406   2.479
13832TIP3    H241440   5.382   6.262   2.501
13833TIP3   OH241441   5.662   5.834   5.177
13833TIP3    H141442   5.683   5.923   5.150
13833TIP3    H241443   5.747   5.790   5.184
13834TIP3   OH241444   2.987   2.032   5.685
13834TIP3    H141445   2.941   1.983   5.617
13834TIP3    H241446   3.021   2.109   5.641
13835TIP3   OH241447   1.522   0.850   6.095
13835TIP3    H141448   1.609   0.815   6.115
13835TIP3    H241449   1.539   0.919   6.031
13836TIP3   OH241450   3.323   6.824   0.843
13836TIP3    H141451   3.268   6.747   0.860
13836TIP3    H241452   3.260   6.895   0.827
13837TIP3   OH241453   3.044   0.448   5.903
13837TIP3    H141454   3.096   0.486   5.833
13837TIP3    H241455   2.959   0.429   5.863
13838TIP3   OH241456   4.160   6.083   3.045
13838TIP3    H141457   4.216   6.031   3.103
13838TIP3    H241458   4.085   6.107   3.100
13839TIP3   OH241459   0.089   1.843   3.666
13839TIP3    H141460   0.021   1.787   3.628
13839TIP3    H241461   0.168   1.789   3.664
13840TIP3   OH241462   2.418   4.994   5.035
13840TIP3    H141463   2.347   5.022   5.093
13840TIP3    H241464   2.388   4.910   5.000
13841TIP3   OH241465   3.450   7.657   0.348
13841TIP3    H141466   3.500   7.690   0.273
13841TIP3    H241467   3.464   7.563   0.346
13842TIP3   OH241468   0.075   1.568   1.908
13842TIP3    H141469   0.063   1.611   1.823
13842TIP3    H241470   0.162   1.530   1.903
13843TIP3   OH241471   2.126   1.671   4.971
13843TIP3    H141472   2.041   1.662   4.929
13843TIP3    H241473   2.106   1.702   5.059
13844TIP3   OH241474   2.871   2.344   0.581
13844TIP3    H141475   2.835   2.433   0.580
13844TIP3    H241476   2.838   2.306   0.663
13845TIP3   OH241477   8.247   0.368   0.105
13845TIP3    H141478   8.256   0.392   0.013
13845TIP3    H241479   8.152   0.362   0.119
13846TIP3   OH241480   6.752   5.204   3.326
13846TIP3    H141481   6.759   5.241   3.415
13846TIP3    H241482   6.692   5.131   3.336
13847TIP3   OH241483   6.202   6.802   0.685
13847TIP3    H141484   6.235   6.783   0.772
13847TIP3    H241485   6.275   6.782   0.626
13848TIP3   OH241486   4.105   1.846   0.008
13848TIP3    H141487   4.079   1.764   0.050
13848TIP3    H241488   4.198   1.836  -0.010
13849TIP3   OH241489   7.030   3.684   2.601
13849TIP3    H141490   7.066   3.620   2.662
13849TIP3    H241491   7.061   3.768   2.634
13850TIP3   OH241492   5.642   4.950   4.385
13850TIP3    H141493   5.679   4.866   4.361
13850TIP3    H241494   5.717   5.010   4.389
13851TIP3   OH241495   5.123   7.389   5.129
13851TIP3    H141496   5.193   7.432   5.177
13851TIP3    H241497   5.118   7.436   5.045
13852TIP3   OH241498   5.780   1.244   3.785
13852TIP3    H141499   5.748   1.292   3.861
13852TIP3    H241500   5.768   1.152   3.808
13853TIP3   OH241501   0.144   3.449   3.339
13853TIP3    H141502   0.088   3.462   3.262
13853TIP3    H241503   0.231   3.475   3.310
13854TIP3   OH241504   5.075   6.912   5.204
13854TIP3    H141505   4.989   6.891   5.240
13854TIP3    H241506   5.089   7.004   5.229
13855TIP3   OH241507   4.172   0.939   5.219
13855TIP3    H141508   4.145   0.881   5.148
13855TIP3    H241509   4.099   1.001   5.229
13856TIP3   OH241510   0.719   2.359   5.117
13856TIP3    H141511   0.679   2.276   5.145
13856TIP3    H241512   0.669   2.385   5.040
13857TIP3   OH241513   4.420   6.501   5.826
13857TIP3    H141514   4.462   6.583   5.853
13857TIP3    H241515   4.452   6.436   5.888
13858TIP3   OH241516   6.642   1.297   4.580
13858TIP3    H141517   6.567   1.238   4.591
13858TIP3    H241518   6.666   1.322   4.669
13859TIP3   OH241519   2.081   0.383   1.480
13859TIP3    H141520   2.085   0.328   1.558
13859TIP3    H241521   1.989   0.382   1.454
13860TIP3   OH241522   4.886   4.980   2.114
13860TIP3    H141523   4.814   5.014   2.167
13860TIP3    H241524   4.920   5.057   2.067
13861TIP3   OH241525   2.899   2.063   3.918
13861TIP3    H141526   2.993   2.084   3.923
13861TIP3    H241527   2.863   2.132   3.862
13862TIP3   OH241528   5.975   5.014   1.975
13862TIP3    H141529   5.907   5.076   1.949
13862TIP3    H241530   6.007   4.978   1.892
13863TIP3   OH241531   7.672   3.613  -0.046
13863TIP3    H141532   7.602   3.551  -0.027
13863TIP3    H241533   7.720   3.623   0.036
13864TIP3   OH241534   2.619   7.655   5.032
13864TIP3    H141535   2.564   7.677   4.957
13864TIP3    H241536   2.571   7.689   5.107
13865TIP3   OH241537   5.742   7.240   3.975
13865TIP3    H141538   5.711   7.211   3.889
13865TIP3    H241539   5.684   7.196   4.038
13866TIP3   OH241540   2.928   7.773   5.507
13866TIP3    H141541   2.905   7.746   5.596
13866TIP3    H241542   3.005   7.720   5.486
13867TIP3   OH241543   5.039   4.998   6.703
13867TIP3    H141544   5.005   4.925   6.754
13867TIP3    H241545   4.986   5.000   6.624
13868TIP3   OH241546   2.909   0.635   6.072
13868TIP3    H141547   2.991   0.677   6.098
13868TIP3    H241548   2.936   0.548   6.041
13869TIP3   OH241549   6.323   3.001   6.334
13869TIP3    H141550   6.239   2.969   6.302
13869TIP3    H241551   6.301   3.072   6.394
13870TIP3   OH241552   2.910   1.858   1.808
13870TIP3    H141553   2.815   1.848   1.806
13870TIP3    H241554   2.936   1.854   1.716
13871TIP3   OH241555   4.545   4.491   0.172
13871TIP3    H141556   4.528   4.573   0.126
13871TIP3    H241557   4.602   4.442   0.113
13872TIP3   OH241558   4.908   4.765   0.089
13872TIP3    H141559   4.941   4.714   0.164
13872TIP3    H241560   4.937   4.717   0.012
13873TIP3   OH241561   5.696   6.167   0.279
13873TIP3    H141562   5.602   6.161   0.257
13873TIP3    H241563   5.741   6.156   0.196
13874TIP3   OH241564   1.649   3.664   2.507
13874TIP3    H141565   1.609   3.648   2.593
13874TIP3    H241566   1.591   3.727   2.465
13875TIP3   OH241567   3.941   5.965   1.698
13875TIP3    H141568   3.950   6.019   1.620
13875TIP3    H241569   3.871   5.904   1.677
13876TIP3   OH241570   5.967   7.295   2.870
13876TIP3    H141571   6.027   7.220   2.873
13876TIP3    H241572   5.886   7.258   2.833
13877TIP3   OH241573   0.333   1.193   6.208
13877TIP3    H141574   0.404   1.151   6.159
13877TIP3    H241575   0.254   1.146   6.181
13878TIP3   OH241576   2.819   6.512   6.515
13878TIP3    H141577   2.893   6.464   6.476
13878TIP3    H241578   2.798   6.579   6.451
13879TIP3   OH241579   3.795   0.590   4.438
13879TIP3    H141580   3.727   0.553   4.494
13879TIP3    H241581   3.771   0.562   4.349
13880TIP3   OH241582   4.425   0.356   4.928
13880TIP3    H141583   4.349   0.368   4.986
13880TIP3    H241584   4.476   0.437   4.939
13881TIP3   OH241585   5.135   2.690   4.062
13881TIP3    H141586   5.198   2.640   4.113
13881TIP3    H241587   5.070   2.720   4.125
13882TIP3   OH241588   8.176   4.258   3.725
13882TIP3    H141589   8.251   4.309   3.755
13882TIP3    H241590   8.209   4.168   3.717
13883TIP3   OH241591   1.730   0.331   1.747
13883TIP3    H141592   1.731   0.309   1.654
13883TIP3    H241593   1.719   0.427   1.749
13884TIP3   OH241594   2.917   2.267   0.286
13884TIP3    H141595   2.996   2.321   0.280
13884TIP3    H241596   2.915   2.239   0.378
13885TIP3   OH241597   4.452   6.120   4.271
13885TIP3    H141598   4.394   6.057   4.229
13885TIP3    H241599   4.412   6.205   4.252
13886TIP3   OH241600   3.778   3.002   2.640
13886TIP3    H141601   3.743   2.915   2.623
13886TIP3    H241602   3.731   3.059   2.579
13887TIP3   OH241603   6.579   5.949   5.860
13887TIP3    H141604   6.538   6.034   5.877
13887TIP3    H241605   6.606   5.918   5.946
13888TIP3   OH241606   2.522   5.071   4.194
13888TIP3    H141607   2.564   5.050   4.277
13888TIP3    H241608   2.560   5.155   4.169
13889TIP3   OH241609   7.247   4.272   1.796
13889TIP3    H141610   7.160   4.296   1.764
13889TIP3    H241611   7.290   4.355   1.814
13890TIP3   OH241612   2.622   5.751   5.065
13890TIP3    H141613   2.579   5.750   5.151
13890TIP3    H241614   2.549   5.755   5.002
13891TIP3   OH241615   3.151   6.798   3.469
13891TIP3    H141616   3.102   6.871   3.431
13891TIP3    H241617   3.196   6.835   3.545
13892TIP3   OH241618   7.025   1.700   1.922
13892TIP3    H141619   7.019   1.784   1.969
13892TIP3    H241620   7.086   1.718   1.850
13893TIP3   OH241621   6.899   0.903   0.982
13893TIP3    H141622   6.914   0.817   1.019
13893TIP3    H241623   6.817   0.933   1.021
13894TIP3   OH241624   4.949   3.815   5.964
13894TIP3    H141625   5.037   3.819   6.000
13894TIP3    H241626   4.961   3.825   5.869
13895TIP3   OH241627   5.370   4.078   3.137
13895TIP3    H141628   5.322   4.040   3.211
13895TIP3    H241629   5.418   4.005   3.099
13896TIP3   OH241630   4.904   6.260   5.010
13896TIP3    H141631   4.859   6.202   4.949
13896TIP3    H241632   4.834   6.294   5.067
13897TIP3   OH241633   3.098   3.755   1.614
13897TIP3    H141634   3.079   3.824   1.678
13897TIP3    H241635   3.188   3.728   1.633
13898TIP3   OH241636   6.440   1.441   5.414
13898TIP3    H141637   6.367   1.419   5.471
13898TIP3    H241638   6.433   1.536   5.401
13899TIP3   OH241639   8.024   0.515   5.567
13899TIP3    H141640   8.088   0.519   5.638
13899TIP3    H241641   7.955   0.458   5.601
13900TIP3   OH241642   3.213   0.110   6.019
13900TIP3    H141643   3.290   0.054   6.010
13900TIP3    H241644   3.246   0.192   6.056
13901TIP3   OH241645   0.340   3.934   2.809
13901TIP3    H141646   0.316   4.023   2.787
13901TIP3    H241647   0.327   3.884   2.729
13902TIP3   OH241648   4.492   5.685   4.371
13902TIP3    H141649   4.412   5.730   4.343
13902TIP3    H241650   4.514   5.725   4.455
13903TIP3   OH241651   0.087   6.220   3.709
13903TIP3    H141652  -0.006   6.220   3.728
13903TIP3    H241653   0.101   6.297   3.654
13904TIP3   OH241654   5.649   1.230   4.637
13904TIP3    H141655   5.655   1.325   4.646
13904TIP3    H241656   5.738   1.201   4.617
13905TIP3   OH241657   0.774   0.630   1.903
13905TIP3    H141658   0.814   0.627   1.816
13905TIP3    H241659   0.682   0.608   1.889
13906TIP3   OH241660   2.353   2.318   1.685
13906TIP3    H141661   2.411   2.293   1.614
13906TIP3    H241662   2.269   2.336   1.643
13907TIP3   OH241663   0.430   7.524   5.752
13907TIP3    H141664   0.336   7.511   5.765
13907TIP3    H241665   0.450   7.477   5.671
13908TIP3   OH241666   2.310   1.714   3.352
13908TIP3    H141667   2.287   1.622   3.365
13908TIP3    H241668   2.400   1.711   3.319
13909TIP3   OH241669   6.915   3.211   1.343
13909TIP3    H141670   6.949   3.298   1.367
13909TIP3    H241671   6.962   3.150   1.400
13910TIP3   OH241672   1.814   5.898   3.457
13910TIP3    H141673   1.843   5.810   3.435
13910TIP3    H241674   1.739   5.885   3.516
13911TIP3   OH241675   6.643   3.777   3.941
13911TIP3    H141676   6.692   3.696   3.925
13911TIP3    H241677   6.691   3.819   4.014
13912TIP3   OH241678   6.844   3.394   1.693
13912TIP3    H141679   6.820   3.434   1.777
13912TIP3    H241680   6.786   3.318   1.685
13913TIP3   OH241681   1.053   6.607   1.687
13913TIP3    H141682   1.010   6.543   1.631
13913TIP3    H241683   1.062   6.685   1.632
13914TIP3   OH241684   2.421   1.661   4.062
13914TIP3    H141685   2.379   1.604   3.999
13914TIP3    H241686   2.510   1.629   4.070
13915TIP3   OH241687   0.896   2.525   6.672
13915TIP3    H141688   0.819   2.578   6.695
13915TIP3    H241689   0.918   2.551   6.583
13916TIP3   OH241690   6.909   1.095   5.305
13916TIP3    H141691   6.919   1.148   5.385
13916TIP3    H241692   6.817   1.103   5.282
13917TIP3   OH241693   3.562   1.620   0.135
13917TIP3    H141694   3.642   1.641   0.087
13917TIP3    H241695   3.585   1.544   0.189
13918TIP3   OH241696   1.705   5.791   5.386
13918TIP3    H141697   1.666   5.800   5.299
13918TIP3    H241698   1.709   5.880   5.420
13919TIP3   OH241699   3.551   4.150   0.023
13919TIP3    H141700   3.529   4.243   0.029
13919TIP3    H241701   3.497   4.108   0.090
13920TIP3   OH241702   3.634   5.820   3.099
13920TIP3    H141703   3.665   5.730   3.084
13920TIP3    H241704   3.549   5.810   3.142
13921TIP3   OH241705   0.783   5.172   1.695
13921TIP3    H141706   0.838   5.118   1.751
13921TIP3    H241707   0.833   5.182   1.614
13922TIP3   OH241708   6.297   4.475   2.201
13922TIP3    H141709   6.253   4.459   2.284
13922TIP3    H241710   6.235   4.529   2.151
13923TIP3   OH241711   4.480   2.805   5.435
13923TIP3    H141712   4.512   2.746   5.367
13923TIP3    H241713   4.399   2.764   5.466
13924TIP3   OH241714   0.204   3.223   2.988
13924TIP3    H141715   0.143   3.195   2.920
13924TIP3    H241716   0.183   3.168   3.064
13925TIP3   OH241717   6.018   0.625   3.952
13925TIP3    H141718   6.002   0.611   4.046
13925TIP3    H241719   6.092   0.685   3.949
13926TIP3   OH241720   2.590   4.759   4.669
13926TIP3    H141721   2.656   4.724   4.610
13926TIP3    H241722   2.596   4.854   4.658
13927TIP3   OH241723   2.115   4.137   0.674
13927TIP3    H141724   2.175   4.131   0.599
13927TIP3    H241725   2.137   4.220   0.716
13928TIP3   OH241726   4.401   4.673   2.407
13928TIP3    H141727   4.422   4.671   2.314
13928TIP3    H241728   4.478   4.714   2.448
13929TIP3   OH241729   2.172   5.543   2.426
13929TIP3    H141730   2.095   5.533   2.482
13929TIP3    H241731   2.210   5.456   2.420
13930TIP3   OH241732   4.263   2.744   6.673
13930TIP3    H141733   4.193   2.804   6.649
13930TIP3    H241734   4.331   2.801   6.711
13931TIP3   OH241735   4.600   0.555   4.882
13931TIP3    H141736   4.630   0.615   4.814
13931TIP3    H241737   4.663   0.566   4.953
13932TIP3   OH241738   0.157   7.365   1.740
13932TIP3    H141739   0.198   7.298   1.794
13932TIP3    H241740   0.083   7.396   1.792
13933TIP3   OH241741   0.348   6.404   0.224
13933TIP3    H141742   0.323   6.452   0.145
13933TIP3    H241743   0.425   6.450   0.257
13934TIP3   OH241744   4.073   5.957   2.394
13934TIP3    H141745   4.126   5.998   2.326
13934TIP3    H241746   4.102   5.865   2.395
13935TIP3   OH241747   8.213   4.888   1.623
13935TIP3    H141748   8.261   4.858   1.545
13935TIP3    H241749   8.121   4.887   1.597
13936TIP3   OH241750   4.243   5.508   4.150
13936TIP3    H141751   4.288   5.501   4.066
13936TIP3    H241752   4.313   5.506   4.216
13937TIP3   OH241753   5.209   0.618   5.156
13937TIP3    H141754   5.293   0.660   5.141
13937TIP3    H241755   5.229   0.524   5.159
13938TIP3   OH241756   1.731   7.643   4.970
13938TIP3    H141757   1.815   7.601   4.949
13938TIP3    H241758   1.721   7.709   4.901
13939TIP3   OH241759   3.736   4.648   4.334
13939TIP3    H141760   3.709   4.569   4.381
13939TIP3    H241761   3.684   4.718   4.374
13940TIP3   OH241762   7.056   5.171   2.091
13940TIP3    H141763   7.022   5.209   2.172
13940TIP3    H241764   7.149   5.195   2.091
13941TIP3   OH241765   3.789   5.224   3.353
13941TIP3    H141766   3.751   5.219   3.440
13941TIP3    H241767   3.745   5.155   3.303
13942TIP3   OH241768   5.522   3.912   1.226
13942TIP3    H141769   5.582   3.947   1.292
13942TIP3    H241770   5.463   3.855   1.276
13943TIP3   OH241771   2.988   7.496   0.252
13943TIP3    H141772   3.007   7.491   0.345
13943TIP3    H241773   3.042   7.428   0.212
13944TIP3   OH241774   4.548   6.388   6.056
13944TIP3    H141775   4.619   6.352   6.109
13944TIP3    H241776   4.502   6.447   6.116
13945TIP3   OH241777   3.941   6.100   6.133
13945TIP3    H141778   3.958   6.121   6.041
13945TIP3    H241779   3.949   6.005   6.138
13946TIP3   OH241780   4.491   0.183   3.932
13946TIP3    H141781   4.578   0.150   3.908
13946TIP3    H241782   4.439   0.171   3.853
13947TIP3   OH241783   2.008   6.873   1.125
13947TIP3    H141784   1.989   6.944   1.186
13947TIP3    H241785   1.925   6.827   1.115
13948TIP3   OH241786   0.255   7.026   2.599
13948TIP3    H141787   0.187   7.027   2.532
13948TIP3    H241788   0.227   6.959   2.661
13949TIP3   OH241789   5.794   6.548   2.281
13949TIP3    H141790   5.812   6.550   2.375
13949TIP3    H241791   5.702   6.521   2.275
13950TIP3   OH241792   2.901   0.020   2.333
13950TIP3    H141793   2.968   0.073   2.375
13950TIP3    H241794   2.833   0.083   2.308
13951TIP3   OH241795   7.941   3.993   2.244
13951TIP3    H141796   7.975   3.993   2.155
13951TIP3    H241797   7.980   4.072   2.284
13952TIP3   OH241798   4.337   0.680   6.253
13952TIP3    H141799   4.425   0.657   6.280
13952TIP3    H241800   4.348   0.718   6.166
13953TIP3   OH241801   5.933   0.900   0.464
13953TIP3    H141802   5.974   0.967   0.518
13953TIP3    H241803   5.923   0.825   0.522
13954TIP3   OH241804   6.277   3.602   4.338
13954TIP3    H141805   6.321   3.517   4.342
13954TIP3    H241806   6.244   3.608   4.248
13955TIP3   OH241807   3.948   1.022   2.017
13955TIP3    H141808   3.855   1.036   2.002
13955TIP3    H241809   3.954   0.998   2.110
13956TIP3   OH241810   2.618   0.807   2.417
13956TIP3    H141811   2.690   0.847   2.465
13956TIP3    H241812   2.568   0.760   2.483
13957TIP3   OH241813   4.208   7.550   6.556
13957TIP3    H141814   4.204   7.458   6.580
13957TIP3    H241815   4.177   7.553   6.466
13958TIP3   OH241816   0.058   3.352   5.034
13958TIP3    H141817   0.052   3.436   4.988
13958TIP3    H241818   0.096   3.374   5.119
13959TIP3   OH241819   2.094   0.213   1.676
13959TIP3    H141820   2.003   0.195   1.702
13959TIP3    H241821   2.133   0.126   1.663
13960TIP3   OH241822   5.715   4.015   0.754
13960TIP3    H141823   5.792   4.066   0.775
13960TIP3    H241824   5.727   3.990   0.662
13961TIP3   OH241825   2.236   4.338   2.947
13961TIP3    H141826   2.206   4.248   2.933
13961TIP3    H241827   2.234   4.349   3.043
13962TIP3   OH241828   4.743   2.199   1.215
13962TIP3    H141829   4.833   2.190   1.246
13962TIP3    H241830   4.734   2.293   1.196
13963TIP3   OH241831   4.308   0.313   1.997
13963TIP3    H141832   4.269   0.268   1.922
13963TIP3    H241833   4.234   0.355   2.041
13964TIP3   OH241834   5.403   1.342   4.733
13964TIP3    H141835   5.456   1.379   4.804
13964TIP3    H241836   5.460   1.278   4.692
13965TIP3   OH241837   3.899   3.177   3.485
13965TIP3    H141838   3.948   3.244   3.437
13965TIP3    H241839   3.808   3.207   3.483
13966TIP3   OH241840   6.563   5.832   1.676
13966TIP3    H141841   6.560   5.741   1.648
13966TIP3    H241842   6.585   5.881   1.597
13967TIP3   OH241843   3.836   1.816   0.973
13967TIP3    H141844   3.875   1.831   1.059
13967TIP3    H241845   3.804   1.902   0.947
13968TIP3   OH241846   2.274   0.422   0.560
13968TIP3    H141847   2.189   0.424   0.515
13968TIP3    H241848   2.251   0.404   0.652
13969TIP3   OH241849   5.174   4.462   0.889
13969TIP3    H141850   5.168   4.367   0.902
13969TIP3    H241851   5.121   4.480   0.811
13970TIP3   OH241852   2.310   3.722   5.917
13970TIP3    H141853   2.399   3.741   5.888
13970TIP3    H241854   2.312   3.630   5.945
13971TIP3   OH241855   4.424   4.071   0.182
13971TIP3    H141856   4.349   4.017   0.159
13971TIP3    H241857   4.495   4.009   0.195
13972TIP3   OH241858   6.538   3.921   6.691
13972TIP3    H141859   6.577   3.834   6.683
13972TIP3    H241860   6.520   3.948   6.601
13973TIP3   OH241861   5.164   1.222   5.074
13973TIP3    H141862   5.186   1.165   5.000
13973TIP3    H241863   5.104   1.169   5.127
13974TIP3   OH241864   0.376   6.053   6.261
13974TIP3    H141865   0.336   6.001   6.331
13974TIP3    H241866   0.335   6.021   6.181
13975TIP3   OH241867   7.526   0.219   6.331
13975TIP3    H141868   7.482   0.269   6.400
13975TIP3    H241869   7.556   0.140   6.374
13976TIP3   OH241870   0.439   7.751   1.721
13976TIP3    H141871   0.522   7.756   1.674
13976TIP3    H241872   0.384   7.694   1.666
13977TIP3   OH241873   0.292   6.094   1.444
13977TIP3    H141874   0.309   6.161   1.378
13977TIP3    H241875   0.306   6.011   1.398
13978TIP3   OH241876   3.097   0.538   6.525
13978TIP3    H141877   3.149   0.486   6.464
13978TIP3    H241878   3.115   0.629   6.501
13979TIP3   OH241879   0.739   1.600   5.643
13979TIP3    H141880   0.669   1.567   5.587
13979TIP3    H241881   0.737   1.695   5.632
13980TIP3   OH241882   4.023   1.173   5.239
13980TIP3    H141883   3.999   1.174   5.331
13980TIP3    H241884   4.025   1.265   5.214
13981TIP3   OH241885   7.356   2.617   2.783
13981TIP3    H141886   7.265   2.646   2.777
13981TIP3    H241887   7.406   2.684   2.737
13982TIP3   OH241888   7.773   5.504   0.534
13982TIP3    H141889   7.752   5.585   0.581
13982TIP3    H241890   7.751   5.523   0.443
13983TIP3   OH241891   7.481   1.875   4.397
13983TIP3    H141892   7.408   1.828   4.354
13983TIP3    H241893   7.497   1.825   4.477
13984TIP3   OH241894   2.202   3.271   4.506
13984TIP3    H141895   2.245   3.337   4.451
13984TIP3    H241896   2.243   3.283   4.592
13985TIP3   OH241897   7.854   0.697   3.265
13985TIP3    H141898   7.783   0.712   3.203
13985TIP3    H241899   7.813   0.653   3.339
13986TIP3   OH241900   0.467   0.779   3.831
13986TIP3    H141901   0.480   0.711   3.898
13986TIP3    H241902   0.530   0.758   3.763
13987TIP3   OH241903   1.344   4.097   6.408
13987TIP3    H141904   1.338   4.054   6.493
13987TIP3    H241905   1.438   4.107   6.394
13988TIP3   OH241906   2.435   0.821   4.189
13988TIP3    H141907   2.388   0.841   4.108
13988TIP3    H241908   2.495   0.895   4.201
13989TIP3   OH241909   5.551   3.047   6.499
13989TIP3    H141910   5.550   3.140   6.519
13989TIP3    H241911   5.477   3.011   6.548
13990TIP3   OH241912   5.130   4.678   0.226
13990TIP3    H141913   5.207   4.666   0.169
13990TIP3    H241914   5.098   4.589   0.241
13991TIP3   OH241915   4.235   3.002   5.849
13991TIP3    H141916   4.307   2.953   5.808
13991TIP3    H241917   4.177   3.024   5.777
13992TIP3   OH241918   7.707   0.706   6.018
13992TIP3    H141919   7.660   0.664   6.089
13992TIP3    H241920   7.750   0.781   6.059
13993TIP3   OH241921   2.491   3.595   6.189
13993TIP3    H141922   2.508   3.679   6.232
13993TIP3    H241923   2.469   3.535   6.261
13994TIP3   OH241924   1.795   7.183   2.917
13994TIP3    H141925   1.752   7.144   2.994
13994TIP3    H241926   1.880   7.211   2.950
13995TIP3   OH241927   0.799   7.637   6.546
13995TIP3    H141928   0.756   7.711   6.589
13995TIP3    H241929   0.892   7.658   6.549
13996TIP3   OH241930   6.723   7.069   1.391
13996TIP3    H141931   6.811   7.094   1.418
13996TIP3    H241932   6.676   7.152   1.384
13997TIP3   OH241933   0.704   3.793   3.887
13997TIP3    H141934   0.617   3.764   3.857
13997TIP3    H241935   0.686   3.848   3.963
13998TIP3   OH241936   6.993   2.986   2.154
13998TIP3    H141937   6.940   2.907   2.162
13998TIP3    H241938   7.069   2.969   2.211
13999TIP3   OH241939   7.042   2.550   4.105
13999TIP3    H141940   6.980   2.478   4.090
13999TIP3    H241941   7.115   2.510   4.151
14000TIP3   OH241942   2.377   4.009   5.826
14000TIP3    H141943   2.307   3.970   5.879
14000TIP3    H241944   2.454   4.009   5.884
14001TIP3   OH241945   2.374   3.996   1.705
14001TIP3    H141946   2.438   3.946   1.756
14001TIP3    H241947   2.367   4.080   1.751
14002TIP3   OH241948   3.389   6.064   2.445
14002TIP3    H141949   3.410   5.989   2.501
14002TIP3    H241950   3.435   6.046   2.363
14003TIP3   OH241951   7.750   6.333   2.346
14003TIP3    H141952   7.786   6.279   2.417
14003TIP3    H241953   7.771   6.423   2.372
14004TIP3   OH241954   1.850   1.704   4.920
14004TIP3    H141955   1.760   1.676   4.938
14004TIP3    H241956   1.856   1.791   4.959
14005TIP3   OH241957   6.660   4.934   5.589
14005TIP3    H141958   6.742   4.983   5.590
14005TIP3    H241959   6.614   4.961   5.669
14006TIP3   OH241960   7.929   6.086   2.041
14006TIP3    H141961   7.856   6.024   2.047
14006TIP3    H241962   7.964   6.072   1.952
14007TIP3   OH241963   2.491   6.129   0.841
14007TIP3    H141964   2.462   6.200   0.897
14007TIP3    H241965   2.412   6.081   0.820
14008TIP3   OH241966   3.491   7.506   5.379
14008TIP3    H141967   3.473   7.487   5.471
14008TIP3    H241968   3.443   7.439   5.331
14009TIP3   OH241969   5.156   3.622   0.516
14009TIP3    H141970   5.117   3.703   0.549
14009TIP3    H241971   5.204   3.648   0.438
14010TIP3   OH241972   5.614   1.405   4.927
14010TIP3    H141973   5.682   1.464   4.894
14010TIP3    H241974   5.584   1.446   5.008
14011TIP3   OH241975   8.198   7.796   5.192
14011TIP3    H141976   8.274   7.770   5.243
14011TIP3    H241977   8.137   7.832   5.256
14012TIP3   OH241978   6.216   5.667   6.410
14012TIP3    H141979   6.271   5.739   6.442
14012TIP3    H241980   6.199   5.614   6.487
14013TIP3   OH241981   2.021   6.152   0.771
14013TIP3    H141982   2.021   6.157   0.675
14013TIP3    H241983   1.954   6.214   0.799
14014TIP3   OH241984   0.496   1.055   6.059
14014TIP3    H141985   0.465   0.966   6.039
14014TIP3    H241986   0.565   1.042   6.124
14015TIP3   OH241987   2.753   5.883   1.113
14015TIP3    H141988   2.758   5.978   1.106
14015TIP3    H241989   2.659   5.864   1.112
14016TIP3   OH241990   0.295   2.214   2.734
14016TIP3    H141991   0.315   2.126   2.702
14016TIP3    H241992   0.326   2.273   2.665
14017TIP3   OH241993   6.168   6.167   0.899
14017TIP3    H141994   6.142   6.172   0.807
14017TIP3    H241995   6.184   6.074   0.914
14018TIP3   OH241996   0.554   0.484   5.106
14018TIP3    H141997   0.566   0.478   5.011
14018TIP3    H241998   0.463   0.459   5.121
14019TIP3   OH241999   6.723   4.805   4.433
14019TIP3    H142000   6.783   4.859   4.381
14019TIP3    H242001   6.773   4.726   4.454
14020TIP3   OH242002   3.802   6.995   5.248
14020TIP3    H142003   3.820   6.916   5.196
14020TIP3    H242004   3.887   7.022   5.280
14021TIP3   OH242005   7.856   3.699   3.974
14021TIP3    H142006   7.822   3.673   3.888
14021TIP3    H242007   7.947   3.726   3.956
14022TIP3   OH242008   3.607   5.838   4.009
14022TIP3    H142009   3.566   5.752   4.011
14022TIP3    H242010   3.675   5.831   3.942
14023TIP3   OH242011   5.108   0.592   1.239
14023TIP3    H142012   5.153   0.540   1.172
14023TIP3    H242013   5.058   0.656   1.189
14024TIP3   OH242014   6.091   5.764   4.823
14024TIP3    H142015   5.997   5.783   4.823
14024TIP3    H242016   6.097   5.671   4.846
14025TIP3   OH242017   3.848   7.726   1.463
14025TIP3    H142018   3.772   7.684   1.423
14025TIP3    H242019   3.889   7.658   1.515
14026TIP3   OH242020   8.041   4.344   2.270
14026TIP3    H142021   8.119   4.315   2.223
14026TIP3    H242022   7.971   4.341   2.204
14027TIP3   OH242023   0.583   2.536   5.339
14027TIP3    H142024   0.548   2.494   5.417
14027TIP3    H242025   0.544   2.488   5.266
14028TIP3   OH242026   6.886   4.703   2.556
14028TIP3    H142027   6.979   4.724   2.545
14028TIP3    H242028   6.885   4.628   2.616
14029TIP3   OH242029   6.389   0.180   0.433
14029TIP3    H142030   6.374   0.248   0.499
14029TIP3    H242031   6.476   0.146   0.453
14030TIP3   OH242032   6.226   5.134   5.213
14030TIP3    H142033   6.187   5.192   5.147
14030TIP3    H242034   6.182   5.158   5.295
14031TIP3   OH242035   5.415   6.591   1.257
14031TIP3    H142036   5.493   6.569   1.206
14031TIP3    H242037   5.351   6.523   1.235
14032TIP3   OH242038   1.409   4.275   1.002
14032TIP3    H142039   1.392   4.357   0.955
14032TIP3    H242040   1.479   4.297   1.064
14033TIP3   OH242041   5.676   2.753   4.581
14033TIP3    H142042   5.674   2.846   4.558
14033TIP3    H242043   5.596   2.740   4.633
14034TIP3   OH242044   0.677   0.040   1.969
14034TIP3    H142045   0.732  -0.023   2.015
14034TIP3    H242046   0.618  -0.013   1.917
14035TIP3   OH242047   1.100   5.118   0.821
14035TIP3    H142048   1.059   5.203   0.839
14035TIP3    H242049   1.179   5.118   0.875
14036TIP3   OH242050   3.511   1.468   6.015
14036TIP3    H142051   3.601   1.456   5.986
14036TIP3    H242052   3.495   1.395   6.075
14037TIP3   OH242053   3.743   1.643   2.555
14037TIP3    H142054   3.684   1.677   2.488
14037TIP3    H242055   3.769   1.721   2.605
14038TIP3   OH242056   4.177   2.829   1.745
14038TIP3    H142057   4.196   2.782   1.664
14038TIP3    H242058   4.257   2.821   1.797
14039TIP3   OH242059   4.630   7.280   3.109
14039TIP3    H142060   4.661   7.213   3.170
14039TIP3    H242061   4.562   7.326   3.157
14040TIP3   OH242062   0.702   3.562   5.488
14040TIP3    H142063   0.670   3.494   5.429
14040TIP3    H242064   0.655   3.549   5.570
14041TIP3   OH242065   3.467   0.563   2.705
14041TIP3    H142066   3.446   0.470   2.698
14041TIP3    H242067   3.558   0.569   2.677
14042TIP3   OH242068   2.772   5.183   1.517
14042TIP3    H142069   2.850   5.234   1.494
14042TIP3    H242070   2.727   5.169   1.434
14043TIP3   OH242071   3.556   4.684   3.049
14043TIP3    H142072   3.520   4.713   2.966
14043TIP3    H242073   3.534   4.753   3.111
14044TIP3   OH242074   4.003   4.948   3.656
14044TIP3    H142075   4.077   4.890   3.674
14044TIP3    H242076   3.976   4.980   3.742
14045TIP3   OH242077   2.164   2.892   6.614
14045TIP3    H142078   2.188   2.904   6.522
14045TIP3    H242079   2.097   2.958   6.630
14046TIP3   OH242080   1.620   2.750   4.392
14046TIP3    H142081   1.711   2.775   4.379
14046TIP3    H242082   1.616   2.657   4.370
14047TIP3   OH242083   0.516   5.289   4.394
14047TIP3    H142084   0.605   5.279   4.427
14047TIP3    H242085   0.518   5.250   4.307
14048TIP3   OH242086   5.028   4.119   5.815
14048TIP3    H142087   4.998   4.112   5.906
14048TIP3    H242088   5.003   4.035   5.776
14049TIP3   OH242089   6.780   4.331   1.278
14049TIP3    H142090   6.795   4.339   1.372
14049TIP3    H242091   6.686   4.343   1.267
14050TIP3   OH242092   4.651   6.332   5.158
14050TIP3    H142093   4.627   6.400   5.095
14050TIP3    H242094   4.586   6.263   5.144
14051TIP3   OH242095   6.656   2.911   2.435
14051TIP3    H142096   6.618   2.851   2.499
14051TIP3    H242097   6.598   2.986   2.435
14052TIP3   OH242098   1.966   7.314   1.786
14052TIP3    H142099   1.889   7.270   1.823
14052TIP3    H242100   2.025   7.242   1.762
14053TIP3   OH242101   1.439   7.747   6.426
14053TIP3    H142102   1.399   7.746   6.339
14053TIP3    H242103   1.484   7.832   6.430
14054TIP3   OH242104   6.138   3.434   3.218
14054TIP3    H142105   6.216   3.380   3.205
14054TIP3    H242106   6.134   3.491   3.141
14055TIP3   OH242107   2.366   4.988   3.936
14055TIP3    H142108   2.414   5.004   4.017
14055TIP3    H242109   2.384   5.065   3.882
14056TIP3   OH242110   1.169   5.260   0.286
14056TIP3    H142111   1.167   5.228   0.376
14056TIP3    H242112   1.174   5.355   0.295
14057TIP3   OH242113   6.742   7.432   0.492
14057TIP3    H142114   6.770   7.519   0.464
14057TIP3    H242115   6.664   7.448   0.545
14058TIP3   OH242116   4.273   2.689   6.139
14058TIP3    H142117   4.316   2.631   6.076
14058TIP3    H242118   4.345   2.733   6.184
14059TIP3   OH242119   3.596   1.503   2.194
14059TIP3    H142120   3.631   1.421   2.230
14059TIP3    H242121   3.634   1.571   2.250
14060TIP3   OH242122   3.391   6.790   4.330
14060TIP3    H142123   3.462   6.727   4.345
14060TIP3    H242124   3.333   6.746   4.268
14061TIP3   OH242125   1.520   1.725   2.857
14061TIP3    H142126   1.537   1.797   2.795
14061TIP3    H242127   1.461   1.667   2.809
14062TIP3   OH242128   2.135   1.008   2.002
14062TIP3    H142129   2.161   0.917   1.991
14062TIP3    H242130   2.215   1.054   2.026
14063TIP3   OH242131   8.213   5.005   2.864
14063TIP3    H142132   8.166   5.039   2.940
14063TIP3    H242133   8.168   5.045   2.789
14064TIP3   OH242134   4.839   3.363   0.131
14064TIP3    H142135   4.840   3.305   0.206
14064TIP3    H242136   4.918   3.418   0.141
14065TIP3   OH242137   2.185   3.243   5.636
14065TIP3    H142138   2.174   3.153   5.667
14065TIP3    H242139   2.225   3.233   5.549
14066TIP3   OH242140   5.788   5.950   1.688
14066TIP3    H142141   5.791   5.913   1.600
14066TIP3    H242142   5.824   6.039   1.679
14067TIP3   OH242143   2.944   3.370   5.491
14067TIP3    H142144   2.967   3.383   5.399
14067TIP3    H242145   2.849   3.381   5.494
14068TIP3   OH242146   5.230   7.030   0.737
14068TIP3    H142147   5.289   7.104   0.751
14068TIP3    H242148   5.256   6.966   0.802
14069TIP3   OH242149   2.185   0.100   3.684
14069TIP3    H142150   2.098   0.127   3.712
14069TIP3    H242151   2.242   0.173   3.706
14070TIP3   OH242152   8.129   3.966   4.884
14070TIP3    H142153   8.108   3.993   4.795
14070TIP3    H242154   8.169   4.043   4.924
14071TIP3   OH242155   4.744   2.941   5.072
14071TIP3    H142156   4.669   2.972   5.021
14071TIP3    H242157   4.704   2.900   5.149
14072TIP3   OH242158   1.210   7.488   6.412
14072TIP3    H142159   1.126   7.487   6.367
14072TIP3    H242160   1.274   7.510   6.344
14073TIP3   OH242161   4.069   0.945   6.099
14073TIP3    H142162   4.087   0.918   6.189
14073TIP3    H242163   4.006   0.881   6.066
14074TIP3   OH242164   8.065   4.098   3.082
14074TIP3    H142165   7.977   4.062   3.073
14074TIP3    H242166   8.066   4.173   3.022
14075TIP3   OH242167   3.204   6.596   3.106
14075TIP3    H142168   3.188   6.515   3.058
14075TIP3    H242169   3.274   6.639   3.057
14076TIP3   OH242170   3.395   1.087   0.289
14076TIP3    H142171   3.387   1.128   0.375
14076TIP3    H242172   3.354   1.001   0.299
14077TIP3   OH242173   7.527   0.584   0.929
14077TIP3    H142174   7.493   0.670   0.951
14077TIP3    H242175   7.453   0.538   0.889
14078TIP3   OH242176   2.560   2.725   1.376
14078TIP3    H142177   2.558   2.800   1.436
14078TIP3    H242178   2.494   2.745   1.310
14079TIP3   OH242179   4.002   3.593   6.343
14079TIP3    H142180   4.013   3.504   6.309
14079TIP3    H242181   4.071   3.602   6.408
14080TIP3   OH242182   1.630   4.436   3.934
14080TIP3    H142183   1.711   4.465   3.977
14080TIP3    H242184   1.563   4.494   3.968
14081TIP3   OH242185   8.272   1.611   3.521
14081TIP3    H142186   8.306   1.529   3.556
14081TIP3    H242187   8.291   1.608   3.427
14082TIP3   OH242188   0.645   5.963   2.634
14082TIP3    H142189   0.565   5.968   2.583
14082TIP3    H242190   0.669   6.054   2.650
14083TIP3   OH242191   7.097   4.333   3.457
14083TIP3    H142192   7.095   4.424   3.429
14083TIP3    H242193   7.186   4.319   3.488
14084TIP3   OH242194   4.194   5.691   6.261
14084TIP3    H142195   4.109   5.728   6.286
14084TIP3    H242196   4.252   5.711   6.334
14085TIP3   OH242197   3.030   1.516   1.415
14085TIP3    H142198   3.114   1.499   1.458
14085TIP3    H242199   2.995   1.592   1.461
14086TIP3   OH242200   1.657   7.134   3.144
14086TIP3    H142201   1.718   7.172   3.208
14086TIP3    H242202   1.572   7.137   3.188
14087TIP3   OH242203   5.952   2.728   0.328
14087TIP3    H142204   5.988   2.641   0.343
14087TIP3    H242205   6.012   2.768   0.265
14088TIP3   OH242206   5.419   1.943   5.999
14088TIP3    H142207   5.451   2.009   5.937
14088TIP3    H242208   5.349   1.988   6.047
14089TIP3   OH242209   8.069   5.962   3.566
14089TIP3    H142210   8.163   5.962   3.584
14089TIP3    H242211   8.051   6.052   3.538
14090TIP3   OH242212   2.267   4.456   1.958
14090TIP3    H142213   2.253   4.416   2.043
14090TIP3    H242214   2.179   4.467   1.922
14091TIP3   OH242215   4.693   2.930   5.992
14091TIP3    H142216   4.671   2.870   5.921
14091TIP3    H242217   4.683   3.017   5.952
14092TIP3   OH242218   7.302   3.819   1.197
14092TIP3    H142219   7.375   3.769   1.235
14092TIP3    H242220   7.227   3.798   1.252
14093TIP3   OH242221   4.918   3.554   5.587
14093TIP3    H142222   4.932   3.640   5.548
14093TIP3    H242223   4.842   3.566   5.644
14094TIP3   OH242224   3.409   4.814   2.417
14094TIP3    H142225   3.446   4.739   2.463
14094TIP3    H242226   3.484   4.860   2.380
14095TIP3   OH242227   5.806   5.663   3.572
14095TIP3    H142228   5.834   5.610   3.498
14095TIP3    H242229   5.868   5.735   3.574
14096TIP3   OH242230   5.456   2.293   3.522
14096TIP3    H142231   5.497   2.321   3.604
14096TIP3    H242232   5.362   2.294   3.539
14097TIP3   OH242233   8.155   0.808   0.899
14097TIP3    H142234   8.168   0.731   0.844
14097TIP3    H242235   8.171   0.777   0.988
14098TIP3   OH242236   3.565   7.031   2.256
14098TIP3    H142237   3.590   6.985   2.176
14098TIP3    H242238   3.524   7.112   2.227
14099TIP3   OH242239   1.500   2.712   3.505
14099TIP3    H142240   1.429   2.775   3.518
14099TIP3    H242241   1.578   2.757   3.537
14100TIP3   OH242242   3.349   1.607   6.415
14100TIP3    H142243   3.348   1.514   6.393
14100TIP3    H242244   3.396   1.649   6.343
14101TIP3   OH242245   1.342   2.160   5.628
14101TIP3    H142246   1.263   2.137   5.578
14101TIP3    H242247   1.409   2.101   5.594
14102TIP3   OH242248   2.472   6.245   6.689
14102TIP3    H142249   2.454   6.152   6.678
14102TIP3    H242250   2.400   6.277   6.744
14103TIP3   OH242251   7.374   5.891   4.293
14103TIP3    H142252   7.317   5.827   4.335
14103TIP3    H242253   7.322   5.971   4.289
14104TIP3   OH242254   6.413   6.635   4.613
14104TIP3    H142255   6.505   6.609   4.622
14104TIP3    H242256   6.369   6.595   4.687
14105TIP3   OH242257   6.082   0.779   2.243
14105TIP3    H142258   6.034   0.860   2.258
14105TIP3    H242259   6.121   0.758   2.328
14106TIP3   OH242260   1.049   4.617   4.161
14106TIP3    H142261   0.957   4.603   4.183
14106TIP3    H242262   1.091   4.532   4.178
14107TIP3   OH242263   4.697   5.575   4.847
14107TIP3    H142264   4.612   5.573   4.891
14107TIP3    H242265   4.759   5.592   4.917
14108TIP3   OH242266   2.932   4.729   1.814
14108TIP3    H142267   2.859   4.694   1.764
14108TIP3    H242268   2.900   4.811   1.850
14109TIP3   OH242269   1.481   0.401   4.346
14109TIP3    H142270   1.485   0.308   4.323
14109TIP3    H242271   1.572   0.430   4.341
14110TIP3   OH242272   3.388   5.712   0.140
14110TIP3    H142273   3.478   5.708   0.109
14110TIP3    H242274   3.386   5.655   0.216
14111TIP3   OH242275   4.940   1.022   0.850
14111TIP3    H142276   4.915   1.069   0.771
14111TIP3    H242277   5.014   0.967   0.823
14112TIP3   OH242278   3.984   5.191   5.000
14112TIP3    H142279   3.941   5.150   5.075
14112TIP3    H242280   3.996   5.283   5.027
14113TIP3   OH242281   3.953   7.378   1.885
14113TIP3    H142282   4.006   7.406   1.959
14113TIP3    H242283   3.963   7.282   1.882
14114TIP3   OH242284   3.421   1.302   3.076
14114TIP3    H142285   3.381   1.367   3.133
14114TIP3    H242286   3.418   1.221   3.127
14115TIP3   OH242287   0.509   0.147   6.216
14115TIP3    H142288   0.529   0.197   6.295
14115TIP3    H242289   0.581   0.085   6.207
14116TIP3   OH242290   2.422   6.346   0.976
14116TIP3    H142291   2.470   6.422   0.943
14116TIP3    H242292   2.331   6.362   0.951
14117TIP3   OH242293   2.531   0.277   4.764
14117TIP3    H142294   2.613   0.303   4.722
14117TIP3    H242295   2.553   0.267   4.856
14118TIP3   OH242296   2.471   0.679   2.146
14118TIP3    H142297   2.463   0.737   2.070
14118TIP3    H242298   2.564   0.681   2.167
14119TIP3   OH242299   0.448   2.090   6.330
14119TIP3    H142300   0.405   2.034   6.265
14119TIP3    H242301   0.383   2.158   6.350
14120TIP3   OH242302   8.216   1.217   3.790
14120TIP3    H142303   8.241   1.127   3.810
14120TIP3    H242304   8.243   1.267   3.867
14121TIP3   OH242305   4.639   2.231   4.775
14121TIP3    H142306   4.607   2.141   4.764
14121TIP3    H242307   4.700   2.244   4.702
14122TIP3   OH242308   6.771   7.017   5.921
14122TIP3    H142309   6.732   6.982   6.002
14122TIP3    H242310   6.768   6.943   5.860
14123TIP3   OH242311   6.221   1.480   6.306
14123TIP3    H142312   6.227   1.564   6.261
14123TIP3    H242313   6.263   1.418   6.245
14124TIP3   OH242314   5.273   1.723   5.862
14124TIP3    H142315   5.330   1.788   5.904
14124TIP3    H242316   5.207   1.774   5.816
14125TIP3   OH242317   7.049   3.853   5.072
14125TIP3    H142318   7.004   3.922   5.120
14125TIP3    H242319   7.089   3.799   5.140
14126TIP3   OH242320   1.170   1.418   0.109
14126TIP3    H142321   1.131   1.500   0.080
14126TIP3    H242322   1.103   1.378   0.164
14127TIP3   OH242323   2.639   2.220   6.332
14127TIP3    H142324   2.620   2.149   6.271
14127TIP3    H242325   2.728   2.247   6.311
14128TIP3   OH242326   6.506   0.818   0.284
14128TIP3    H142327   6.467   0.768   0.213
14128TIP3    H242328   6.440   0.885   0.305
14129TIP3   OH242329   6.446   6.047   1.848
14129TIP3    H142330   6.501   6.114   1.808
14129TIP3    H242331   6.454   5.971   1.790
14130TIP3   OH242332   4.548   4.744   6.604
14130TIP3    H142333   4.533   4.756   6.697
14130TIP3    H242334   4.560   4.832   6.569
14131TIP3   OH242335   3.904   7.384   0.216
14131TIP3    H142336   3.841   7.443   0.257
14131TIP3    H242337   3.851   7.311   0.184
14132TIP3   OH242338   4.258   0.378   0.273
14132TIP3    H142339   4.180   0.323   0.271
14132TIP3    H242340   4.235   0.451   0.330
14133TIP3   OH242341   6.512   7.693   5.676
14133TIP3    H142342   6.598   7.734   5.689
14133TIP3    H242343   6.513   7.616   5.733
14134TIP3   OH242344   1.841   5.004   1.773
14134TIP3    H142345   1.783   4.942   1.818
14134TIP3    H242346   1.849   4.969   1.684
14135TIP3   OH242347   5.661   6.464   3.045
14135TIP3    H142348   5.735   6.410   3.018
14135TIP3    H242349   5.605   6.469   2.967
14136TIP3   OH242350   0.151   5.972   6.472
14136TIP3    H142351   0.175   5.935   6.557
14136TIP3    H242352   0.090   6.043   6.493
14137TIP3   OH242353   7.727   4.258   5.757
14137TIP3    H142354   7.739   4.219   5.671
14137TIP3    H242355   7.816   4.267   5.793
14138TIP3   OH242356   6.610   5.338   1.797
14138TIP3    H142357   6.649   5.263   1.842
14138TIP3    H242358   6.523   5.307   1.770
14139TIP3   OH242359   8.313   6.282   4.297
14139TIP3    H142360   8.342   6.257   4.384
14139TIP3    H242361   8.232   6.331   4.311
14140TIP3   OH242362   1.942   3.283   0.396
14140TIP3    H142363   2.001   3.302   0.469
14140TIP3    H242364   1.900   3.366   0.376
14141TIP3   OH242365   0.032   7.193   0.126
14141TIP3    H142366  -0.055   7.175   0.163
14141TIP3    H242367   0.049   7.284   0.151
14142TIP3   OH242368   2.239   7.413   2.964
14142TIP3    H142369   2.196   7.493   2.933
14142TIP3    H242370   2.331   7.438   2.975
14143TIP3   OH242371   0.940   6.370   2.294
14143TIP3    H142372   1.033   6.383   2.313
14143TIP3    H242373   0.895   6.396   2.374
14144TIP3   OH242374   0.054   3.964   2.089
14144TIP3    H142375   0.030   3.893   2.149
14144TIP3    H242376   0.117   3.925   2.028
14145TIP3   OH242377   5.016   6.262   5.271
14145TIP3    H142378   5.109   6.240   5.263
14145TIP3    H242379   4.990   6.290   5.184
14146TIP3   OH242380   1.842   7.438   3.610
14146TIP3    H142381   1.913   7.377   3.591
14146TIP3    H242382   1.879   7.500   3.673
14147TIP3   OH242383   0.539   6.475   1.140
14147TIP3    H142384   0.580   6.550   1.184
14147TIP3    H242385   0.529   6.503   1.049
14148TIP3   OH242386   4.513   5.215   5.539
14148TIP3    H142387   4.560   5.297   5.521
14148TIP3    H242388   4.505   5.212   5.634
14149TIP3   OH242389   3.394   3.774   5.338
14149TIP3    H142390   3.424   3.743   5.424
14149TIP3    H242391   3.450   3.848   5.318
14150TIP3   OH242392   6.876   1.824   2.856
14150TIP3    H142393   6.868   1.918   2.874
14150TIP3    H242394   6.788   1.790   2.868
14151TIP3   OH242395   1.040   1.503   6.758
14151TIP3    H142396   1.095   1.577   6.783
14151TIP3    H242397   1.053   1.494   6.663
14152TIP3   OH242398   2.878   2.481   6.737
14152TIP3    H142399   2.905   2.393   6.709
14152TIP3    H242400   2.792   2.469   6.776
14153TIP3   OH242401   7.419   7.748   4.631
14153TIP3    H142402   7.424   7.664   4.678
14153TIP3    H242403   7.325   7.764   4.622
14154TIP3   OH242404   7.814   0.914   6.160
14154TIP3    H142405   7.893   0.966   6.150
14154TIP3    H242406   7.789   0.926   6.252
14155TIP3   OH242407   5.855   5.376   4.462
14155TIP3    H142408   5.937   5.330   4.481
14155TIP3    H242409   5.865   5.461   4.505
14156TIP3   OH242410   2.148   5.794   4.853
14156TIP3    H142411   2.082   5.739   4.810
14156TIP3    H242412   2.124   5.883   4.829
14157TIP3   OH242413   5.976   6.984   0.860
14157TIP3    H142414   6.064   7.019   0.877
14157TIP3    H242415   5.936   6.977   0.946
14158TIP3   OH242416   2.392   0.100   1.143
14158TIP3    H142417   2.447   0.031   1.178
14158TIP3    H242418   2.303   0.067   1.148
14159TIP3   OH242419   2.425   2.353   0.331
14159TIP3    H142420   2.332   2.361   0.312
14159TIP3    H242421   2.467   2.344   0.245
14160TIP3   OH242422   5.534   5.334   4.140
14160TIP3    H142423   5.623   5.334   4.177
14160TIP3    H242424   5.536   5.266   4.073
14161TIP3   OH242425   6.567   1.046   1.388
14161TIP3    H142426   6.522   1.130   1.374
14161TIP3    H242427   6.614   1.058   1.471
14162TIP3   OH242428   0.753   4.353   3.969
14162TIP3    H142429   0.795   4.339   4.053
14162TIP3    H242430   0.709   4.270   3.950
14163TIP3   OH242431   5.026   7.485   4.879
14163TIP3    H142432   5.055   7.576   4.875
14163TIP3    H242433   5.076   7.441   4.810
14164TIP3   OH242434   4.405   3.911   2.859
14164TIP3    H142435   4.409   3.816   2.871
14164TIP3    H242436   4.357   3.943   2.936
14165TIP3   OH242437   0.573   5.927   3.124
14165TIP3    H142438   0.495   5.910   3.175
14165TIP3    H242439   0.559   5.879   3.042
14166TIP3   OH242440   1.914   5.312   4.599
14166TIP3    H142441   1.938   5.390   4.649
14166TIP3    H242442   1.880   5.346   4.517
14167TIP3   OH242443   2.573   6.158   2.708
14167TIP3    H142444   2.485   6.160   2.746
14167TIP3    H242445   2.582   6.242   2.663
14168TIP3   OH242446   4.600   6.775   5.533
14168TIP3    H142447   4.587   6.705   5.469
14168TIP3    H242448   4.635   6.848   5.482
14169TIP3   OH242449   6.669   5.549   3.251
14169TIP3    H142450   6.733   5.488   3.289
14169TIP3    H242451   6.670   5.529   3.158
14170TIP3   OH242452   4.729   2.058   2.585
14170TIP3    H142453   4.668   1.986   2.565
14170TIP3    H242454   4.672   2.130   2.613
14171TIP3   OH242455   4.070   3.029   4.680
14171TIP3    H142456   3.978   3.013   4.703
14171TIP3    H242457   4.084   2.977   4.601
14172TIP3   OH242458   7.633   5.317   1.087
14172TIP3    H142459   7.587   5.298   1.169
14172TIP3    H242460   7.569   5.297   1.019
14173TIP3   OH242461   7.395   0.576   3.354
14173TIP3    H142462   7.392   0.490   3.396
14173TIP3    H242463   7.348   0.563   3.271
14174TIP3   OH242464   1.971   5.788   6.320
14174TIP3    H142465   1.916   5.737   6.260
14174TIP3    H242466   2.054   5.798   6.274
14175TIP3   OH242467   5.054   1.868   5.726
14175TIP3    H142468   5.064   1.897   5.636
14175TIP3    H242469   4.960   1.866   5.741
14176TIP3   OH242470   6.822   3.255   5.925
14176TIP3    H142471   6.893   3.193   5.910
14176TIP3    H242472   6.839   3.292   6.011
14177TIP3   OH242473   7.728   6.083   5.606
14177TIP3    H142474   7.769   6.165   5.576
14177TIP3    H242475   7.668   6.111   5.675
14178TIP3   OH242476   2.332   0.740   5.756
14178TIP3    H142477   2.345   0.835   5.761
14178TIP3    H242478   2.377   0.714   5.676
14179TIP3   OH242479   2.069   3.370   5.932
14179TIP3    H142480   2.068   3.408   5.844
14179TIP3    H242481   2.156   3.392   5.966
14180TIP3   OH242482   0.996   7.469   6.255
14180TIP3    H142483   0.972   7.531   6.186
14180TIP3    H242484   1.013   7.387   6.209
14181TIP3   OH242485   6.529   2.415   2.147
14181TIP3    H142486   6.474   2.459   2.081
14181TIP3    H242487   6.556   2.334   2.106
14182TIP3   OH242488   6.051   3.999   6.523
14182TIP3    H142489   5.960   4.028   6.534
14182TIP3    H242490   6.062   3.991   6.428
14183TIP3   OH242491   6.989   4.952   0.651
14183TIP3    H142492   7.054   4.895   0.610
14183TIP3    H242493   6.958   4.902   0.726
14184TIP3   OH242494   0.298   0.467   0.008
14184TIP3    H142495   0.235   0.414  -0.041
14184TIP3    H242496   0.344   0.404   0.063
14185TIP3   OH242497   3.482   4.162   6.697
14185TIP3    H142498   3.524   4.084   6.731
14185TIP3    H242499   3.553   4.226   6.686
14186TIP3   OH242500   3.141   6.164   6.190
14186TIP3    H142501   3.073   6.230   6.204
14186TIP3    H242502   3.223   6.209   6.209
14187TIP3   OH242503   2.750   0.234   3.375
14187TIP3    H142504   2.766   0.191   3.291
14187TIP3    H242505   2.832   0.278   3.395
14188TIP3   OH242506   1.950   2.806   3.836
14188TIP3    H142507   2.005   2.875   3.873
14188TIP3    H242508   1.867   2.813   3.883
14189TIP3   OH242509   1.153   6.059   2.163
14189TIP3    H142510   1.189   5.986   2.213
14189TIP3    H242511   1.202   6.135   2.193
14190TIP3   OH242512   2.408   1.909   4.152
14190TIP3    H142513   2.481   1.959   4.115
14190TIP3    H242514   2.428   1.818   4.131
14191TIP3   OH242515   0.961   0.088   2.056
14191TIP3    H142516   0.899   0.142   2.106
14191TIP3    H242517   0.916   0.070   1.974
14192TIP3   OH242518   6.973   6.449   2.659
14192TIP3    H142519   7.035   6.386   2.696
14192TIP3    H242520   6.988   6.530   2.709
14193TIP3   OH242521   3.683   0.901   6.159
14193TIP3    H142522   3.741   0.853   6.100
14193TIP3    H242523   3.687   0.991   6.128
14194TIP3   OH242524   0.222   3.626   5.702
14194TIP3    H142525   0.142   3.671   5.729
14194TIP3    H242526   0.292   3.684   5.730
14195TIP3   OH242527   0.428   1.718   6.179
14195TIP3    H142528   0.479   1.659   6.124
14195TIP3    H242529   0.411   1.668   6.259
14196TIP3   OH242530   6.078   5.473   2.243
14196TIP3    H142531   6.170   5.449   2.229
14196TIP3    H242532   6.040   5.472   2.155
14197TIP3   OH242533   4.547   3.403   5.459
14197TIP3    H142534   4.506   3.413   5.373
14197TIP3    H242535   4.474   3.389   5.519
14198TIP3   OH242536   3.608   0.221   4.557
14198TIP3    H142537   3.574   0.196   4.472
14198TIP3    H242538   3.571   0.308   4.573
14199TIP3   OH242539   1.872   4.858   0.525
14199TIP3    H142540   1.962   4.851   0.496
14199TIP3    H242541   1.837   4.935   0.479
14200TIP3   OH242542   2.099   3.590   1.040
14200TIP3    H142543   2.103   3.500   1.074
14200TIP3    H242544   2.022   3.590   0.983
14201TIP3   OH242545   5.909   4.672   1.303
14201TIP3    H142546   5.995   4.636   1.283
14201TIP3    H242547   5.850   4.633   1.239
14202TIP3   OH242548   4.561   3.587   3.524
14202TIP3    H142549   4.561   3.682   3.519
14202TIP3    H242550   4.481   3.561   3.478
14203TIP3   OH242551   6.604   1.454   5.191
14203TIP3    H142552   6.545   1.529   5.180
14203TIP3    H242553   6.569   1.407   5.267
14204TIP3   OH242554   2.143   5.171   3.435
14204TIP3    H142555   2.065   5.116   3.425
14204TIP3    H242556   2.125   5.224   3.513
14205TIP3   OH242557   0.633   6.458   6.549
14205TIP3    H142558   0.585   6.533   6.514
14205TIP3    H242559   0.687   6.427   6.476
14206TIP3   OH242560   0.738   3.497   3.415
14206TIP3    H142561   0.828   3.503   3.384
14206TIP3    H242562   0.698   3.580   3.389
14207TIP3   OH242563   2.517   4.039   0.881
14207TIP3    H142564   2.604   4.047   0.842
14207TIP3    H242565   2.498   3.946   0.879
14208TIP3   OH242566   4.030   1.461   3.215
14208TIP3    H142567   3.942   1.424   3.212
14208TIP3    H242568   4.086   1.388   3.240
14209TIP3   OH242569   4.085   0.632   4.475
14209TIP3    H142570   3.995   0.603   4.456
14209TIP3    H242571   4.125   0.558   4.519
14210TIP3   OH242572   6.807   0.176   6.252
14210TIP3    H142573   6.847   0.252   6.209
14210TIP3    H242574   6.880   0.135   6.299
14211TIP3   OH242575   0.792   4.534   1.134
14211TIP3    H142576   0.771   4.557   1.224
14211TIP3    H242577   0.735   4.590   1.081
14212TIP3   OH242578   4.972   1.034   1.405
14212TIP3    H142579   4.929   1.060   1.324
14212TIP3    H242580   5.029   1.107   1.428
14213TIP3   OH242581   5.920   0.846   2.844
14213TIP3    H142582   6.008   0.878   2.864
14213TIP3    H242583   5.864   0.923   2.851
14214TIP3   OH242584   6.159   4.857   3.957
14214TIP3    H142585   6.230   4.808   3.915
14214TIP3    H242586   6.192   4.947   3.961
14215TIP3   OH242587   5.711   6.396   2.519
14215TIP3    H142588   5.752   6.310   2.507
14215TIP3    H242589   5.629   6.390   2.469
14216TIP3   OH242590   5.096   5.747   3.014
14216TIP3    H142591   5.135   5.810   3.075
14216TIP3    H242592   5.001   5.758   3.025
14217TIP3   OH242593   4.450   1.901   1.997
14217TIP3    H142594   4.443   1.889   1.902
14217TIP3    H242595   4.372   1.951   2.021
14218TIP3   OH242596   7.410   6.860   0.120
14218TIP3    H142597   7.319   6.844   0.092
14218TIP3    H242598   7.445   6.773   0.137
14219TIP3   OH242599   0.429   6.861   3.471
14219TIP3    H142600   0.479   6.942   3.462
14219TIP3    H242601   0.386   6.869   3.556
14220TIP3   OH242602   3.454   6.436   3.565
14220TIP3    H142603   3.438   6.343   3.581
14220TIP3    H242604   3.415   6.452   3.479
14221TIP3   OH242605   2.962   0.435   0.944
14221TIP3    H142606   3.023   0.499   0.981
14221TIP3    H242607   3.012   0.389   0.878
14222TIP3   OH242608   7.885   5.039   2.870
14222TIP3    H142609   7.930   5.059   2.788
14222TIP3    H242610   7.905   4.947   2.886
14223TIP3   OH242611   0.584   2.959   4.437
14223TIP3    H142612   0.558   3.034   4.490
14223TIP3    H242613   0.651   2.915   4.490
14224TIP3   OH242614   3.943   2.636   2.414
14224TIP3    H142615   3.955   2.725   2.381
14224TIP3    H242616   4.028   2.594   2.403
14225TIP3   OH242617   2.425   1.122   6.081
14225TIP3    H142618   2.476   1.202   6.087
14225TIP3    H242619   2.435   1.080   6.167
14226TIP3   OH242620   4.688   1.977   1.558
14226TIP3    H142621   4.654   1.896   1.596
14226TIP3    H242622   4.781   1.976   1.579
14227TIP3   OH242623   5.372   2.941   6.684
14227TIP3    H142624   5.332   2.863   6.723
14227TIP3    H242625   5.306   3.010   6.694
14228TIP3   OH242626   2.338   3.538   5.565
14228TIP3    H142627   2.247   3.510   5.577
14228TIP3    H242628   2.390   3.465   5.599
14229TIP3   OH242629   6.986   6.644   3.779
14229TIP3    H142630   6.906   6.595   3.758
14229TIP3    H242631   6.955   6.732   3.799
14230TIP3   OH242632   4.218   1.396   2.728
14230TIP3    H142633   4.275   1.464   2.763
14230TIP3    H242634   4.277   1.337   2.681
14231TIP3   OH242635   0.665   6.061   1.381
14231TIP3    H142636   0.682   6.062   1.476
14231TIP3    H242637   0.719   6.132   1.347
14232TIP3   OH242638   3.343   4.364   2.839
14232TIP3    H142639   3.426   4.391   2.879
14232TIP3    H242640   3.350   4.391   2.748
14233TIP3   OH242641   1.957   7.511   4.824
14233TIP3    H142642   1.949   7.420   4.855
14233TIP3    H242643   2.050   7.532   4.834
14234TIP3   OH242644   5.141   1.246   3.183
14234TIP3    H142645   5.100   1.333   3.193
14234TIP3    H242646   5.202   1.240   3.256
14235TIP3   OH242647   5.816   6.966   4.120
14235TIP3    H142648   5.729   6.946   4.084
14235TIP3    H242649   5.828   6.903   4.191
14236TIP3   OH242650   0.931   6.850   4.871
14236TIP3    H142651   0.969   6.916   4.929
14236TIP3    H242652   0.837   6.867   4.873
14237TIP3   OH242653   1.655   0.839   5.125
14237TIP3    H142654   1.643   0.934   5.121
14237TIP3    H242655   1.573   0.803   5.092
14238TIP3   OH242656   6.044   3.868   1.547
14238TIP3    H142657   6.031   3.781   1.585
14238TIP3    H242658   5.958   3.908   1.548
14239TIP3   OH242659   4.239   4.669   6.554
14239TIP3    H142660   4.246   4.582   6.594
14239TIP3    H242661   4.329   4.701   6.553
14240TIP3   OH242662   6.436   7.082   4.517
14240TIP3    H142663   6.358   7.114   4.472
14240TIP3    H242664   6.405   7.054   4.603
14241TIP3   OH242665   2.736   3.996   1.644
14241TIP3    H142666   2.736   4.017   1.551
14241TIP3    H242667   2.703   4.076   1.686
14242TIP3   OH242668   0.592   4.360   0.218
14242TIP3    H142669   0.648   4.418   0.270
14242TIP3    H242670   0.509   4.406   0.211
14243TIP3   OH242671   4.700   4.672   3.300
14243TIP3    H142672   4.782   4.712   3.331
14243TIP3    H242673   4.635   4.741   3.310
14244TIP3   OH242674   2.133   5.287   5.192
14244TIP3    H142675   2.109   5.375   5.220
14244TIP3    H242676   2.143   5.293   5.097
14245TIP3   OH242677   3.820   4.264   0.940
14245TIP3    H142678   3.730   4.287   0.960
14245TIP3    H242679   3.872   4.303   1.011
14246TIP3   OH242680   3.318   3.546   0.194
14246TIP3    H142681   3.291   3.485   0.126
14246TIP3    H242682   3.407   3.571   0.169
14247TIP3   OH242683   2.430   4.455   2.322
14247TIP3    H142684   2.464   4.416   2.241
14247TIP3    H242685   2.353   4.505   2.294
14248TIP3   OH242686   3.583   6.991   0.507
14248TIP3    H142687   3.489   6.974   0.495
14248TIP3    H242688   3.598   6.971   0.600
14249TIP3   OH242689   6.840   2.426   6.420
14249TIP3    H142690   6.875   2.348   6.376
14249TIP3    H242691   6.832   2.491   6.350
14250TIP3   OH242692   3.625   1.771   0.423
14250TIP3    H142693   3.720   1.778   0.429
14250TIP3    H242694   3.601   1.831   0.352
14251TIP3   OH242695   6.230   0.511   6.536
14251TIP3    H142696   6.224   0.576   6.606
14251TIP3    H242697   6.208   0.428   6.579
14252TIP3   OH242698   5.946   6.637   2.034
14252TIP3    H142699   5.911   6.548   2.041
14252TIP3    H242700   5.996   6.637   1.952
14253TIP3   OH242701   1.483   1.383   5.028
14253TIP3    H142702   1.443   1.451   4.974
14253TIP3    H242703   1.476   1.417   5.118
14254TIP3   OH242704   1.692   7.323   0.231
14254TIP3    H142705   1.654   7.295   0.147
14254TIP3    H242706   1.691   7.244   0.285
14255TIP3   OH242707   0.196   4.202   2.653
14255TIP3    H142708   0.111   4.168   2.682
14255TIP3    H242709   0.191   4.296   2.670
14256TIP3   OH242710   5.902   0.170   3.348
14256TIP3    H142711   5.963   0.212   3.408
14256TIP3    H242712   5.958   0.119   3.289
14257TIP3   OH242713   6.511   3.375   1.338
14257TIP3    H142714   6.575   3.304   1.346
14257TIP3    H242715   6.536   3.437   1.406
14258TIP3   OH242716   5.850   4.235   4.628
14258TIP3    H142717   5.796   4.300   4.582
14258TIP3    H242718   5.794   4.158   4.634
14259TIP3   OH242719   2.744   0.680   3.757
14259TIP3    H142720   2.800   0.684   3.679
14259TIP3    H242721   2.798   0.719   3.827
14260TIP3   OH242722   2.339   4.707   3.985
14260TIP3    H142723   2.361   4.797   3.963
14260TIP3    H242724   2.375   4.695   4.073
14261TIP3   OH242725   4.406   1.467   4.309
14261TIP3    H142726   4.482   1.468   4.250
14261TIP3    H242727   4.342   1.412   4.264
14262TIP3   OH242728   2.873   4.689   4.591
14262TIP3    H142729   2.850   4.754   4.524
14262TIP3    H242730   2.884   4.607   4.542
14263TIP3   OH242731   2.759   1.634   0.518
14263TIP3    H142732   2.765   1.692   0.594
14263TIP3    H242733   2.716   1.555   0.552
14264TIP3   OH242734   2.907   1.687   2.531
14264TIP3    H142735   2.922   1.719   2.442
14264TIP3    H242736   2.837   1.743   2.565
14265TIP3   OH242737   2.630   1.956   3.555
14265TIP3    H142738   2.609   1.873   3.598
14265TIP3    H242739   2.585   1.951   3.471
14266TIP3   OH242740   5.283   4.236   5.071
14266TIP3    H142741   5.194   4.228   5.105
14266TIP3    H242742   5.312   4.322   5.100
14267TIP3   OH242743   2.111   5.967   6.760
14267TIP3    H142744   2.041   5.918   6.802
14267TIP3    H242745   2.067   6.022   6.695
14268TIP3   OH242746   3.685   5.597   1.225
14268TIP3    H142747   3.651   5.605   1.314
14268TIP3    H242748   3.712   5.505   1.218
14269TIP3   OH242749   0.557   0.566   2.674
14269TIP3    H142750   0.482   0.521   2.635
14269TIP3    H242751   0.576   0.517   2.754
14270TIP3   OH242752   3.611   2.317   6.310
14270TIP3    H142753   3.657   2.377   6.369
14270TIP3    H242754   3.607   2.235   6.359
14271TIP3   OH242755   7.053   6.825   6.002
14271TIP3    H142756   7.066   6.873   6.084
14271TIP3    H242757   7.095   6.880   5.936
14272TIP3   OH242758   3.309   5.876   5.162
14272TIP3    H142759   3.299   5.786   5.191
14272TIP3    H242760   3.363   5.870   5.082
14273TIP3   OH242761   5.624   0.575   4.540
14273TIP3    H142762   5.684   0.508   4.506
14273TIP3    H242763   5.627   0.564   4.635
14274TIP3   OH242764   5.464   4.319   5.968
14274TIP3    H142765   5.536   4.380   5.984
14274TIP3    H242766   5.405   4.367   5.910
14275TIP3   OH242767   1.407   3.244   0.911
14275TIP3    H142768   1.418   3.323   0.859
14275TIP3    H242769   1.446   3.175   0.857
14276TIP3   OH242770   2.817   5.478   3.728
14276TIP3    H142771   2.899   5.451   3.687
14276TIP3    H242772   2.805   5.568   3.700
14277TIP3   OH242773   3.926   5.747   3.106
14277TIP3    H142774   3.852   5.690   3.087
14277TIP3    H242775   3.905   5.830   3.064
14278TIP3   OH242776   6.482   3.137   5.225
14278TIP3    H142777   6.428   3.061   5.243
14278TIP3    H242778   6.420   3.210   5.219
14279TIP3   OH242779   6.372   3.967   3.034
14279TIP3    H142780   6.331   4.018   2.964
14279TIP3    H242781   6.466   3.980   3.022
14280TIP3   OH242782   5.475   0.419   6.197
14280TIP3    H142783   5.533   0.369   6.254
14280TIP3    H242784   5.387   0.395   6.227
14281TIP3   OH242785   1.472   5.941   0.015
14281TIP3    H142786   1.416   5.978   0.083
14281TIP3    H242787   1.422   5.868  -0.022
14282TIP3   OH242788   6.111   7.723   1.410
14282TIP3    H142789   6.052   7.779   1.360
14282TIP3    H242790   6.188   7.778   1.426
14283TIP3   OH242791   2.771   3.868   3.438
14283TIP3    H142792   2.712   3.929   3.394
14283TIP3    H242793   2.795   3.805   3.370
14284TIP3   OH242794   0.671   3.115   5.685
14284TIP3    H142795   0.607   3.055   5.724
14284TIP3    H242796   0.744   3.115   5.747
14285TIP3   OH242797   8.084   0.974   1.729
14285TIP3    H142798   8.072   0.882   1.753
14285TIP3    H242799   8.179   0.987   1.729
14286TIP3   OH242800   3.738   3.288   4.197
14286TIP3    H142801   3.674   3.247   4.254
14286TIP3    H242802   3.820   3.286   4.246
14287TIP3   OH242803   7.862   3.658   4.250
14287TIP3    H142804   7.844   3.565   4.260
14287TIP3    H242805   7.881   3.669   4.157
14288TIP3   OH242806   7.431   0.764   2.948
14288TIP3    H142807   7.467   0.679   2.922
14288TIP3    H242808   7.337   0.747   2.958
14289TIP3   OH242809   1.430   5.608   4.970
14289TIP3    H142810   1.446   5.514   4.956
14289TIP3    H242811   1.335   5.616   4.970
14290TIP3   OH242812   1.496   1.160   2.639
14290TIP3    H142813   1.479   1.122   2.725
14290TIP3    H242814   1.588   1.139   2.622
14291TIP3   OH242815   2.437   2.916   3.229
14291TIP3    H142816   2.510   2.860   3.255
14291TIP3    H242817   2.412   2.961   3.310
14292TIP3   OH242818   5.127   2.610   6.503
14292TIP3    H142819   5.069   2.685   6.495
14292TIP3    H242820   5.183   2.615   6.425
14293TIP3   OH242821   3.760   6.732   3.779
14293TIP3    H142822   3.804   6.814   3.756
14293TIP3    H242823   3.675   6.737   3.737
14294TIP3   OH242824   3.049   7.458   5.098
14294TIP3    H142825   3.127   7.465   5.043
14294TIP3    H242826   3.081   7.420   5.180
14295TIP3   OH242827   0.606   0.626   6.113
14295TIP3    H142828   0.559   0.545   6.091
14295TIP3    H242829   0.669   0.638   6.042
14296TIP3   OH242830   2.713   2.981   1.987
14296TIP3    H142831   2.648   3.026   2.041
14296TIP3    H242832   2.785   3.043   1.979
14297TIP3   OH242833   7.048   1.217   6.029
14297TIP3    H142834   6.973   1.258   6.071
14297TIP3    H242835   7.124   1.258   6.070
14298TIP3   OH242836   4.852   3.052   6.759
14298TIP3    H142837   4.826   3.042   6.668
14298TIP3    H242838   4.777   3.021   6.810
14299TIP3   OH242839   4.553   3.791   3.148
14299TIP3    H142840   4.537   3.850   3.221
14299TIP3    H242841   4.562   3.705   3.188
14300TIP3   OH242842   7.032   4.425   6.780
14300TIP3    H142843   7.074   4.355   6.830
14300TIP3    H242844   6.988   4.380   6.708
14301TIP3   OH242845   1.037   6.176   1.749
14301TIP3    H142846   1.123   6.167   1.790
14301TIP3    H242847   1.015   6.269   1.760
14302TIP3   OH242848   1.230   1.638   1.002
14302TIP3    H142849   1.307   1.582   1.002
14302TIP3    H242850   1.222   1.669   0.912
14303TIP3   OH242851   5.666   6.297   4.827
14303TIP3    H142852   5.694   6.216   4.784
14303TIP3    H242853   5.608   6.267   4.898
14304TIP3   OH242854   6.725   3.030   5.245
14304TIP3    H142855   6.649   3.085   5.262
14304TIP3    H242856   6.783   3.045   5.320
14305TIP3   OH242857   6.446   7.236   1.154
14305TIP3    H142858   6.481   7.150   1.180
14305TIP3    H242859   6.500   7.299   1.201
14306TIP3   OH242860   2.787   2.826   5.867
14306TIP3    H142861   2.864   2.859   5.913
14306TIP3    H242862   2.815   2.818   5.776
14307TIP3   OH242863   3.016   0.352   0.673
14307TIP3    H142864   2.993   0.272   0.625
14307TIP3    H242865   2.981   0.423   0.619
14308TIP3   OH242866   4.606   7.511   0.832
14308TIP3    H142867   4.684   7.563   0.812
14308TIP3    H242868   4.610   7.500   0.927
14309TIP3   OH242869   2.269   1.774   5.485
14309TIP3    H142870   2.344   1.813   5.439
14309TIP3    H242871   2.308   1.715   5.549
14310TIP3   OH242872   3.063   1.554   3.096
14310TIP3    H142873   3.032   1.643   3.113
14310TIP3    H242874   3.139   1.544   3.153
14311TIP3   OH242875   5.889   7.142   4.332
14311TIP3    H142876   5.801   7.172   4.355
14311TIP3    H242877   5.875   7.080   4.260
14312TIP3   OH242878   1.662   5.350   3.203
14312TIP3    H142879   1.679   5.400   3.124
14312TIP3    H242880   1.588   5.293   3.180
14313TIP3   OH242881   7.648   3.820   5.143
14313TIP3    H142882   7.683   3.778   5.064
14313TIP3    H242883   7.709   3.794   5.213
14314TIP3   OH242884   2.812   7.725   1.494
14314TIP3    H142885   2.814   7.778   1.573
14314TIP3    H242886   2.882   7.661   1.505
14315TIP3   OH242887   2.480   5.989   6.438
14315TIP3    H142888   2.463   6.083   6.435
14315TIP3    H242889   2.428   5.953   6.366
14316TIP3   OH242890   5.771   5.559   3.816
14316TIP3    H142891   5.813   5.474   3.806
14316TIP3    H242892   5.797   5.608   3.738
14317TIP3   OH242893   7.554   7.624   3.924
14317TIP3    H142894   7.477   7.645   3.872
14317TIP3    H242895   7.603   7.561   3.871
14318TIP3   OH242896   8.217   3.127   3.532
14318TIP3    H142897   8.184   3.037   3.535
14318TIP3    H242898   8.305   3.119   3.493
14319TIP3   OH242899   6.307   0.028   5.642
14319TIP3    H142900   6.365   0.056   5.571
14319TIP3    H242901   6.219   0.036   5.605
14320TIP3   OH242902   0.838   4.288   2.938
14320TIP3    H142903   0.854   4.203   2.978
14320TIP3    H242904   0.750   4.280   2.900
14321TIP3   OH242905   3.602   3.440   1.931
14321TIP3    H142906   3.555   3.522   1.942
14321TIP3    H242907   3.638   3.445   1.842
14322TIP3   OH242908   0.011   4.624   5.898
14322TIP3    H142909   0.065   4.680   5.841
14322TIP3    H242910   0.007   4.672   5.981
14323TIP3   OH242911   1.070   6.208   4.141
14323TIP3    H142912   1.048   6.115   4.140
14323TIP3    H242913   1.108   6.224   4.055
14324TIP3   OH242914   0.129   4.315   1.514
14324TIP3    H142915   0.156   4.226   1.536
14324TIP3    H242916   0.034   4.309   1.500
14325TIP3   OH242917   5.055   5.353   5.807
14325TIP3    H142918   5.126   5.412   5.830
14325TIP3    H242919   4.990   5.365   5.877
14326TIP3   OH242920   3.200   3.747   6.663
14326TIP3    H142921   3.107   3.726   6.653
14326TIP3    H242922   3.201   3.826   6.718
14327TIP3   OH242923   0.022   2.785   1.904
14327TIP3    H142924   0.114   2.790   1.929
14327TIP3    H242925  -0.017   2.724   1.966
14328TIP3   OH242926   7.467   6.693   6.046
14328TIP3    H142927   7.512   6.621   6.003
14328TIP3    H242928   7.522   6.714   6.122
14329TIP3   OH242929   7.753   6.459   0.362
14329TIP3    H142930   7.664   6.494   0.368
14329TIP3    H242931   7.769   6.448   0.268
14330TIP3   OH242932   5.785   2.121   2.660
14330TIP3    H142933   5.755   2.089   2.745
14330TIP3    H242934   5.880   2.132   2.672
14331TIP3   OH242935   6.339   6.890   1.766
14331TIP3    H142936   6.426   6.927   1.752
14331TIP3    H242937   6.352   6.795   1.759
14332TIP3   OH242938   2.374   3.787   3.387
14332TIP3    H142939   2.381   3.879   3.416
14332TIP3    H242940   2.464   3.758   3.378
14333TIP3   OH242941   5.695   3.341   2.155
14333TIP3    H142942   5.682   3.384   2.071
14333TIP3    H242943   5.625   3.276   2.161
14334TIP3   OH242944   3.785   6.720   2.668
14334TIP3    H142945   3.770   6.627   2.685
14334TIP3    H242946   3.732   6.739   2.591
14335TIP3   OH242947   2.226   1.302   2.556
14335TIP3    H142948   2.174   1.319   2.477
14335TIP3    H242949   2.307   1.352   2.542
14336TIP3   OH242950   4.888   3.938   0.210
14336TIP3    H142951   4.851   3.941   0.121
14336TIP3    H242952   4.925   3.850   0.218
14337TIP3   OH242953   4.934   0.349   1.755
14337TIP3    H142954   4.945   0.437   1.717
14337TIP3    H242955   4.856   0.315   1.713
14338TIP3   OH242956   2.764   0.327   1.745
14338TIP3    H142957   2.760   0.233   1.730
14338TIP3    H242958   2.701   0.364   1.684
14339TIP3   OH242959   7.193   3.592   2.384
14339TIP3    H142960   7.114   3.630   2.421
14339TIP3    H242961   7.171   3.573   2.293
14340TIP3   OH242962   3.851   0.115   4.542
14340TIP3    H142963   3.756   0.126   4.543
14340TIP3    H242964   3.868   0.040   4.598
14341TIP3   OH242965   5.505   2.273   4.086
14341TIP3    H142966   5.591   2.276   4.043
14341TIP3    H242967   5.443   2.283   4.014
14342TIP3   OH242968   6.793   5.370   5.543
14342TIP3    H142969   6.746   5.360   5.460
14342TIP3    H242970   6.883   5.389   5.517
14343TIP3   OH242971   6.448   3.145   4.892
14343TIP3    H142972   6.537   3.125   4.922
14343TIP3    H242973   6.460   3.219   4.832
14344TIP3   OH242974   3.388   0.876   1.068
14344TIP3    H142975   3.458   0.918   1.020
14344TIP3    H242976   3.312   0.881   1.010
14345TIP3   OH242977   1.039   5.261   5.586
14345TIP3    H142978   1.097   5.216   5.647
14345TIP3    H242979   1.021   5.196   5.518
14346TIP3   OH242980   3.306   0.233   6.763
14346TIP3    H142981   3.229   0.290   6.768
14346TIP3    H242982   3.280   0.155   6.812
14347TIP3   OH242983   6.485   5.936   3.597
14347TIP3    H142984   6.462   5.899   3.682
14347TIP3    H242985   6.428   5.891   3.535
14348TIP3   OH242986   6.775   0.334   0.967
14348TIP3    H142987   6.854   0.289   0.939
14348TIP3    H242988   6.803   0.387   1.042
14349TIP3   OH242989   7.699   6.091   0.476
14349TIP3    H142990   7.793   6.082   0.489
14349TIP3    H242991   7.682   6.185   0.483
14350TIP3   OH242992   8.212   1.180   1.421
14350TIP3    H142993   8.126   1.188   1.378
14350TIP3    H242994   8.209   1.095   1.464
14351TIP3   OH242995   3.829   1.693   2.026
14351TIP3    H142996   3.840   1.670   2.118
14351TIP3    H242997   3.747   1.743   2.023
14352TIP3   OH242998   1.733   0.813   5.394
14352TIP3    H142999   1.690   0.817   5.308
14352TIP3    H243000   1.813   0.763   5.378
14353TIP3   OH243001   5.173   0.274   3.260
14353TIP3    H143002   5.221   0.248   3.182
14353TIP3    H243003   5.141   0.192   3.297
14354TIP3   OH243004   0.358   1.976   2.614
14354TIP3    H143005   0.399   1.919   2.550
14354TIP3    H243006   0.267   1.985   2.584
14355TIP3   OH243007   2.915   1.486   2.292
14355TIP3    H143008   2.879   1.529   2.370
14355TIP3    H243009   2.954   1.558   2.242
14356TIP3   OH243010   6.923   1.879   2.084
14356TIP3    H143011   6.931   1.860   2.178
14356TIP3    H243012   6.877   1.803   2.048
14357TIP3   OH243013   2.299   5.944   4.343
14357TIP3    H143014   2.298   6.029   4.300
14357TIP3    H243015   2.376   5.947   4.400
14358TIP3   OH243016   1.963   0.083   6.294
14358TIP3    H143017   1.996   0.070   6.206
14358TIP3    H243018   1.880   0.035   6.296
14359TIP3   OH243019   5.415   7.087   5.414
14359TIP3    H143020   5.397   7.111   5.505
14359TIP3    H243021   5.331   7.100   5.369
14360TIP3   OH243022   0.090   5.931   5.773
14360TIP3    H143023   0.102   6.020   5.740
14360TIP3    H243024   0.044   5.885   5.703
14361TIP3   OH243025   1.844   5.297   2.721
14361TIP3    H143026   1.876   5.246   2.646
14361TIP3    H243027   1.883   5.384   2.710
14362TIP3   OH243028   3.646   1.486   0.696
14362TIP3    H143029   3.644   1.451   0.785
14362TIP3    H243030   3.613   1.575   0.704
14363TIP3   OH243031   6.394   0.307   1.680
14363TIP3    H143032   6.332   0.236   1.692
14363TIP3    H243033   6.360   0.379   1.734
14364TIP3   OH243034   2.102   2.741   5.935
14364TIP3    H143035   2.111   2.709   5.845
14364TIP3    H243036   2.008   2.747   5.949
14365TIP3   OH243037   1.966   1.156   0.435
14365TIP3    H143038   1.924   1.155   0.522
14365TIP3    H243039   2.040   1.215   0.445
14366TIP3   OH243040   1.945   6.570   2.639
14366TIP3    H143041   1.928   6.664   2.630
14366TIP3    H243042   2.021   6.566   2.698
14367TIP3   OH243043   2.170   7.040   5.255
14367TIP3    H143044   2.074   7.045   5.259
14367TIP3    H243045   2.200   7.110   5.314
14368TIP3   OH243046   1.379   1.298   2.242
14368TIP3    H143047   1.471   1.273   2.251
14368TIP3    H243048   1.368   1.318   2.149
14369TIP3   OH243049   6.885   4.766   6.635
14369TIP3    H143050   6.838   4.842   6.600
14369TIP3    H243051   6.976   4.781   6.612
14370TIP3   OH243052   4.672   6.977   6.638
14370TIP3    H143053   4.756   7.015   6.612
14370TIP3    H243054   4.650   6.916   6.568
14371TIP3   OH243055   1.206   6.747   2.297
14371TIP3    H143056   1.135   6.725   2.237
14371TIP3    H243057   1.191   6.692   2.373
14372TIP3   OH243058   2.688   0.800   6.002
14372TIP3    H143059   2.763   0.746   6.028
14372TIP3    H243060   2.712   0.832   5.915
14373TIP3   OH243061   0.711   6.656   3.374
14373TIP3    H143062   0.668   6.597   3.436
14373TIP3    H243063   0.671   6.634   3.289
14374TIP3   OH243064   4.435   4.422   2.969
14374TIP3    H143065   4.473   4.341   2.935
14374TIP3    H243066   4.345   4.398   2.992
14375TIP3   OH243067   3.873   0.980   3.861
14375TIP3    H143068   3.821   0.954   3.786
14375TIP3    H243069   3.956   0.933   3.851
14376TIP3   OH243070   6.051   0.360   1.206
14376TIP3    H143071   5.959   0.360   1.232
14376TIP3    H243072   6.072   0.267   1.192
14377TIP3   OH243073   6.972   4.569   1.961
14377TIP3    H143074   6.905   4.510   1.996
14377TIP3    H243075   6.925   4.649   1.938
14378TIP3   OH243076   3.046   3.728   4.085
14378TIP3    H143077   3.021   3.743   4.176
14378TIP3    H243078   3.069   3.635   4.081
14379TIP3   OH243079   6.150   2.301   1.007
14379TIP3    H143080   6.166   2.308   1.101
14379TIP3    H243081   6.056   2.312   0.998
14380TIP3   OH243082   1.295   3.990   2.756
14380TIP3    H143083   1.217   4.008   2.702
14380TIP3    H243084   1.315   4.073   2.797
14381TIP3   OH243085   5.187   2.870   3.607
14381TIP3    H143086   5.141   2.901   3.529
14381TIP3    H243087   5.232   2.790   3.579
14382TIP3   OH243088   0.076   6.815   5.619
14382TIP3    H143089   0.090   6.799   5.712
14382TIP3    H243090   0.127   6.893   5.599
14383TIP3   OH243091   7.819   3.510   2.830
14383TIP3    H143092   7.883   3.552   2.772
14383TIP3    H243093   7.740   3.502   2.776
14384TIP3   OH243094   2.030   6.485   0.627
14384TIP3    H143095   1.948   6.459   0.669
14384TIP3    H243096   2.093   6.417   0.652
14385TIP3   OH243097   2.757   5.787   4.320
14385TIP3    H143098   2.738   5.774   4.413
14385TIP3    H243099   2.753   5.881   4.308
14386TIP3   OH243100   1.430   5.160   0.946
14386TIP3    H143101   1.387   5.091   0.997
14386TIP3    H243102   1.462   5.221   1.012
14387TIP3   OH243103   0.838   4.752   1.477
14387TIP3    H143104   0.863   4.812   1.408
14387TIP3    H243105   0.906   4.684   1.475
14388TIP3   OH243106   0.592   0.857   2.042
14388TIP3    H143107   0.673   0.815   2.014
14388TIP3    H243108   0.574   0.921   1.973
14389TIP3   OH243109   6.300   5.808   3.748
14389TIP3    H143110   6.257   5.779   3.828
14389TIP3    H243111   6.272   5.899   3.737
14390TIP3   OH243112   1.711   0.242   2.491
14390TIP3    H143113   1.789   0.205   2.531
14390TIP3    H243114   1.743   0.284   2.411
14391TIP3   OH243115   6.885   2.841   0.039
14391TIP3    H143116   6.911   2.895   0.114
14391TIP3    H243117   6.807   2.795   0.069
14392TIP3   OH243118   4.378   7.146   1.794
14392TIP3    H143119   4.363   7.057   1.827
14392TIP3    H243120   4.397   7.198   1.871
14393TIP3   OH243121   3.179   2.832   2.389
14393TIP3    H143122   3.128   2.905   2.354
14393TIP3    H243123   3.267   2.868   2.402
14394TIP3   OH243124   7.344   3.750   0.044
14394TIP3    H143125   7.252   3.741   0.068
14394TIP3    H243126   7.383   3.665   0.066
14395TIP3   OH243127   1.797   3.268   6.750
14395TIP3    H143128   1.755   3.349   6.722
14395TIP3    H243129   1.732   3.200   6.736
14396TIP3   OH243130   0.553   2.621   4.386
14396TIP3    H143131   0.460   2.597   4.383
14396TIP3    H243132   0.557   2.707   4.345
14397TIP3   OH243133   3.942   2.388   1.372
14397TIP3    H143134   3.971   2.350   1.455
14397TIP3    H243135   3.859   2.344   1.354
14398TIP3   OH243136   4.658   0.233   0.516
14398TIP3    H143137   4.632   0.193   0.599
14398TIP3    H243138   4.612   0.183   0.449
14399TIP3   OH243139   1.501   1.444   6.267
14399TIP3    H143140   1.414   1.440   6.306
14399TIP3    H243141   1.499   1.521   6.211
14400TIP3   OH243142   5.696   0.103   0.307
14400TIP3    H143143   5.626   0.162   0.276
14400TIP3    H243144   5.678   0.020   0.262
14401TIP3   OH243145   6.666   2.820   5.079
14401TIP3    H143146   6.690   2.893   5.135
14401TIP3    H243147   6.600   2.771   5.128
14402TIP3   OH243148   0.188   2.199   6.258
14402TIP3    H143149   0.132   2.124   6.240
14402TIP3    H243150   0.155   2.233   6.342
14403TIP3   OH243151   6.414   4.625   4.181
14403TIP3    H143152   6.412   4.584   4.094
14403TIP3    H243153   6.450   4.713   4.164
14404TIP3   OH243154   3.382   6.642   0.275
14404TIP3    H143155   3.456   6.633   0.215
14404TIP3    H243156   3.422   6.656   0.361
14405TIP3   OH243157   2.010   0.839   0.205
14405TIP3    H143158   2.065   0.805   0.276
14405TIP3    H243159   1.996   0.930   0.228
14406TIP3   OH243160   0.072   0.290   0.846
14406TIP3    H143161   0.042   0.280   0.756
14406TIP3    H243162   0.161   0.255   0.846
14407TIP3   OH243163   4.653   3.711   2.015
14407TIP3    H143164   4.643   3.795   2.061
14407TIP3    H243165   4.630   3.730   1.925
14408TIP3   OH243166   4.755   4.176   0.131
14408TIP3    H143167   4.840   4.165   0.175
14408TIP3    H243168   4.777   4.203   0.042
14409TIP3   OH243169   5.171   2.863   4.765
14409TIP3    H143170   5.090   2.854   4.716
14409TIP3    H243171   5.167   2.794   4.832
14410TIP3   OH243172   6.450   1.987   2.284
14410TIP3    H143173   6.427   2.022   2.198
14410TIP3    H243174   6.368   1.988   2.333
14411TIP3   OH243175   1.634   6.640   4.070
14411TIP3    H143176   1.729   6.630   4.062
14411TIP3    H243177   1.599   6.602   3.990
14412TIP3   OH243178   7.235   0.423   5.093
14412TIP3    H143179   7.200   0.424   5.004
14412TIP3    H243180   7.296   0.497   5.095
14413TIP3   OH243181   1.675   5.961   4.766
14413TIP3    H143182   1.601   5.902   4.757
14413TIP3    H243183   1.640   6.047   4.744
14414TIP3   OH243184   1.754   0.418   0.637
14414TIP3    H143185   1.798   0.334   0.652
14414TIP3    H243186   1.740   0.420   0.542
14415TIP3   OH243187   0.689   2.234   3.419
14415TIP3    H143188   0.728   2.279   3.495
14415TIP3    H243189   0.595   2.231   3.439
14416TIP3   OH243190   2.819   6.266   2.437
14416TIP3    H143191   2.771   6.338   2.478
14416TIP3    H243192   2.894   6.308   2.395
14417TIP3   OH243193   6.259   2.198   1.880
14417TIP3    H143194   6.167   2.196   1.855
14417TIP3    H243195   6.258   2.203   1.976
14418TIP3   OH243196   4.179   6.924   4.918
14418TIP3    H143197   4.262   6.877   4.926
14418TIP3    H243198   4.191   6.983   4.844
14419TIP3   OH243199   2.386   3.019   2.415
14419TIP3    H143200   2.421   2.931   2.401
14419TIP3    H243201   2.309   3.005   2.470
14420TIP3   OH243202   4.906   1.089   2.000
14420TIP3    H143203   4.848   1.094   1.924
14420TIP3    H243204   4.913   0.995   2.019
14421TIP3   OH243205   0.522   3.629   6.687
14421TIP3    H143206   0.529   3.687   6.763
14421TIP3    H243207   0.463   3.560   6.715
14422TIP3   OH243208   4.429   1.231   5.053
14422TIP3    H143209   4.416   1.219   4.959
14422TIP3    H243210   4.524   1.230   5.064
14423TIP3   OH243211   8.010   2.774   1.316
14423TIP3    H143212   7.940   2.838   1.328
14423TIP3    H243213   7.990   2.732   1.232
14424TIP3   OH243214   4.214   7.074   4.700
14424TIP3    H143215   4.205   7.168   4.684
14424TIP3    H243216   4.296   7.050   4.655
14425TIP3   OH243217   2.518   3.511   2.168
14425TIP3    H143218   2.582   3.554   2.111
14425TIP3    H243219   2.569   3.484   2.245
14426TIP3   OH243220   3.758   6.050   0.074
14426TIP3    H143221   3.829   6.114   0.069
14426TIP3    H243222   3.778   5.998   0.151
14427TIP3   OH243223   4.758   7.332   2.869
14427TIP3    H143224   4.840   7.374   2.895
14427TIP3    H243225   4.716   7.308   2.952
14428TIP3   OH243226   6.149   4.449   2.465
14428TIP3    H143227   6.168   4.528   2.516
14428TIP3    H243228   6.204   4.381   2.504
14429TIP3   OH243229   6.492   1.350   0.566
14429TIP3    H143230   6.554   1.362   0.493
14429TIP3    H243231   6.458   1.438   0.583
14430TIP3   OH243232   4.850   1.086   5.513
14430TIP3    H143233   4.810   1.104   5.428
14430TIP3    H243234   4.791   1.024   5.555
14431TIP3   OH243235   1.373   5.600   1.775
14431TIP3    H143236   1.464   5.584   1.752
14431TIP3    H243237   1.369   5.694   1.793
14432TIP3   OH243238   4.407   4.286   1.082
14432TIP3    H143239   4.455   4.268   1.162
14432TIP3    H243240   4.475   4.308   1.017
14433TIP3   OH243241   7.927   7.491   5.182
14433TIP3    H143242   8.021   7.477   5.188
14433TIP3    H243243   7.906   7.472   5.090
14434TIP3   OH243244   4.944   4.109   6.473
14434TIP3    H143245   4.971   4.053   6.546
14434TIP3    H243246   4.911   4.189   6.516
14435TIP3   OH243247   5.264   5.130   4.995
14435TIP3    H143248   5.181   5.129   5.042
14435TIP3    H243249   5.295   5.039   4.998
14436TIP3   OH243250   4.224   2.725   5.435
14436TIP3    H143251   4.197   2.749   5.347
14436TIP3    H243252   4.142   2.703   5.480
14437TIP3   OH243253   4.869   2.616   6.366
14437TIP3    H143254   4.791   2.584   6.410
14437TIP3    H243255   4.939   2.559   6.396
14438TIP3   OH243256   3.172   2.071   4.413
14438TIP3    H143257   3.198   2.014   4.340
14438TIP3    H243258   3.252   2.121   4.434
14439TIP3   OH243259   3.827   4.009   1.285
14439TIP3    H143260   3.810   4.103   1.284
14439TIP3    H243261   3.740   3.969   1.288
14440TIP3   OH243262   5.832   2.309  -0.003
14440TIP3    H143263   5.736   2.317  -0.006
14440TIP3    H243264   5.847   2.216   0.013
14441TIP3   OH243265   6.143   2.393   3.069
14441TIP3    H143266   6.091   2.472   3.078
14441TIP3    H243267   6.080   2.321   3.075
14442TIP3   OH243268   0.832   0.854   0.981
14442TIP3    H143269   0.811   0.896   0.898
14442TIP3    H243270   0.812   0.921   1.047
14443TIP3   OH243271   0.799   4.977   1.966
14443TIP3    H143272   0.709   4.963   1.934
14443TIP3    H243273   0.792   5.050   2.028
14444TIP3   OH243274   4.013   3.696   3.331
14444TIP3    H143275   4.006   3.606   3.365
14444TIP3    H243276   3.982   3.751   3.403
14445TIP3   OH243277   4.454   0.574   2.044
14445TIP3    H143278   4.498   0.490   2.057
14445TIP3    H243279   4.366   0.561   2.081
14446TIP3   OH243280   0.852   2.535   1.671
14446TIP3    H143281   0.932   2.484   1.680
14446TIP3    H243282   0.848   2.558   1.578
14447TIP3   OH243283   4.878   1.116   0.621
14447TIP3    H143284   4.866   1.192   0.563
14447TIP3    H243285   4.935   1.057   0.571
14448TIP3   OH243286   0.738   6.606   1.464
14448TIP3    H143287   0.729   6.669   1.393
14448TIP3    H243288   0.826   6.568   1.452
14449TIP3   OH243289   4.933   7.000   2.110
14449TIP3    H143290   5.027   6.987   2.126
14449TIP3    H243291   4.907   7.069   2.171
14450TIP3   OH243292   0.385   0.085   2.700
14450TIP3    H143293   0.303   0.115   2.740
14450TIP3    H243294   0.449   0.152   2.724
14451TIP3   OH243295   1.989   2.444   3.957
14451TIP3    H143296   1.913   2.411   3.910
14451TIP3    H243297   2.056   2.458   3.890
14452TIP3   OH243298   5.831   1.854   0.682
14452TIP3    H143299   5.821   1.948   0.698
14452TIP3    H243300   5.877   1.822   0.760
14453TIP3   OH243301   8.059   6.449   4.002
14453TIP3    H143302   8.087   6.410   4.084
14453TIP3    H243303   8.138   6.491   3.967
14454TIP3   OH243304   4.637   4.350   2.078
14454TIP3    H143305   4.608   4.287   2.012
14454TIP3    H243306   4.697   4.408   2.032
14455TIP3   OH243307   0.819   0.234   2.248
14455TIP3    H143308   0.739   0.285   2.237
14455TIP3    H243309   0.800   0.174   2.320
14456TIP3   OH243310   6.048   6.020   5.093
14456TIP3    H143311   6.047   5.955   5.163
14456TIP3    H243312   6.133   6.063   5.101
14457TIP3   OH243313   0.441   5.247   6.283
14457TIP3    H143314   0.476   5.337   6.285
14457TIP3    H243315   0.498   5.198   6.342
14458TIP3   OH243316   2.108   7.473   4.157
14458TIP3    H143317   2.032   7.520   4.192
14458TIP3    H243318   2.176   7.484   4.224
14459TIP3   OH243319   5.921   5.807   3.297
14459TIP3    H143320   5.839   5.760   3.315
14459TIP3    H243321   5.894   5.882   3.244
14460TIP3   OH243322   3.596   1.766   6.448
14460TIP3    H143323   3.621   1.703   6.381
14460TIP3    H243324   3.528   1.820   6.407
14461TIP3   OH243325   5.057   3.927   6.643
14461TIP3    H143326   5.075   3.844   6.599
14461TIP3    H243327   5.140   3.952   6.684
14462TIP3   OH243328   6.175   6.505   0.145
14462TIP3    H143329   6.122   6.576   0.109
14462TIP3    H243330   6.225   6.546   0.215
14463TIP3   OH243331   5.290   6.129   2.000
14463TIP3    H143332   5.352   6.094   1.936
14463TIP3    H243333   5.290   6.066   2.071
14464TIP3   OH243334   6.700   2.822   5.675
14464TIP3    H143335   6.657   2.887   5.731
14464TIP3    H243336   6.792   2.849   5.675
14465TIP3   OH243337   1.166   0.599   4.908
14465TIP3    H143338   1.142   0.629   4.821
14465TIP3    H243339   1.085   0.604   4.959
14466TIP3   OH243340   7.390   1.119   6.142
14466TIP3    H143341   7.411   1.046   6.085
14466TIP3    H243342   7.334   1.081   6.211
14467TIP3   OH243343   1.954   6.402   1.047
14467TIP3    H143344   1.877   6.419   1.102
14467TIP3    H243345   2.004   6.337   1.096
14468TIP3   OH243346   0.978   4.571   0.768
14468TIP3    H143347   1.039   4.499   0.782
14468TIP3    H243348   0.986   4.592   0.676
14469TIP3   OH243349   1.011   7.196   6.152
14469TIP3    H143350   1.023   7.146   6.232
14469TIP3    H243351   0.981   7.132   6.087
14470TIP3   OH243352   4.427   7.273   5.446
14470TIP3    H143353   4.422   7.193   5.497
14470TIP3    H243354   4.513   7.269   5.403
14471TIP3   OH243355   7.271   7.327   0.842
14471TIP3    H143356   7.330   7.327   0.766
14471TIP3    H243357   7.263   7.419   0.865
14472TIP3   OH243358   6.050   3.042   2.582
14472TIP3    H143359   6.044   3.128   2.541
14472TIP3    H243360   5.962   3.023   2.613
14473TIP3   OH243361   7.893   4.855   5.099
14473TIP3    H143362   7.944   4.786   5.142
14473TIP3    H243363   7.923   4.936   5.139
14474TIP3   OH243364   0.427   7.644   4.945
14474TIP3    H143365   0.446   7.651   4.852
14474TIP3    H243366   0.331   7.648   4.950
14475TIP3   OH243367   7.463   2.753   4.121
14475TIP3    H143368   7.474   2.664   4.154
14475TIP3    H243369   7.520   2.806   4.177
14476TIP3   OH243370   5.216   0.738   2.004
14476TIP3    H143371   5.270   0.677   2.053
14476TIP3    H243372   5.164   0.683   1.946
14477TIP3   OH243373   0.510   3.693   5.239
14477TIP3    H143374   0.458   3.736   5.307
14477TIP3    H243375   0.600   3.720   5.256
14478TIP3   OH243376   1.499   7.213   5.548
14478TIP3    H143377   1.558   7.155   5.501
14478TIP3    H243378   1.471   7.277   5.482
14479TIP3   OH243379   2.396   1.961   6.078
14479TIP3    H143380   2.433   1.886   6.031
14479TIP3    H243381   2.318   1.984   6.029
14480TIP3   OH243382   1.084   4.354   0.978
14480TIP3    H143383   1.129   4.277   0.943
14480TIP3    H243384   1.000   4.356   0.933
14481TIP3   OH243385   6.359   4.596   6.142
14481TIP3    H143386   6.276   4.549   6.157
14481TIP3    H243387   6.335   4.669   6.086
14482TIP3   OH243388   5.123   1.536   6.106
14482TIP3    H143389   5.151   1.558   6.017
14482TIP3    H243390   5.150   1.445   6.117
14483TIP3   OH243391   6.356   0.578   5.642
14483TIP3    H143392   6.446   0.567   5.673
14483TIP3    H243393   6.320   0.650   5.695
14484TIP3   OH243394   1.668   7.129   2.186
14484TIP3    H143395   1.592   7.076   2.165
14484TIP3    H243396   1.735   7.066   2.213
14485TIP3   OH243397   4.014   6.902   4.303
14485TIP3    H143398   4.064   6.823   4.324
14485TIP3    H243399   3.945   6.871   4.244
14486TIP3   OH243400   0.649   3.784   1.619
14486TIP3    H143401   0.644   3.689   1.626
14486TIP3    H243402   0.561   3.815   1.639
14487TIP3   OH243403   4.346   3.299   6.438
14487TIP3    H143404   4.370   3.229   6.377
14487TIP3    H243405   4.258   3.277   6.468
14488TIP3   OH243406   0.415   2.949   4.816
14488TIP3    H143407   0.444   3.011   4.749
14488TIP3    H243408   0.323   2.972   4.831
14489TIP3   OH243409   3.323   3.480   0.453
14489TIP3    H143410   3.280   3.481   0.367
14489TIP3    H243411   3.379   3.402   0.450
14490TIP3   OH243412   1.926   0.980   6.050
14490TIP3    H143413   1.914   1.046   6.119
14490TIP3    H243414   2.011   0.940   6.069
14491TIP3   OH243415   2.438   2.462   4.124
14491TIP3    H143416   2.440   2.409   4.204
14491TIP3    H243417   2.369   2.423   4.071
14492TIP3   OH243418   8.236   6.689   4.800
14492TIP3    H143419   8.249   6.740   4.880
14492TIP3    H243420   8.142   6.669   4.800
14493TIP3   OH243421   5.818   3.090   0.374
14493TIP3    H143422   5.835   3.136   0.292
14493TIP3    H243423   5.904   3.082   0.416
14494TIP3   OH243424   4.372   5.040   3.168
14494TIP3    H143425   4.350   4.997   3.085
14494TIP3    H243426   4.372   5.134   3.146
14495TIP3   OH243427   1.640   7.029   5.043
14495TIP3    H143428   1.622   7.037   4.950
14495TIP3    H243429   1.736   7.024   5.048
14496TIP3   OH243430   4.355   3.213   6.000
14496TIP3    H143431   4.296   3.160   5.947
14496TIP3    H243432   4.353   3.172   6.087
14497TIP3   OH243433   4.864   2.768   6.729
14497TIP3    H143434   4.931   2.810   6.674
14497TIP3    H243435   4.781   2.791   6.688
14498TIP3   OH243436   2.829   0.438   3.908
14498TIP3    H143437   2.829   0.343   3.901
14498TIP3    H243438   2.781   0.469   3.831
14499TIP3   OH243439   0.522   6.606   0.638
14499TIP3    H143440   0.502   6.691   0.680
14499TIP3    H243441   0.497   6.618   0.547
14500TIP3   OH243442   6.964   4.380   6.286
14500TIP3    H143443   7.022   4.423   6.224
14500TIP3    H243444   6.890   4.439   6.296
14501TIP3   OH243445   6.171   0.687   6.334
14501TIP3    H143446   6.214   0.649   6.410
14501TIP3    H243447   6.199   0.779   6.334
14502TIP3   OH243448   5.080   6.555   1.024
14502TIP3    H143449   5.134   6.493   1.073
14502TIP3    H243450   5.027   6.599   1.091
14503TIP3   OH243451   7.295   1.435   2.878
14503TIP3    H143452   7.260   1.363   2.826
14503TIP3    H243453   7.222   1.497   2.885
14504TIP3   OH243454   1.290   1.939   5.020
14504TIP3    H143455   1.370   1.899   4.985
14504TIP3    H243456   1.274   2.014   4.963
14505TIP3   OH243457   0.443   4.162   2.534
14505TIP3    H143458   0.418   4.082   2.488
14505TIP3    H243459   0.369   4.181   2.591
14506TIP3   OH243460   1.045   4.714   3.847
14506TIP3    H143461   1.054   4.632   3.896
14506TIP3    H243462   1.103   4.776   3.892
14507TIP3   OH243463   0.615   4.701   0.981
14507TIP3    H143464   0.699   4.746   0.988
14507TIP3    H243465   0.553   4.768   0.952
14508TIP3   OH243466   2.196   2.949   5.726
14508TIP3    H143467   2.145   2.869   5.710
14508TIP3    H243468   2.197   2.959   5.821
14509TIP3   OH243469   0.448   2.382   2.576
14509TIP3    H143470   0.512   2.321   2.539
14509TIP3    H243471   0.500   2.444   2.627
14510TIP3   OH243472   7.825   3.301   4.881
14510TIP3    H143473   7.911   3.328   4.913
14510TIP3    H243474   7.841   3.270   4.792
14511TIP3   OH243475   2.886   4.211   2.070
14511TIP3    H143476   2.953   4.266   2.029
14511TIP3    H243477   2.931   4.128   2.088
14512TIP3   OH243478   3.396   0.727   2.504
14512TIP3    H143479   3.418   0.670   2.578
14512TIP3    H243480   3.302   0.718   2.494
14513TIP3   OH243481   7.571   2.735   1.830
14513TIP3    H143482   7.622   2.809   1.862
14513TIP3    H243483   7.637   2.674   1.797
14514TIP3   OH243484   7.881   7.434   3.911
14514TIP3    H143485   7.873   7.521   3.950
14514TIP3    H243486   7.930   7.384   3.977
14515TIP3   OH243487   4.656   1.473   1.491
14515TIP3    H143488   4.658   1.417   1.569
14515TIP3    H243489   4.563   1.492   1.477
14516TIP3   OH243490   5.965   4.750   2.564
14516TIP3    H143491   6.017   4.730   2.486
14516TIP3    H243492   5.874   4.742   2.535
14517TIP3   OH243493   7.053   6.391   6.505
14517TIP3    H143494   7.148   6.403   6.505
14517TIP3    H243495   7.034   6.346   6.423
14518TIP3   OH243496   4.131   4.705   2.308
14518TIP3    H143497   4.136   4.659   2.392
14518TIP3    H243498   4.121   4.636   2.243
14519TIP3   OH243499   0.225   4.801   5.831
14519TIP3    H143500   0.185   4.873   5.781
14519TIP3    H243501   0.277   4.845   5.899
14520TIP3   OH243502   7.155   3.403   1.686
14520TIP3    H143503   7.094   3.476   1.687
14520TIP3    H243504   7.156   3.373   1.595
14521TIP3   OH243505   5.513   1.596   1.308
14521TIP3    H143506   5.557   1.511   1.316
14521TIP3    H243507   5.572   1.648   1.253
14522TIP3   OH243508   6.814   6.465   2.924
14522TIP3    H143509   6.880   6.509   2.870
14522TIP3    H243510   6.766   6.537   2.966
14523TIP3   OH243511   1.180   6.497   3.080
14523TIP3    H143512   1.088   6.483   3.057
14523TIP3    H243513   1.226   6.424   3.038
14524TIP3   OH243514   2.685   5.243   1.791
14524TIP3    H143515   2.590   5.227   1.797
14524TIP3    H243516   2.710   5.204   1.707
14525TIP3   OH243517   0.497   6.525   2.305
14525TIP3    H143518   0.526   6.534   2.214
14525TIP3    H243519   0.461   6.437   2.310
14526TIP3   OH243520   2.711   1.032   3.563
14526TIP3    H143521   2.682   1.112   3.519
14526TIP3    H243522   2.662   0.962   3.521
14527TIP3   OH243523   0.951   0.714   0.341
14527TIP3    H143524   1.018   0.767   0.299
14527TIP3    H243525   0.906   0.669   0.270
14528TIP3   OH243526   2.857   3.173   1.635
14528TIP3    H143527   2.793   3.209   1.697
14528TIP3    H243528   2.885   3.091   1.676
14529TIP3   OH243529   1.161   5.770   4.913
14529TIP3    H143530   1.104   5.757   4.837
14529TIP3    H243531   1.120   5.718   4.983
14530TIP3   OH243532   6.840   0.524   0.078
14530TIP3    H143533   6.886   0.459   0.130
14530TIP3    H243534   6.909   0.583   0.047
14531TIP3   OH243535   6.688   4.465   3.773
14531TIP3    H143536   6.655   4.441   3.686
14531TIP3    H243537   6.730   4.385   3.805
14532TIP3   OH243538   7.683   6.580   3.984
14532TIP3    H143539   7.663   6.511   3.920
14532TIP3    H243540   7.629   6.654   3.957
14533TIP3   OH243541   6.190   1.385   4.672
14533TIP3    H143542   6.104   1.396   4.711
14533TIP3    H243543   6.175   1.386   4.578
14534TIP3   OH243544   2.555   3.117   4.784
14534TIP3    H143545   2.556   3.037   4.838
14534TIP3    H243546   2.502   3.179   4.835
14535TIP3   OH243547   6.642   2.896   3.540
14535TIP3    H143548   6.626   2.932   3.452
14535TIP3    H243549   6.735   2.873   3.540
14536TIP3   OH243550   5.855   1.996   5.539
14536TIP3    H143551   5.936   1.944   5.542
14536TIP3    H243552   5.790   1.941   5.584
14537TIP3   OH243553   4.424   0.561   1.236
14537TIP3    H143554   4.496   0.622   1.248
14537TIP3    H243555   4.408   0.525   1.324
14538TIP3   OH243556   7.900   7.479   2.710
14538TIP3    H143557   7.862   7.427   2.639
14538TIP3    H243558   7.830   7.538   2.737
14539TIP3   OH243559   2.348   2.277   2.734
14539TIP3    H143560   2.413   2.265   2.665
14539TIP3    H243561   2.276   2.324   2.692
14540TIP3   OH243562   4.795   4.926   1.044
14540TIP3    H143563   4.755   5.010   1.065
14540TIP3    H243564   4.736   4.861   1.083
14541TIP3   OH243565   2.303   2.668   4.499
14541TIP3    H143566   2.381   2.686   4.447
14541TIP3    H243567   2.238   2.731   4.468
14542TIP3   OH243568   4.472   3.252   2.513
14542TIP3    H143569   4.466   3.172   2.566
14542TIP3    H243570   4.561   3.283   2.529
14543TIP3   OH243571   1.117   4.743   5.254
14543TIP3    H143572   1.191   4.769   5.200
14543TIP3    H243573   1.051   4.712   5.192
14544TIP3   OH243574   6.492   2.329   0.720
14544TIP3    H143575   6.566   2.346   0.662
14544TIP3    H243576   6.533   2.299   0.801
14545TIP3   OH243577   1.631   2.159   5.789
14545TIP3    H143578   1.567   2.145   5.859
14545TIP3    H243579   1.714   2.173   5.835
14546TIP3   OH243580   2.131   1.432   5.321
14546TIP3    H143581   2.050   1.448   5.273
14546TIP3    H243582   2.105   1.380   5.396
14547TIP3   OH243583   7.715   3.184   6.780
14547TIP3    H143584   7.797   3.140   6.758
14547TIP3    H243585   7.724   3.271   6.741
14548TIP3   OH243586   1.633   4.687   3.689
14548TIP3    H143587   1.714   4.643   3.714
14548TIP3    H243588   1.659   4.776   3.668
14549TIP3   OH243589   7.134   1.650   5.892
14549TIP3    H143590   7.051   1.606   5.872
14549TIP3    H243591   7.194   1.578   5.913
14550TIP3   OH243592   3.604   4.249   6.127
14550TIP3    H143593   3.585   4.319   6.064
14550TIP3    H243594   3.520   4.205   6.141
14551TIP3   OH243595   7.328   4.920   6.104
14551TIP3    H143596   7.282   4.917   6.188
14551TIP3    H243597   7.266   4.883   6.041
14552TIP3   OH243598   1.580   4.680   1.286
14552TIP3    H143599   1.508   4.700   1.347
14552TIP3    H243600   1.538   4.630   1.215
14553TIP3   OH243601   7.561   3.922   0.260
14553TIP3    H143602   7.586   3.897   0.171
14553TIP3    H243603   7.494   3.989   0.248
14554TIP3   OH243604   7.998   4.307   0.928
14554TIP3    H143605   7.924   4.249   0.913
14554TIP3    H243606   8.075   4.256   0.903
14555TIP3   OH243607   2.698   6.691   2.735
14555TIP3    H143608   2.679   6.784   2.746
14555TIP3    H243609   2.712   6.659   2.824
14556TIP3   OH243610   7.647   0.213   5.121
14556TIP3    H143611   7.630   0.228   5.214
14556TIP3    H243612   7.742   0.209   5.114
14557TIP3   OH243613   8.081   4.150   1.231
14557TIP3    H143614   8.059   4.240   1.209
14557TIP3    H243615   8.082   4.104   1.147
14558TIP3   OH243616   0.553   6.106   2.214
14558TIP3    H143617   0.570   6.015   2.189
14558TIP3    H243618   0.634   6.152   2.192
14559TIP3   OH243619   4.409   3.619   2.892
14559TIP3    H143620   4.371   3.542   2.851
14559TIP3    H243621   4.363   3.627   2.976
14560TIP3   OH243622   2.720   0.280   1.335
14560TIP3    H143623   2.811   0.300   1.357
14560TIP3    H243624   2.719   0.277   1.239
14561TIP3   OH243625   3.620   2.872   3.896
14561TIP3    H143626   3.591   2.904   3.982
14561TIP3    H243627   3.611   2.777   3.902
14562TIP3   OH243628   1.555   6.266   0.682
14562TIP3    H143629   1.515   6.349   0.655
14562TIP3    H243630   1.546   6.265   0.777
14563TIP3   OH243631   2.622   3.724   4.194
14563TIP3    H143632   2.644   3.699   4.104
14563TIP3    H243633   2.554   3.663   4.221
14564TIP3   OH243634   1.501   6.916   1.246
14564TIP3    H143635   1.407   6.919   1.226
14564TIP3    H243636   1.507   6.946   1.337
14565TIP3   OH243637   3.235   0.688   0.735
14565TIP3    H143638   3.159   0.635   0.711
14565TIP3    H243639   3.198   0.771   0.767
14566TIP3   OH243640   0.089   5.962   2.738
14566TIP3    H143641   0.079   6.056   2.727
14566TIP3    H243642   0.150   5.952   2.811
14567TIP3   OH243643   5.955   2.580   4.471
14567TIP3    H143644   5.986   2.648   4.411
14567TIP3    H243645   5.991   2.498   4.435
14568TIP3   OH243646   3.695   3.714   2.229
14568TIP3    H143647   3.755   3.783   2.200
14568TIP3    H243648   3.731   3.685   2.312
14569TIP3   OH243649   7.772   3.413   6.661
14569TIP3    H143650   7.859   3.415   6.701
14569TIP3    H243651   7.754   3.504   6.637
14570TIP3   OH243652   2.541   2.932   0.324
14570TIP3    H143653   2.589   2.887   0.254
14570TIP3    H243654   2.519   3.017   0.287
14571TIP3   OH243655   2.312   2.726   3.987
14571TIP3    H143656   2.395   2.684   4.010
14571TIP3    H243657   2.279   2.761   4.070
14572TIP3   OH243658   5.019   2.958   5.596
14572TIP3    H143659   4.999   2.925   5.684
14572TIP3    H243660   4.953   2.917   5.540
14573TIP3   OH243661   6.666   7.387   2.650
14573TIP3    H143662   6.659   7.360   2.742
14573TIP3    H243663   6.694   7.478   2.653
14574TIP3   OH243664   0.852   4.719   2.722
14574TIP3    H143665   0.842   4.630   2.755
14574TIP3    H243666   0.770   4.763   2.746
14575TIP3   OH243667   5.727   6.157   6.108
14575TIP3    H143668   5.744   6.250   6.093
14575TIP3    H243669   5.671   6.155   6.185
14576TIP3   OH243670   4.080   5.020   0.406
14576TIP3    H143671   4.175   5.024   0.404
14576TIP3    H243672   4.060   4.926   0.406
14577TIP3   OH243673   3.199   6.299   0.803
14577TIP3    H143674   3.278   6.257   0.769
14577TIP3    H243675   3.227   6.386   0.831
14578TIP3   OH243676   5.624   3.000   1.826
14578TIP3    H143677   5.601   3.087   1.859
14578TIP3    H243678   5.595   2.940   1.895
14579TIP3   OH243679   4.196   5.127   5.780
14579TIP3    H143680   4.194   5.209   5.731
14579TIP3    H243681   4.109   5.089   5.768
14580TIP3   OH243682   6.855   7.690   0.412
14580TIP3    H143683   6.878   7.763   0.354
14580TIP3    H243684   6.900   7.711   0.495
14581TIP3   OH243685   5.424   1.996   0.585
14581TIP3    H143686   5.352   2.039   0.632
14581TIP3    H243687   5.418   1.904   0.612
14582TIP3   OH243688   7.197   6.113   6.327
14582TIP3    H143689   7.189   6.036   6.384
14582TIP3    H243690   7.288   6.139   6.334
14583TIP3   OH243691   6.928   1.026   0.511
14583TIP3    H143692   6.899   1.054   0.598
14583TIP3    H243693   6.847   1.014   0.462
14584TIP3   OH243694   4.204   1.587   3.717
14584TIP3    H143695   4.123   1.544   3.691
14584TIP3    H243696   4.216   1.657   3.653
14585TIP3   OH243697   3.072   3.376   1.947
14585TIP3    H143698   3.013   3.432   1.898
14585TIP3    H243699   3.049   3.392   2.039
14586TIP3   OH243700   1.654   3.228   0.256
14586TIP3    H143701   1.664   3.161   0.325
14586TIP3    H243702   1.728   3.212   0.197
14587TIP3   OH243703   7.103   0.910   4.709
14587TIP3    H143704   7.187   0.955   4.715
14587TIP3    H243705   7.038   0.978   4.724
14588TIP3   OH243706   7.759   4.578   5.754
14588TIP3    H143707   7.708   4.524   5.815
14588TIP3    H243708   7.819   4.517   5.712
14589TIP3   OH243709   1.753   6.311   3.713
14589TIP3    H143710   1.742   6.406   3.718
14589TIP3    H243711   1.825   6.293   3.773
14590TIP3   OH243712   0.708   5.250   5.556
14590TIP3    H143713   0.792   5.205   5.571
14590TIP3    H243714   0.731   5.326   5.502
14591TIP3   OH243715   1.088   3.733   2.536
14591TIP3    H143716   0.995   3.749   2.519
14591TIP3    H243717   1.108   3.653   2.487
14592TIP3   OH243718   8.107   7.430   1.332
14592TIP3    H143719   8.185   7.402   1.285
14592TIP3    H243720   8.040   7.365   1.309
14593TIP3   OH243721   2.944   2.834   0.867
14593TIP3    H143722   3.040   2.839   0.866
14593TIP3    H243723   2.924   2.764   0.930
14594TIP3   OH243724   4.924   4.587   1.141
14594TIP3    H143725   4.958   4.543   1.219
14594TIP3    H243726   4.830   4.567   1.140
14595TIP3   OH243727   3.981   5.269   0.995
14595TIP3    H143728   3.952   5.253   1.085
14595TIP3    H243729   4.062   5.318   1.004
14596TIP3   OH243730   3.017   4.002   0.784
14596TIP3    H143731   2.978   4.013   0.871
14596TIP3    H243732   3.074   3.926   0.793
14597TIP3   OH243733   0.652   7.345   4.099
14597TIP3    H143734   0.699   7.427   4.113
14597TIP3    H243735   0.716   7.277   4.120
14598TIP3   OH243736   1.643   1.257   1.471
14598TIP3    H143737   1.601   1.236   1.555
14598TIP3    H243738   1.736   1.251   1.489
14599TIP3   OH243739   0.412   2.193   5.961
14599TIP3    H143740   0.370   2.167   5.879
14599TIP3    H243741   0.381   2.128   6.025
14600TIP3   OH243742   4.790   2.004   6.718
14600TIP3    H143743   4.844   1.927   6.700
14600TIP3    H243744   4.790   2.012   6.813
14601TIP3   OH243745   6.502   7.181   6.124
14601TIP3    H143746   6.563   7.164   6.196
14601TIP3    H243747   6.548   7.244   6.068
14602TIP3   OH243748   2.850   7.242   3.956
14602TIP3    H143749   2.819   7.160   3.918
14602TIP3    H243750   2.828   7.234   4.049
14603TIP3   OH243751   7.490   6.859   3.174
14603TIP3    H143752   7.560   6.882   3.236
14603TIP3    H243753   7.423   6.819   3.229
14604TIP3   OH243754   0.632   3.492   6.019
14604TIP3    H143755   0.620   3.398   6.031
14604TIP3    H243756   0.577   3.532   6.086
14605TIP3   OH243757   7.104   4.603   5.424
14605TIP3    H143758   7.193   4.637   5.415
14605TIP3    H243759   7.107   4.517   5.383
14606TIP3   OH243760   4.056   3.989   4.973
14606TIP3    H143761   4.142   4.026   4.956
14606TIP3    H243762   4.045   3.993   5.068
14607TIP3   OH243763   0.329   6.542   5.805
14607TIP3    H143764   0.386   6.537   5.881
14607TIP3    H243765   0.375   6.492   5.737
14608TIP3   OH243766   4.194   4.389   6.684
14608TIP3    H143767   4.118   4.331   6.685
14608TIP3    H243768   4.267   4.333   6.709
14609TIP3   OH243769   2.918   2.049   0.131
14609TIP3    H143770   2.944   2.085   0.046
14609TIP3    H243771   2.922   2.123   0.191
14610TIP3   OH243772   5.053   4.201   3.488
14610TIP3    H143773   5.003   4.246   3.419
14610TIP3    H243774   5.001   4.122   3.507
14611TIP3   OH243775   5.165   6.307   3.449
14611TIP3    H143776   5.165   6.218   3.483
14611TIP3    H243777   5.243   6.348   3.487
14612TIP3   OH243778   2.638   1.566   5.732
14612TIP3    H143779   2.641   1.581   5.637
14612TIP3    H243780   2.667   1.475   5.743
14613TIP3   OH243781   2.520   6.792   3.024
14613TIP3    H143782   2.616   6.792   3.027
14613TIP3    H243783   2.494   6.733   3.095
14614TIP3   OH243784   7.370   4.675   3.321
14614TIP3    H143785   7.448   4.627   3.351
14614TIP3    H243786   7.374   4.669   3.225
14615TIP3   OH243787   2.013   3.726   3.825
14615TIP3    H143788   2.070   3.648   3.829
14615TIP3    H243789   2.057   3.785   3.764
14616TIP3   OH243790   2.710   2.642   6.124
14616TIP3    H143791   2.772   2.681   6.062
14616TIP3    H243792   2.704   2.550   6.097
14617TIP3   OH243793   6.089   0.055   1.042
14617TIP3    H143794   6.098   0.035   0.949
14617TIP3    H243795   6.176   0.038   1.079
14618TIP3   OH243796   6.396   7.654   1.980
14618TIP3    H143797   6.326   7.594   2.006
14618TIP3    H243798   6.432   7.686   2.062
14619TIP3   OH243799   2.655   6.675   2.288
14619TIP3    H143800   2.717   6.659   2.359
14619TIP3    H243801   2.710   6.706   2.216
14620TIP3   OH243802   0.894   2.304   1.392
14620TIP3    H143803   0.801   2.315   1.372
14620TIP3    H243804   0.897   2.229   1.452
14621TIP3   OH243805   1.413   1.823   3.897
14621TIP3    H143806   1.328   1.784   3.874
14621TIP3    H243807   1.411   1.909   3.855
14622TIP3   OH243808   6.539   3.854   2.152
14622TIP3    H143809   6.517   3.946   2.163
14622TIP3    H243810   6.631   3.848   2.179
14623TIP3   OH243811   7.350   4.033   3.966
14623TIP3    H143812   7.387   3.959   4.013
14623TIP3    H243813   7.273   4.058   4.017
14624TIP3   OH243814   2.059   2.082   1.471
14624TIP3    H143815   1.967   2.056   1.470
14624TIP3    H243816   2.092   2.049   1.554
14625TIP3   OH243817   7.459   7.281   1.501
14625TIP3    H143818   7.444   7.372   1.478
14625TIP3    H243819   7.438   7.232   1.422
14626TIP3   OH243820   0.124   1.077   6.049
14626TIP3    H143821   0.051   1.110   6.102
14626TIP3    H243822   0.081   1.042   5.970
14627TIP3   OH243823   6.886   4.765   4.028
14627TIP3    H143824   6.861   4.842   4.081
14627TIP3    H243825   6.880   4.692   4.089
14628TIP3   OH243826   1.569   3.184   3.233
14628TIP3    H143827   1.508   3.115   3.208
14628TIP3    H243828   1.628   3.143   3.296
14629TIP3   OH243829   1.527   6.107   6.321
14629TIP3    H143830   1.511   6.088   6.413
14629TIP3    H243831   1.599   6.049   6.296
14630TIP3   OH243832   0.801   7.089   1.658
14630TIP3    H143833   0.808   7.021   1.592
14630TIP3    H243834   0.839   7.167   1.617
14631TIP3   OH243835   6.865   5.768   1.261
14631TIP3    H143836   6.770   5.763   1.275
14631TIP3    H243837   6.882   5.710   1.187
14632TIP3   OH243838   1.080   0.114   1.072
14632TIP3    H143839   1.114   0.062   1.000
14632TIP3    H243840   0.985   0.115   1.058
14633TIP3   OH243841   6.096   0.849   3.229
14633TIP3    H143842   6.047   0.773   3.259
14633TIP3    H243843   6.078   0.854   3.135
14634TIP3   OH243844   2.899   4.118   2.383
14634TIP3    H143845   2.817   4.116   2.333
14634TIP3    H243846   2.878   4.073   2.465
14635TIP3   OH243847   3.852   2.796   4.491
14635TIP3    H143848   3.775   2.767   4.442
14635TIP3    H243849   3.885   2.716   4.532
14636TIP3   OH243850   7.539   2.162   4.848
14636TIP3    H143851   7.513   2.098   4.915
14636TIP3    H243852   7.633   2.171   4.859
14637TIP3   OH243853   7.935   1.792   3.288
14637TIP3    H143854   8.004   1.833   3.340
14637TIP3    H243855   7.966   1.703   3.272
14638TIP3   OH243856   4.938   6.861   2.793
14638TIP3    H143857   4.995   6.937   2.805
14638TIP3    H243858   4.980   6.791   2.841
14639TIP3   OH243859   8.214   1.432   4.808
14639TIP3    H143860   8.278   1.496   4.842
14639TIP3    H243861   8.264   1.376   4.749
14640TIP3   OH243862   7.599   4.215   4.087
14640TIP3    H143863   7.567   4.132   4.051
14640TIP3    H243864   7.694   4.208   4.081
14641TIP3   OH243865   0.977   0.905   2.547
14641TIP3    H143866   1.002   0.997   2.541
14641TIP3    H243867   0.905   0.896   2.485
14642TIP3   OH243868   3.807   1.761   5.449
14642TIP3    H143869   3.901   1.771   5.460
14642TIP3    H243870   3.796   1.680   5.401
14643TIP3   OH243871   2.131   1.382   2.302
14643TIP3    H143872   2.216   1.388   2.259
14643TIP3    H243873   2.089   1.306   2.262
14644TIP3   OH243874   2.637   0.589   1.811
14644TIP3    H143875   2.548   0.555   1.796
14644TIP3    H243876   2.689   0.511   1.831
14645TIP3   OH243877   7.172   3.284   0.083
14645TIP3    H143878   7.104   3.317   0.143
14645TIP3    H243879   7.156   3.332   0.001
14646TIP3   OH243880   6.379   0.411   3.475
14646TIP3    H143881   6.397   0.502   3.450
14646TIP3    H243882   6.345   0.371   3.395
14647TIP3   OH243883   8.252   7.732   0.672
14647TIP3    H143884   8.247   7.733   0.576
14647TIP3    H243885   8.176   7.782   0.700
14648TIP3   OH243886   6.500   4.151   1.084
14648TIP3    H143887   6.438   4.104   1.140
14648TIP3    H243888   6.556   4.082   1.047
14649TIP3   OH243889   1.117   7.423   3.820
14649TIP3    H143890   1.169   7.502   3.806
14649TIP3    H243891   1.066   7.413   3.739
14650TIP3   OH243892   8.158   0.140   0.272
14650TIP3    H143893   8.153   0.044   0.279
14650TIP3    H243894   8.069   0.171   0.288
14651TIP3   OH243895   7.175   3.338   0.400
14651TIP3    H143896   7.217   3.358   0.484
14651TIP3    H243897   7.200   3.247   0.382
14652TIP3   OH243898   6.308   4.207   2.551
14652TIP3    H143899   6.282   4.147   2.620
14652TIP3    H243900   6.314   4.153   2.473
14653TIP3   OH243901   3.395   6.630   4.646
14653TIP3    H143902   3.392   6.675   4.730
14653TIP3    H243903   3.410   6.538   4.667
14654TIP3   OH243904   6.657   3.345   4.213
14654TIP3    H143905   6.723   3.414   4.226
14654TIP3    H243906   6.668   3.319   4.122
14655TIP3   OH243907   4.153   6.563   1.408
14655TIP3    H143908   4.182   6.480   1.370
14655TIP3    H243909   4.202   6.571   1.489
14656TIP3   OH243910   3.837   1.092   3.076
14656TIP3    H143911   3.868   1.050   3.156
14656TIP3    H243912   3.828   1.184   3.098
14657TIP3   OH243913   7.519   0.798   5.405
14657TIP3    H143914   7.510   0.737   5.332
14657TIP3    H243915   7.541   0.742   5.480
14658TIP3   OH243916   6.796   4.604   6.282
14658TIP3    H143917   6.749   4.610   6.198
14658TIP3    H243918   6.731   4.569   6.343
14659TIP3   OH243919   0.331   4.660   2.180
14659TIP3    H143920   0.350   4.737   2.233
14659TIP3    H243921   0.366   4.586   2.231
14660TIP3   OH243922   3.535   0.691   5.995
14660TIP3    H143923   3.518   0.706   5.902
14660TIP3    H243924   3.598   0.620   5.997
14661TIP3   OH243925   4.362   4.747   0.248
14661TIP3    H143926   4.431   4.768   0.185
14661TIP3    H243927   4.284   4.737   0.195
14662TIP3   OH243928   5.339   4.591   3.495
14662TIP3    H143929   5.295   4.635   3.422
14662TIP3    H243930   5.427   4.572   3.461
14663TIP3   OH243931   4.569   5.344   5.183
14663TIP3    H143932   4.569   5.370   5.275
14663TIP3    H243933   4.493   5.288   5.173
14664TIP3   OH243934   4.736   5.183   3.835
14664TIP3    H143935   4.712   5.276   3.837
14664TIP3    H243936   4.687   5.144   3.907
14665TIP3   OH243937   1.122   1.722   5.060
14665TIP3    H143938   1.198   1.779   5.065
14665TIP3    H243939   1.087   1.736   4.972
14666TIP3   OH243940   2.978   4.983   2.713
14666TIP3    H143941   3.054   4.945   2.670
14666TIP3    H243942   3.014   5.056   2.765
14667TIP3   OH243943   5.941   2.302   4.331
14667TIP3    H143944   6.027   2.260   4.335
14667TIP3    H243945   5.949   2.365   4.259
14668TIP3   OH243946   4.211   5.339   3.586
14668TIP3    H143947   4.209   5.303   3.674
14668TIP3    H243948   4.303   5.343   3.563
14669TIP3   OH243949   0.247   6.724   6.176
14669TIP3    H143950   0.308   6.661   6.212
14669TIP3    H243951   0.166   6.675   6.163
14670TIP3   OH243952   2.402   7.340   1.001
14670TIP3    H143953   2.473   7.377   1.054
14670TIP3    H243954   2.328   7.398   1.016
14671TIP3   OH243955   0.465   3.421   0.939
14671TIP3    H143956   0.490   3.514   0.940
14671TIP3    H243957   0.392   3.416   1.001
14672TIP3   OH243958   6.052   7.723   1.790
14672TIP3    H143959   5.976   7.746   1.737
14672TIP3    H243960   6.115   7.687   1.727
14673TIP3   OH243961   5.323   2.517   0.106
14673TIP3    H143962   5.380   2.562   0.044
14673TIP3    H243963   5.244   2.571   0.109
14674TIP3   OH243964   4.049   3.397   3.375
14674TIP3    H143965   4.079   3.437   3.456
14674TIP3    H243966   4.128   3.392   3.321
14675TIP3   OH243967   7.282   3.994   1.777
14675TIP3    H143968   7.266   4.087   1.789
14675TIP3    H243969   7.372   3.981   1.806
14676TIP3   OH243970   4.784   7.184   3.525
14676TIP3    H143971   4.877   7.207   3.516
14676TIP3    H243972   4.759   7.154   3.438
14677TIP3   OH243973   6.323   6.925   3.131
14677TIP3    H143974   6.396   6.885   3.178
14677TIP3    H243975   6.272   6.851   3.098
14678TIP3   OH243976   4.139   7.570   4.166
14678TIP3    H143977   4.145   7.590   4.259
14678TIP3    H243978   4.162   7.478   4.159
14679TIP3   OH243979   1.875   3.016   2.917
14679TIP3    H143980   1.900   3.061   2.998
14679TIP3    H243981   1.950   2.960   2.897
14680TIP3   OH243982   1.979   6.167   1.195
14680TIP3    H143983   1.911   6.133   1.137
14680TIP3    H243984   1.992   6.097   1.259
14681TIP3   OH243985   0.640   3.502   1.579
14681TIP3    H143986   0.627   3.416   1.539
14681TIP3    H243987   0.701   3.486   1.651
14682TIP3   OH243988   0.195   3.443   0.115
14682TIP3    H143989   0.145   3.406   0.188
14682TIP3    H243990   0.212   3.369   0.057
14683TIP3   OH243991   1.731   3.184   5.021
14683TIP3    H143992   1.735   3.274   4.988
14683TIP3    H243993   1.639   3.159   5.012
14684TIP3   OH243994   3.097   7.449   5.949
14684TIP3    H143995   3.092   7.358   5.979
14684TIP3    H243996   3.028   7.494   5.996
14685TIP3   OH243997   4.714   0.891   1.109
14685TIP3    H143998   4.723   0.986   1.105
14685TIP3    H243999   4.624   0.874   1.082
14686TIP3   OH244000   0.306   5.212   3.973
14686TIP3    H144001   0.299   5.302   3.942
14686TIP3    H244002   0.318   5.160   3.894
14687TIP3   OH244003   3.075   4.952   6.230
14687TIP3    H144004   3.010   4.915   6.290
14687TIP3    H244005   3.122   5.016   6.282
14688TIP3   OH244006   1.257   2.545   1.841
14688TIP3    H144007   1.199   2.608   1.884
14688TIP3    H244008   1.206   2.511   1.768
14689TIP3   OH244009   0.318   1.095   3.061
14689TIP3    H144010   0.278   1.146   2.990
14689TIP3    H244011   0.412   1.108   3.049
14690TIP3   OH244012   3.439   6.436   5.994
14690TIP3    H144013   3.447   6.491   5.916
14690TIP3    H244014   3.417   6.349   5.960
14691TIP3   OH244015   0.038   2.679   4.716
14691TIP3    H144016   0.035   2.760   4.767
14691TIP3    H244017   0.107   2.627   4.756
14692TIP3   OH244018   4.014   7.098   1.909
14692TIP3    H144019   4.098   7.065   1.878
14692TIP3    H244020   3.999   7.051   1.992
14693TIP3   OH244021   4.697   4.069   5.589
14693TIP3    H144022   4.678   4.019   5.669
14693TIP3    H244023   4.732   4.152   5.620
14694TIP3   OH244024   3.782   0.607   3.004
14694TIP3    H144025   3.793   0.632   2.912
14694TIP3    H244026   3.814   0.683   3.053
14695TIP3   OH244027   6.717   3.375   6.681
14695TIP3    H144028   6.639   3.411   6.722
14695TIP3    H244029   6.692   3.287   6.654
14696TIP3   OH244030   0.764   4.229   2.449
14696TIP3    H144031   0.760   4.140   2.484
14696TIP3    H244032   0.742   4.285   2.523
14697TIP3   OH244033   5.739   2.587   5.308
14697TIP3    H144034   5.824   2.566   5.348
14697TIP3    H244035   5.761   2.637   5.230
14698TIP3   OH244036   7.739   5.042   2.597
14698TIP3    H144037   7.718   4.978   2.665
14698TIP3    H244038   7.709   5.126   2.633
14699TIP3   OH244039   1.956   4.961   2.411
14699TIP3    H144040   1.972   4.932   2.501
14699TIP3    H244041   1.977   4.884   2.357
14700TIP3   OH244042   6.997   4.824   5.529
14700TIP3    H144043   6.904   4.823   5.554
14700TIP3    H244044   7.011   4.740   5.485
14701TIP3   OH244045   1.173   4.789   3.236
14701TIP3    H144046   1.157   4.875   3.276
14701TIP3    H244047   1.133   4.727   3.296
14702TIP3   OH244048   7.881   3.960   5.854
14702TIP3    H144049   7.927   4.044   5.847
14702TIP3    H244050   7.907   3.926   5.939
14703TIP3   OH244051   7.520   3.737   5.980
14703TIP3    H144052   7.611   3.715   5.960
14703TIP3    H244053   7.469   3.692   5.913
14704TIP3   OH244054   1.711   5.168   5.199
14704TIP3    H144055   1.738   5.254   5.167
14704TIP3    H244056   1.792   5.128   5.232
14705TIP3   OH244057   7.745   6.703   0.833
14705TIP3    H144058   7.786   6.648   0.767
14705TIP3    H244059   7.732   6.787   0.789
14706TIP3   OH244060   7.428   6.299   4.745
14706TIP3    H144061   7.453   6.207   4.760
14706TIP3    H244062   7.469   6.346   4.817
14707TIP3   OH244063   6.336   2.916   3.523
14707TIP3    H144064   6.430   2.928   3.532
14707TIP3    H244065   6.327   2.834   3.476
14708TIP3   OH244066   0.560   3.919   4.085
14708TIP3    H144067   0.468   3.898   4.101
14708TIP3    H244068   0.598   3.928   4.173
14709TIP3   OH244069   5.038   7.101   1.084
14709TIP3    H144070   5.094   7.177   1.069
14709TIP3    H244071   4.997   7.117   1.169
14710TIP3   OH244072   7.498   5.675   4.150
14710TIP3    H144073   7.548   5.662   4.231
14710TIP3    H244074   7.457   5.761   4.160
14711TIP3   OH244075   3.299   3.036   5.695
14711TIP3    H144076   3.294   2.977   5.769
14711TIP3    H244077   3.380   3.012   5.650
14712TIP3   OH244078   2.213   4.538   0.263
14712TIP3    H144079   2.160   4.460   0.279
14712TIP3    H244080   2.297   4.504   0.231
14713TIP3   OH244081   5.537   2.109   5.805
14713TIP3    H144082   5.629   2.135   5.812
14713TIP3    H244083   5.536   2.043   5.736
14714TIP3   OH244084   6.529   3.740   0.882
14714TIP3    H144085   6.472   3.714   0.955
14714TIP3    H244086   6.583   3.663   0.866
14715TIP3   OH244087   3.351   3.251   3.270
14715TIP3    H144088   3.394   3.203   3.199
14715TIP3    H244089   3.266   3.276   3.233
14716TIP3   OH244090   3.485   6.024   4.160
14716TIP3    H144091   3.407   5.970   4.146
14716TIP3    H244092   3.553   5.982   4.107
14717TIP3   OH244093   7.972   2.876   0.049
14717TIP3    H144094   8.062   2.893   0.022
14717TIP3    H244095   7.976   2.792   0.095
14718TIP3   OH244096   2.619   7.317   1.564
14718TIP3    H144097   2.650   7.311   1.654
14718TIP3    H244098   2.541   7.263   1.562
14719TIP3   OH244099   5.314   3.238   2.661
14719TIP3    H144100   5.333   3.229   2.755
14719TIP3    H244101   5.388   3.288   2.626
14720TIP3   OH244102   2.273   3.602   2.256
14720TIP3    H144103   2.289   3.664   2.327
14720TIP3    H244104   2.359   3.589   2.215
14721TIP3   OH244105   7.215   7.110   1.583
14721TIP3    H144106   7.307   7.121   1.558
14721TIP3    H244107   7.208   7.018   1.607
14722TIP3   OH244108   8.095   3.786   1.289
14722TIP3    H144109   8.068   3.869   1.330
14722TIP3    H244110   8.057   3.719   1.345
14723TIP3   OH244111   6.301   5.311   1.059
14723TIP3    H144112   6.217   5.310   1.105
14723TIP3    H244113   6.362   5.351   1.122
14724TIP3   OH244114   2.325   4.183   2.642
14724TIP3    H144115   2.367   4.192   2.556
14724TIP3    H244116   2.380   4.233   2.702
14725TIP3   OH244117   6.482   4.277   0.487
14725TIP3    H144118   6.458   4.359   0.530
14725TIP3    H244119   6.563   4.297   0.440
14726TIP3   OH244120   5.295   5.992   4.571
14726TIP3    H144121   5.246   5.979   4.652
14726TIP3    H244122   5.298   6.086   4.559
14727TIP3   OH244123   3.794   1.278   0.083
14727TIP3    H144124   3.741   1.242   0.013
14727TIP3    H244125   3.809   1.205   0.142
14728TIP3   OH244126   2.528   0.541   5.259
14728TIP3    H144127   2.536   0.542   5.163
14728TIP3    H244128   2.556   0.453   5.285
14729TIP3   OH244129   1.401   3.928   4.252
14729TIP3    H144130   1.417   3.835   4.265
14729TIP3    H244131   1.353   3.956   4.330
14730TIP3   OH244132   4.842   6.520   5.437
14730TIP3    H144133   4.807   6.535   5.524
14730TIP3    H244134   4.794   6.443   5.404
14731TIP3   OH244135   8.190   4.050   3.306
14731TIP3    H144136   8.163   3.963   3.334
14731TIP3    H244137   8.153   4.059   3.218
14732TIP3   OH244138   0.451   1.070   1.540
14732TIP3    H144139   0.389   1.128   1.585
14732TIP3    H244140   0.535   1.115   1.547
14733TIP3   OH244141   4.360   0.896   0.966
14733TIP3    H144142   4.427   0.935   0.909
14733TIP3    H244143   4.347   0.808   0.932
14734TIP3   OH244144   5.832   0.213   6.044
14734TIP3    H144145   5.766   0.166   6.095
14734TIP3    H244146   5.915   0.190   6.086
14735TIP3   OH244147   5.947   5.651   0.489
14735TIP3    H144148   5.999   5.617   0.416
14735TIP3    H244149   5.869   5.595   0.491
14736TIP3   OH244150   1.172   5.726   5.451
14736TIP3    H144151   1.079   5.747   5.465
14736TIP3    H244152   1.211   5.736   5.538
14737TIP3   OH244153   3.544   1.915   1.115
14737TIP3    H144154   3.616   1.966   1.152
14737TIP3    H244155   3.498   1.976   1.058
14738TIP3   OH244156   7.663   2.991   3.058
14738TIP3    H144157   7.756   2.972   3.049
14738TIP3    H244158   7.642   3.043   2.980
14739TIP3   OH244159   1.826   7.505   5.949
14739TIP3    H144160   1.914   7.539   5.932
14739TIP3    H244161   1.769   7.559   5.895
14740TIP3   OH244162   4.993   3.102   2.706
14740TIP3    H144163   5.029   3.125   2.792
14740TIP3    H244164   5.065   3.119   2.645
14741TIP3   OH244165   1.357   0.691   0.089
14741TIP3    H144166   1.376   0.627   0.021
14741TIP3    H244167   1.444   0.719   0.121
14742TIP3   OH244168   4.681   1.488   1.990
14742TIP3    H144169   4.736   1.557   1.953
14742TIP3    H244170   4.613   1.535   2.038
14743TIP3   OH244171   0.002   3.546   3.114
14743TIP3    H144172  -0.028   3.621   3.063
14743TIP3    H244173   0.080   3.515   3.067
14744TIP3   OH244174   2.820   0.121   5.551
14744TIP3    H144175   2.891   0.081   5.601
14744TIP3    H244176   2.833   0.215   5.562
14745TIP3   OH244177   0.895   0.081   1.517
14745TIP3    H144178   0.971   0.077   1.460
14745TIP3    H244179   0.912   0.014   1.584
14746TIP3   OH244180   6.925   4.182   4.320
14746TIP3    H144181   6.830   4.191   4.310
14746TIP3    H244182   6.936   4.137   4.404
14747TIP3   OH244183   7.643   0.302   0.409
14747TIP3    H144184   7.564   0.356   0.403
14747TIP3    H244185   7.714   0.362   0.385
14748TIP3   OH244186   1.125   7.096   4.664
14748TIP3    H144187   1.126   7.000   4.656
14748TIP3    H244188   1.049   7.114   4.720
14749TIP3   OH244189   3.683   6.474   6.210
14749TIP3    H144190   3.756   6.514   6.164
14749TIP3    H244191   3.637   6.424   6.142
14750TIP3   OH244192   3.036   1.491   0.837
14750TIP3    H144193   3.015   1.436   0.762
14750TIP3    H244194   3.128   1.515   0.824
14751TIP3   OH244195   0.793   6.841   5.859
14751TIP3    H144196   0.856   6.771   5.845
14751TIP3    H244197   0.722   6.801   5.909
14752TIP3   OH244198   0.345   4.629   1.088
14752TIP3    H144199   0.324   4.616   1.180
14752TIP3    H244200   0.440   4.623   1.083
14753TIP3   OH244201   4.655   7.018   1.172
14753TIP3    H144202   4.722   7.079   1.203
14753TIP3    H244203   4.698   6.933   1.171
14754TIP3   OH244204   2.743   2.766   4.743
14754TIP3    H144205   2.709   2.813   4.667
14754TIP3    H244206   2.771   2.835   4.803
14755TIP3   OH244207   4.667   5.146   1.536
14755TIP3    H144208   4.646   5.143   1.629
14755TIP3    H244209   4.751   5.100   1.528
14756TIP3   OH244210   7.093   1.868   0.299
14756TIP3    H144211   7.035   1.928   0.253
14756TIP3    H244212   7.040   1.834   0.371
14757TIP3   OH244213   2.965   5.592   4.245
14757TIP3    H144214   3.027   5.622   4.312
14757TIP3    H244215   2.889   5.649   4.256
14758TIP3   OH244216   3.706   5.310   1.259
14758TIP3    H144217   3.745   5.332   1.344
14758TIP3    H244218   3.759   5.237   1.226
14759TIP3   OH244219   0.779   0.942   6.167
14759TIP3    H144220   0.754   0.997   6.241
14759TIP3    H244221   0.862   0.979   6.135
14760TIP3   OH244222   1.154   6.659   6.451
14760TIP3    H144223   1.212   6.676   6.377
14760TIP3    H244224   1.149   6.743   6.497
14761TIP3   OH244225   5.684   1.030   4.025
14761TIP3    H144226   5.593   1.051   4.042
14761TIP3    H244227   5.733   1.108   4.054
14762TIP3   OH244228   1.508   1.952   5.520
14762TIP3    H144229   1.467   1.973   5.436
14762TIP3    H244230   1.546   1.865   5.507
14763TIP3   OH244231   7.310   6.098   0.006
14763TIP3    H144232   7.262   6.104   0.089
14763TIP3    H244233   7.264   6.030  -0.043
14764TIP3   OH244234   2.683   2.264   4.115
14764TIP3    H144235   2.668   2.201   4.045
14764TIP3    H244236   2.655   2.348   4.078
14765TIP3   OH244237   3.051   0.292   3.636
14765TIP3    H144238   2.976   0.244   3.670
14765TIP3    H244239   3.057   0.369   3.692
14766TIP3   OH244240   2.752   7.025   1.717
14766TIP3    H144241   2.725   6.956   1.656
14766TIP3    H244242   2.776   6.979   1.797
14767TIP3   OH244243   1.065   0.724   6.527
14767TIP3    H144244   1.077   0.661   6.597
14767TIP3    H244245   0.993   0.688   6.474
14768TIP3   OH244246   7.687   6.151   4.170
14768TIP3    H144247   7.702   6.061   4.142
14768TIP3    H244248   7.620   6.185   4.111
14769TIP3   OH244249   2.800   6.149   1.190
14769TIP3    H144250   2.885   6.189   1.171
14769TIP3    H244251   2.763   6.204   1.259
14770TIP3   OH244252   1.112   7.038   2.520
14770TIP3    H144253   1.094   7.095   2.595
14770TIP3    H244254   1.036   6.979   2.516
14771TIP3   OH244255   4.311   5.713   3.059
14771TIP3    H144256   4.377   5.752   3.116
14771TIP3    H244257   4.248   5.672   3.118
14772TIP3   OH244258   5.914   5.812   4.290
14772TIP3    H144259   5.873   5.861   4.218
14772TIP3    H244260   5.936   5.727   4.251
14773TIP3   OH244261   2.202   5.849   6.203
14773TIP3    H144262   2.225   5.932   6.162
14773TIP3    H244263   2.222   5.861   6.296
14774TIP3   OH244264   0.840   3.804   6.421
14774TIP3    H144265   0.770   3.763   6.370
14774TIP3    H244266   0.804   3.809   6.510
14775TIP3   OH244267   4.298   4.125   3.753
14775TIP3    H144268   4.269   4.096   3.839
14775TIP3    H244269   4.226   4.103   3.694
14776TIP3   OH244270   1.509   0.532   6.701
14776TIP3    H144271   1.589   0.561   6.745
14776TIP3    H244272   1.540   0.485   6.623
14777TIP3   OH244273   4.974   1.801   2.129
14777TIP3    H144274   4.910   1.759   2.188
14777TIP3    H244275   4.921   1.833   2.056
14778TIP3   OH244276   1.322   5.157   4.664
14778TIP3    H144277   1.363   5.085   4.713
14778TIP3    H244278   1.237   5.169   4.707
14779TIP3   OH244279   6.051   2.205   1.519
14779TIP3    H144280   6.003   2.144   1.576
14779TIP3    H244281   5.986   2.232   1.454
14780TIP3   OH244282   6.085   0.893   5.477
14780TIP3    H144283   6.023   0.871   5.547
14780TIP3    H244284   6.147   0.954   5.519
14781TIP3   OH244285   6.997   5.851   4.592
14781TIP3    H144286   7.010   5.942   4.620
14781TIP3    H244287   7.083   5.810   4.602
14782TIP3   OH244288   7.228   7.395   2.570
14782TIP3    H144289   7.155   7.456   2.574
14782TIP3    H244290   7.225   7.360   2.481
14783TIP3   OH244291   5.555   2.377   3.279
14783TIP3    H144292   5.570   2.458   3.328
14783TIP3    H244293   5.490   2.330   3.331
14784TIP3   OH244294   7.270   5.826   5.333
14784TIP3    H144295   7.356   5.867   5.330
14784TIP3    H244296   7.250   5.803   5.242
14785TIP3   OH244297   3.343   4.198   6.162
14785TIP3    H144298   3.289   4.177   6.238
14785TIP3    H244299   3.309   4.281   6.130
14786TIP3   OH244300   4.700   3.950   5.878
14786TIP3    H144301   4.766   3.881   5.888
14786TIP3    H244302   4.681   3.978   5.967
14787TIP3   OH244303   4.778   6.456   2.834
14787TIP3    H144304   4.735   6.430   2.915
14787TIP3    H244305   4.796   6.374   2.789
14788TIP3   OH244306   3.250   1.680   0.496
14788TIP3    H144307   3.183   1.702   0.432
14788TIP3    H244308   3.325   1.650   0.444
14789TIP3   OH244309   3.795   3.921   2.100
14789TIP3    H144310   3.742   3.986   2.054
14789TIP3    H244311   3.872   3.911   2.045
14790TIP3   OH244312   2.614   0.558   5.838
14790TIP3    H144313   2.618   0.641   5.886
14790TIP3    H244314   2.559   0.501   5.893
14791TIP3   OH244315   6.577   6.974   4.885
14791TIP3    H144316   6.638   6.932   4.945
14791TIP3    H244317   6.632   7.006   4.814
14792TIP3   OH244318   3.817   5.020   6.115
14792TIP3    H144319   3.771   4.980   6.041
14792TIP3    H244320   3.909   5.010   6.094
14793TIP3   OH244321   3.429   4.381   0.826
14793TIP3    H144322   3.442   4.464   0.781
14793TIP3    H244323   3.365   4.334   0.773
14794TIP3   OH244324   6.125   2.715   3.962
14794TIP3    H144325   6.093   2.640   3.912
14794TIP3    H244326   6.057   2.782   3.950
14795TIP3   OH244327   0.097   5.978   4.735
14795TIP3    H144328   0.183   6.010   4.765
14795TIP3    H244329   0.112   5.885   4.716
14796TIP3   OH244330   5.788   5.415   1.645
14796TIP3    H144331   5.752   5.432   1.559
14796TIP3    H244332   5.795   5.502   1.685
14797TIP3   OH244333   5.442   7.421   0.515
14797TIP3    H144334   5.451   7.463   0.429
14797TIP3    H244335   5.480   7.484   0.577
14798TIP3   OH244336   5.841   6.827   2.215
14798TIP3    H144337   5.895   6.766   2.165
14798TIP3    H244338   5.751   6.800   2.197
14799TIP3   OH244339   1.249   2.563   1.463
14799TIP3    H144340   1.340   2.561   1.432
14799TIP3    H244341   1.213   2.478   1.438
14800TIP3   OH244342   1.743   7.251   4.670
14800TIP3    H144343   1.695   7.334   4.674
14800TIP3    H244344   1.690   7.190   4.721
14801TIP3   OH244345   0.265   7.477   6.501
14801TIP3    H144346   0.280   7.415   6.572
14801TIP3    H244347   0.339   7.537   6.505
14802TIP3   OH244348   4.772   0.306   0.948
14802TIP3    H144349   4.804   0.344   0.866
14802TIP3    H244350   4.849   0.268   0.989
14803TIP3   OH244351   3.284   2.605   1.429
14803TIP3    H144352   3.375   2.631   1.443
14803TIP3    H244353   3.235   2.687   1.427
14804TIP3   OH244354   1.585   6.910   5.443
14804TIP3    H144355   1.632   6.882   5.521
14804TIP3    H244356   1.652   6.945   5.385
14805TIP3   OH244357   1.804   3.566   6.686
14805TIP3    H144358   1.718   3.604   6.672
14805TIP3    H244359   1.817   3.507   6.611
14806TIP3   OH244360   5.324   6.423   3.125
14806TIP3    H144361   5.338   6.504   3.175
14806TIP3    H244362   5.304   6.453   3.036
14807TIP3   OH244363   0.510   0.856   5.028
14807TIP3    H144364   0.504   0.792   5.099
14807TIP3    H244365   0.544   0.935   5.069
14808TIP3   OH244366   7.561   4.704   0.576
14808TIP3    H144367   7.622   4.760   0.624
14808TIP3    H244368   7.595   4.702   0.487
14809TIP3   OH244369   5.289   6.401   4.816
14809TIP3    H144370   5.278   6.486   4.858
14809TIP3    H244371   5.260   6.338   4.881
14810TIP3   OH244372   4.946   3.395   0.537
14810TIP3    H144373   5.039   3.411   0.553
14810TIP3    H244374   4.941   3.302   0.515
14811TIP3   OH244375   5.743   4.786   1.849
14811TIP3    H144376   5.824   4.739   1.828
14811TIP3    H244377   5.676   4.718   1.854
14812TIP3   OH244378   7.485   6.181   0.760
14812TIP3    H144379   7.572   6.184   0.721
14812TIP3    H244380   7.489   6.108   0.822
14813TIP3   OH244381   5.116   1.607   1.941
14813TIP3    H144382   5.080   1.522   1.963
14813TIP3    H244383   5.083   1.666   2.009
14814TIP3   OH244384   6.616   5.976   6.379
14814TIP3    H144385   6.646   5.915   6.447
14814TIP3    H244386   6.668   5.954   6.302
14815TIP3   OH244387   5.042   0.362   2.777
14815TIP3    H144388   5.046   0.416   2.855
14815TIP3    H244389   5.079   0.278   2.804
   8.29850   7.82390   6.77569   0.00000   0.00000  -2.76617   0.00000  -2.76617  -3.91195
