Title t=  98.00000 step= 49000
29212
    1ASP      N    1   1.786   1.271   2.256
    1ASP    HT1    2   1.722   1.354   2.261
    1ASP    HT2    3   1.881   1.286   2.216
    1ASP    HT3    4   1.801   1.245   2.356
    1ASP     CA    5   1.722   1.161   2.181
    1ASP     HA    6   1.688   1.202   2.087
    1ASP     CB    7   1.809   1.040   2.168
    1ASP    HB1    8   1.751   0.948   2.144
    1ASP    HB2    9   1.854   1.012   2.267
    1ASP     CG   10   1.925   1.056   2.068
    1ASP    OD1   11   1.934   1.160   1.996
    1ASP    OD2   12   2.019   0.971   2.063
    1ASP      C   13   1.597   1.128   2.260
    1ASP      O   14   1.584   1.175   2.375
    2GLY      N   15   1.494   1.049   2.203
    2GLY     HN   16   1.502   0.995   2.120
    2GLY     CA   17   1.363   1.040   2.280
    2GLY    HA1   18   1.379   1.023   2.386
    2GLY    HA2   19   1.320   0.951   2.239
    2GLY      C   20   1.280   1.164   2.260
    2GLY      O   21   1.308   1.245   2.171
    3ASP      N   22   1.175   1.190   2.336
    3ASP     HN   23   1.151   1.127   2.410
    3ASP     CA   24   1.096   1.309   2.347
    3ASP     HA   25   1.032   1.312   2.259
    3ASP     CB   26   1.005   1.289   2.475
    3ASP    HB1   27   0.962   1.390   2.491
    3ASP    HB2   28   1.068   1.276   2.565
    3ASP     CG   29   0.902   1.176   2.461
    3ASP    OD1   30   0.853   1.128   2.565
    3ASP    OD2   31   0.855   1.146   2.348
    3ASP      C   32   1.168   1.447   2.339
    3ASP      O   33   1.276   1.463   2.398
    4GLY      N   34   1.122   1.540   2.250
    4GLY     HN   35   1.048   1.516   2.188
    4GLY     CA   36   1.174   1.681   2.240
    4GLY    HA1   37   1.150   1.723   2.143
    4GLY    HA2   38   1.281   1.671   2.229
    4GLY      C   39   1.145   1.774   2.358
    4GLY      O   40   1.078   1.734   2.457
    5PRO      N   41   1.203   1.892   2.354
    5PRO     CD   42   1.315   1.920   2.271
    5PRO    HD1   43   1.284   1.953   2.170
    5PRO    HD2   44   1.385   1.834   2.271
    5PRO     CA   45   1.182   1.989   2.463
    5PRO     HA   46   1.220   1.934   2.547
    5PRO     CB   47   1.274   2.102   2.418
    5PRO    HB1   48   1.317   2.155   2.506
    5PRO    HB2   49   1.219   2.166   2.346
    5PRO     CG   50   1.383   2.039   2.339
    5PRO    HG1   51   1.426   2.110   2.265
    5PRO    HG2   52   1.465   2.011   2.409
    5PRO      C   53   1.038   2.027   2.498
    5PRO      O   54   0.957   2.061   2.409
    6GLY      N   55   1.001   2.024   2.631
    6GLY     HN   56   1.065   1.999   2.703
    6GLY     CA   57   0.876   2.063   2.683
    6GLY    HA1   58   0.834   1.973   2.724
    6GLY    HA2   59   0.811   2.085   2.600
    6GLY      C   60   0.886   2.183   2.775
    6GLY      O   61   0.959   2.280   2.745
    7ASP      N   62   0.811   2.181   2.880
    7ASP     HN   63   0.746   2.107   2.891
    7ASP     CA   64   0.809   2.285   2.979
    7ASP     HA   65   0.834   2.378   2.930
    7ASP     CB   66   0.671   2.294   3.056
    7ASP    HB1   67   0.684   2.358   3.146
    7ASP    HB2   68   0.638   2.195   3.095
    7ASP     CG   69   0.557   2.346   2.973
    7ASP    OD1   70   0.437   2.315   2.998
    7ASP    OD2   71   0.581   2.442   2.900
    7ASP      C   72   0.923   2.265   3.085
    7ASP      O   73   0.967   2.149   3.103
    8PRO      N   74   0.980   2.369   3.151
    8PRO     CD   75   0.946   2.503   3.109
    8PRO    HD1   76   0.837   2.523   3.117
    8PRO    HD2   77   0.986   2.526   3.008
    8PRO     CA   78   1.052   2.357   3.276
    8PRO     HA   79   1.152   2.321   3.257
    8PRO     CB   80   1.046   2.504   3.330
    8PRO    HB1   81   1.128   2.525   3.401
    8PRO    HB2   82   0.962   2.522   3.401
    8PRO     CG   83   1.018   2.594   3.210
    8PRO    HG1   84   0.974   2.696   3.223
    8PRO    HG2   85   1.117   2.609   3.162
    8PRO      C   86   0.991   2.257   3.372
    8PRO      O   87   0.871   2.238   3.372
    9GLY      N   88   1.081   2.185   3.449
    9GLY     HN   89   1.179   2.198   3.433
    9GLY     CA   90   1.031   2.079   3.540
    9GLY    HA1   91   1.116   2.056   3.603
    9GLY    HA2   92   0.999   1.996   3.479
    9GLY      C   93   0.926   2.125   3.639
    9GLY      O   94   0.904   2.247   3.667
   10ASP      N   95   0.853   2.031   3.694
   10ASP     HN   96   0.871   1.935   3.676
   10ASP     CA   97   0.755   2.038   3.797
   10ASP     HA   98   0.668   2.078   3.747
   10ASP     CB   99   0.723   1.884   3.846
   10ASP    HB1  100   0.657   1.887   3.935
   10ASP    HB2  101   0.818   1.834   3.876
   10ASP     CG  102   0.646   1.796   3.741
   10ASP    OD1  103   0.623   1.844   3.625
   10ASP    OD2  104   0.608   1.679   3.772
   10ASP      C  105   0.785   2.129   3.914
   10ASP      O  106   0.702   2.211   3.949
   11GLY      N  107   0.900   2.115   3.982
   11GLY     HN  108   0.958   2.036   3.963
   11GLY     CA  109   0.946   2.214   4.082
   11GLY    HA1  110   0.900   2.310   4.067
   11GLY    HA2  111   1.054   2.215   4.082
   11GLY      C  112   0.908   2.184   4.228
   11GLY    OT1  113   0.938   2.079   4.281
   11GLY    OT2  114   0.835   2.263   4.292
   12LIT    LIT  115   4.259   5.363   1.579
   13LIT    LIT  116   1.711   2.741   5.419
   14LIT    LIT  117   3.193   0.211   0.195
   15LIT    LIT  118   3.464   1.722   1.951
   16LIT    LIT  119   0.803   2.119   4.424
   17LIT    LIT  120   3.245   5.215   4.344
   18LIT    LIT  121   2.125   1.670   4.616
   19LIT    LIT  122   1.043   6.824   0.915
   20LIT    LIT  123   6.740   1.840   3.521
   21LIT    LIT  124   1.843   0.273   2.834
   22LIT    LIT  125   5.673   4.248   0.349
   23LIT    LIT  126   3.887   4.671   5.385
   24LIT    LIT  127   6.451   4.346   2.679
   25LIT    LIT  128   0.387   2.474   2.891
   26LIT    LIT  129   0.511   1.945   3.521
   27LIT    LIT  130   4.001   0.931   4.265
   28LIT    LIT  131   4.986   1.299   0.710
   29LIT    LIT  132   0.627   3.317   2.611
   30LIT    LIT  133   6.883   2.103   1.919
   31LIT    LIT  134   4.631   0.809   2.499
   32LIT    LIT  135   7.141   1.701   1.334
   33LIT    LIT  136   4.204   3.771   1.829
   34LIT    LIT  137   5.115   1.167   4.046
   35LIT    LIT  138   0.872   2.255   1.982
   36LIT    LIT  139   6.615   5.603   0.340
   37LIT    LIT  140   3.567   4.897   1.285
   38LIT    LIT  141   0.065   1.477   5.698
   39LIT    LIT  142   2.119   1.090   1.950
   40LIT    LIT  143   2.419   6.616   3.012
   41LIT    LIT  144   3.971   0.853   2.985
   42LIT    LIT  145   0.726   1.038   2.432
   43CLA    CLA  146   2.533   6.717   3.178
   44CLA    CLA  147   6.194   1.230   4.059
   45CLA    CLA  148   2.765   3.216   4.701
   46CLA    CLA  149   5.219   3.301   0.813
   47CLA    CLA  150   6.945   1.440   1.947
   48CLA    CLA  151   3.804   1.811   4.296
   49CLA    CLA  152   2.766   5.301   2.711
   50CLA    CLA  153   3.580   4.554   0.952
   51CLA    CLA  154   0.061   1.990   1.692
   52CLA    CLA  155   3.811   4.323   4.422
   53CLA    CLA  156   4.776   2.903   1.214
   54CLA    CLA  157   3.641   1.300   2.153
   55CLA    CLA  158   7.137   3.167   4.205
   56CLA    CLA  159   1.376   3.624  -0.007
   57CLA    CLA  160   6.676   1.794   3.139
   58CLA    CLA  161   4.105   3.646   1.997
   59CLA    CLA  162   4.934   1.138   0.304
   60CLA    CLA  163  -0.020   6.324   4.142
   61CLA    CLA  164   1.400   0.426   0.362
   62CLA    CLA  165   2.718   6.394   0.018
   63CLA    CLA  166   0.734   1.056   1.694
   64CLA    CLA  167   3.962   2.212   0.115
   65CLA    CLA  168   6.450   4.320   1.646
   66CLA    CLA  169   4.378   0.359   3.035
   67CLA    CLA  170   5.397   1.777   2.488
   68CLA    CLA  171   0.353   2.429   2.416
   69CLA    CLA  172   4.128   4.362   1.531
   70TIP3   OH2  173   5.764   2.998   0.067
   70TIP3    H1  174   5.849   2.972   0.103
   70TIP3    H2  175   5.717   2.915   0.056
   71TIP3   OH2  176   1.129   6.103   3.205
   71TIP3    H1  177   1.101   6.185   3.245
   71TIP3    H2  178   1.049   6.064   3.171
   72TIP3   OH2  179   4.243   3.979   4.538
   72TIP3    H1  180   4.200   4.064   4.542
   72TIP3    H2  181   4.193   3.924   4.598
   73TIP3   OH2  182   2.708   2.772   0.361
   73TIP3    H1  183   2.746   2.832   0.425
   73TIP3    H2  184   2.760   2.692   0.368
   74TIP3   OH2  185   4.126   5.794   3.631
   74TIP3    H1  186   4.170   5.731   3.574
   74TIP3    H2  187   4.086   5.740   3.699
   75TIP3   OH2  188   3.145   4.158   2.026
   75TIP3    H1  189   3.213   4.206   2.074
   75TIP3    H2  190   3.103   4.103   2.092
   76TIP3   OH2  191   2.488   6.716   5.332
   76TIP3    H1  192   2.560   6.660   5.303
   76TIP3    H2  193   2.409   6.672   5.301
   77TIP3   OH2  194   4.678   2.426   1.787
   77TIP3    H1  195   4.679   2.522   1.786
   77TIP3    H2  196   4.606   2.402   1.730
   78TIP3   OH2  197   2.265   6.588   5.228
   78TIP3    H1  198   2.203   6.655   5.202
   78TIP3    H2  199   2.216   6.506   5.224
   79TIP3   OH2  200   2.605   3.827   4.705
   79TIP3    H1  201   2.679   3.832   4.645
   79TIP3    H2  202   2.629   3.758   4.767
   80TIP3   OH2  203   3.021   1.598   1.097
   80TIP3    H1  204   2.951   1.660   1.115
   80TIP3    H2  205   3.070   1.637   1.025
   81TIP3   OH2  206   6.336   3.212   3.630
   81TIP3    H1  207   6.314   3.119   3.621
   81TIP3    H2  208   6.312   3.234   3.720
   82TIP3   OH2  209   4.375   5.594   2.594
   82TIP3    H1  210   4.445   5.554   2.647
   82TIP3    H2  211   4.408   5.681   2.572
   83TIP3   OH2  212   1.233   3.613   1.052
   83TIP3    H1  213   1.218   3.545   1.117
   83TIP3    H2  214   1.193   3.692   1.090
   84TIP3   OH2  215   3.351   6.014   2.047
   84TIP3    H1  216   3.361   5.967   2.130
   84TIP3    H2  217   3.269   5.981   2.010
   85TIP3   OH2  218   5.595   1.930   3.281
   85TIP3    H1  219   5.646   1.854   3.252
   85TIP3    H2  220   5.504   1.902   3.276
   86TIP3   OH2  221   5.920   1.494   3.090
   86TIP3    H1  222   5.908   1.432   3.018
   86TIP3    H2  223   6.013   1.513   3.091
   87TIP3   OH2  224   2.246   6.714   2.522
   87TIP3    H1  225   2.328   6.666   2.511
   87TIP3    H2  226   2.241   6.732   2.616
   88TIP3   OH2  227   6.869   4.638   4.565
   88TIP3    H1  228   6.888   4.553   4.605
   88TIP3    H2  229   6.922   4.639   4.485
   89TIP3   OH2  230   7.049   5.653   2.210
   89TIP3    H1  231   7.124   5.597   2.230
   89TIP3    H2  232   7.077   5.703   2.133
   90TIP3   OH2  233   2.086   5.806   4.788
   90TIP3    H1  234   1.998   5.842   4.780
   90TIP3    H2  235   2.085   5.729   4.731
   91TIP3   OH2  236   1.666   2.347   3.776
   91TIP3    H1  237   1.647   2.392   3.693
   91TIP3    H2  238   1.762   2.337   3.776
   92TIP3   OH2  239   1.796   0.349   0.077
   92TIP3    H1  240   1.781   0.407   0.152
   92TIP3    H2  241   1.711   0.309   0.059
   93TIP3   OH2  242   0.898   5.240   3.232
   93TIP3    H1  243   0.852   5.269   3.310
   93TIP3    H2  244   0.987   5.273   3.242
   94TIP3   OH2  245   3.974   0.525   1.336
   94TIP3    H1  246   3.913   0.589   1.299
   94TIP3    H2  247   4.060   0.562   1.319
   95TIP3   OH2  248   3.529   3.658   5.760
   95TIP3    H1  249   3.468   3.666   5.686
   95TIP3    H2  250   3.473   3.635   5.834
   96TIP3   OH2  251   0.953   1.391   1.473
   96TIP3    H1  252   1.033   1.345   1.498
   96TIP3    H2  253   0.982   1.455   1.408
   97TIP3   OH2  254   3.854   6.180   5.195
   97TIP3    H1  255   3.762   6.201   5.214
   97TIP3    H2  256   3.883   6.131   5.272
   98TIP3   OH2  257   7.223   2.668   1.736
   98TIP3    H1  258   7.251   2.577   1.734
   98TIP3    H2  259   7.211   2.692   1.644
   99TIP3   OH2  260   6.624   6.587   1.690
   99TIP3    H1  261   6.624   6.616   1.781
   99TIP3    H2  262   6.665   6.501   1.692
  100TIP3   OH2  263   2.160   1.610   5.820
  100TIP3    H1  264   2.073   1.569   5.822
  100TIP3    H2  265   2.175   1.636   5.911
  101TIP3   OH2  266   5.760   0.463   0.123
  101TIP3    H1  267   5.737   0.378   0.085
  101TIP3    H2  268   5.697   0.524   0.084
  102TIP3   OH2  269   3.812   2.244   2.326
  102TIP3    H1  270   3.865   2.229   2.248
  102TIP3    H2  271   3.724   2.218   2.301
  103TIP3   OH2  272   3.260   5.954   1.626
  103TIP3    H1  273   3.261   5.926   1.718
  103TIP3    H2  274   3.350   5.981   1.609
  104TIP3   OH2  275   5.957   1.596   5.140
  104TIP3    H1  276   5.904   1.643   5.204
  104TIP3    H2  277   5.924   1.625   5.055
  105TIP3   OH2  278   5.916   4.781   1.149
  105TIP3    H1  279   5.931   4.756   1.058
  105TIP3    H2  280   5.963   4.864   1.159
  106TIP3   OH2  281   3.787   0.512   4.940
  106TIP3    H1  282   3.710   0.457   4.959
  106TIP3    H2  283   3.762   0.599   4.969
  107TIP3   OH2  284   4.707   1.791   0.872
  107TIP3    H1  285   4.746   1.755   0.793
  107TIP3    H2  286   4.779   1.834   0.918
  108TIP3   OH2  287   4.617   1.499   2.652
  108TIP3    H1  288   4.555   1.537   2.591
  108TIP3    H2  289   4.657   1.575   2.696
  109TIP3   OH2  290   2.987   0.511   1.936
  109TIP3    H1  291   3.015   0.453   2.007
  109TIP3    H2  292   3.061   0.512   1.876
  110TIP3   OH2  293   5.963   6.759   1.625
  110TIP3    H1  294   5.904   6.694   1.664
  110TIP3    H2  295   5.932   6.843   1.658
  111TIP3   OH2  296   2.589   2.758   4.990
  111TIP3    H1  297   2.565   2.812   4.915
  111TIP3    H2  298   2.668   2.712   4.962
  112TIP3   OH2  299   6.369   1.288   5.324
  112TIP3    H1  300   6.451   1.240   5.328
  112TIP3    H2  301   6.377   1.346   5.248
  113TIP3   OH2  302   3.337   5.510   2.970
  113TIP3    H1  303   3.249   5.547   2.957
  113TIP3    H2  304   3.329   5.420   2.938
  114TIP3   OH2  305   3.151   0.656   5.320
  114TIP3    H1  306   3.128   0.686   5.233
  114TIP3    H2  307   3.104   0.573   5.331
  115TIP3   OH2  308   3.860   1.762   4.815
  115TIP3    H1  309   3.797   1.798   4.878
  115TIP3    H2  310   3.814   1.763   4.731
  116TIP3   OH2  311   2.484   0.890   5.708
  116TIP3    H1  312   2.402   0.869   5.663
  116TIP3    H2  313   2.499   0.817   5.768
  117TIP3   OH2  314   1.862   5.623   2.474
  117TIP3    H1  315   1.952   5.655   2.476
  117TIP3    H2  316   1.854   5.580   2.389
  118TIP3   OH2  317   7.030   3.833   3.474
  118TIP3    H1  318   7.016   3.927   3.484
  118TIP3    H2  319   7.100   3.825   3.410
  119TIP3   OH2  320   3.105   0.240   1.233
  119TIP3    H1  321   3.166   0.234   1.307
  119TIP3    H2  322   3.155   0.205   1.158
  120TIP3   OH2  323   3.507   1.540   2.772
  120TIP3    H1  324   3.433   1.529   2.711
  120TIP3    H2  325   3.488   1.479   2.843
  121TIP3   OH2  326   0.713   6.446   1.307
  121TIP3    H1  327   0.735   6.468   1.398
  121TIP3    H2  328   0.744   6.355   1.297
  122TIP3   OH2  329   5.261   3.303   3.999
  122TIP3    H1  330   5.287   3.218   3.965
  122TIP3    H2  331   5.199   3.284   4.070
  123TIP3   OH2  332   0.901   5.829   3.904
  123TIP3    H1  333   0.971   5.892   3.923
  123TIP3    H2  334   0.943   5.744   3.915
  124TIP3   OH2  335   6.371   1.243   1.155
  124TIP3    H1  336   6.299   1.184   1.134
  124TIP3    H2  337   6.377   1.301   1.080
  125TIP3   OH2  338   5.832   2.712   3.687
  125TIP3    H1  339   5.885   2.636   3.712
  125TIP3    H2  340   5.873   2.786   3.732
  126TIP3   OH2  341   0.815   6.017   2.102
  126TIP3    H1  342   0.838   5.976   2.185
  126TIP3    H2  343   0.746   6.079   2.125
  127TIP3   OH2  344   1.625   1.254   5.723
  127TIP3    H1  345   1.584   1.297   5.648
  127TIP3    H2  346   1.719   1.256   5.704
  128TIP3   OH2  347   3.682   3.269   2.544
  128TIP3    H1  348   3.589   3.247   2.550
  128TIP3    H2  349   3.692   3.307   2.457
  129TIP3   OH2  350   2.473   0.904   4.470
  129TIP3    H1  351   2.545   0.873   4.413
  129TIP3    H2  352   2.498   0.993   4.494
  130TIP3   OH2  353   0.038   5.795   5.296
  130TIP3    H1  354   0.096   5.849   5.242
  130TIP3    H2  355  -0.049   5.833   5.283
  131TIP3   OH2  356   0.753   2.994   0.940
  131TIP3    H1  357   0.833   2.961   0.982
  131TIP3    H2  358   0.684   2.980   1.004
  132TIP3   OH2  359   5.681   1.606   4.018
  132TIP3    H1  360   5.764   1.559   4.023
  132TIP3    H2  361   5.692   1.680   4.078
  133TIP3   OH2  362   6.377   2.619   4.240
  133TIP3    H1  363   6.369   2.714   4.240
  133TIP3    H2  364   6.464   2.603   4.203
  134TIP3   OH2  365   1.373   2.794   1.780
  134TIP3    H1  366   1.453   2.845   1.778
  134TIP3    H2  367   1.324   2.822   1.702
  135TIP3   OH2  368   2.179   4.177   4.511
  135TIP3    H1  369   2.197   4.101   4.566
  135TIP3    H2  370   2.147   4.141   4.428
  136TIP3   OH2  371   2.405   0.200   0.617
  136TIP3    H1  372   2.492   0.220   0.583
  136TIP3    H2  373   2.356   0.170   0.540
  137TIP3   OH2  374   1.095   1.803   1.247
  137TIP3    H1  375   1.068   1.860   1.175
  137TIP3    H2  376   1.143   1.861   1.306
  138TIP3   OH2  377   5.363   1.576   1.464
  138TIP3    H1  378   5.446   1.560   1.419
  138TIP3    H2  379   5.381   1.649   1.523
  139TIP3   OH2  380   5.876   1.683   3.693
  139TIP3    H1  381   5.952   1.735   3.669
  139TIP3    H2  382   5.912   1.605   3.735
  140TIP3   OH2  383   2.230   1.770   1.656
  140TIP3    H1  384   2.264   1.844   1.707
  140TIP3    H2  385   2.144   1.798   1.626
  141TIP3   OH2  386   1.517   1.425   3.215
  141TIP3    H1  387   1.499   1.334   3.193
  141TIP3    H2  388   1.433   1.461   3.244
  142TIP3   OH2  389   3.584   0.032   3.085
  142TIP3    H1  390   3.562   0.116   3.044
  142TIP3    H2  391   3.499  -0.008   3.104
  143TIP3   OH2  392   6.914   6.528   2.859
  143TIP3    H1  393   6.860   6.449   2.847
  143TIP3    H2  394   6.917   6.541   2.954
  144TIP3   OH2  395   0.464   6.442   0.116
  144TIP3    H1  396   0.485   6.380   0.047
  144TIP3    H2  397   0.536   6.506   0.113
  145TIP3   OH2  398   2.689   3.074   3.011
  145TIP3    H1  399   2.665   2.995   2.963
  145TIP3    H2  400   2.762   3.112   2.960
  146TIP3   OH2  401   3.121   4.302   0.692
  146TIP3    H1  402   3.111   4.389   0.730
  146TIP3    H2  403   3.040   4.256   0.717
  147TIP3   OH2  404   4.596   0.651   2.829
  147TIP3    H1  405   4.655   0.723   2.852
  147TIP3    H2  406   4.627   0.577   2.880
  148TIP3   OH2  407   6.280   0.625   4.433
  148TIP3    H1  408   6.302   0.711   4.398
  148TIP3    H2  409   6.189   0.611   4.407
  149TIP3   OH2  410   7.065   0.209   5.271
  149TIP3    H1  411   7.112   0.248   5.345
  149TIP3    H2  412   7.129   0.207   5.200
  150TIP3   OH2  413   6.428   6.312   1.362
  150TIP3    H1  414   6.470   6.259   1.295
  150TIP3    H2  415   6.455   6.402   1.344
  151TIP3   OH2  416   3.956   5.449   3.705
  151TIP3    H1  417   4.046   5.468   3.729
  151TIP3    H2  418   3.941   5.502   3.626
  152TIP3   OH2  419   6.580   6.240   0.361
  152TIP3    H1  420   6.564   6.260   0.453
  152TIP3    H2  421   6.649   6.300   0.334
  153TIP3   OH2  422   2.956   3.637   3.845
  153TIP3    H1  423   3.020   3.628   3.774
  153TIP3    H2  424   3.004   3.682   3.915
  154TIP3   OH2  425   1.601   0.571   2.633
  154TIP3    H1  426   1.605   0.588   2.728
  154TIP3    H2  427   1.678   0.614   2.597
  155TIP3   OH2  428   3.859   5.273   5.298
  155TIP3    H1  429   3.827   5.190   5.332
  155TIP3    H2  430   3.787   5.308   5.246
  156TIP3   OH2  431   2.890   3.298   3.528
  156TIP3    H1  432   2.971   3.315   3.480
  156TIP3    H2  433   2.826   3.357   3.487
  157TIP3   OH2  434   6.598   5.015   4.160
  157TIP3    H1  435   6.619   5.057   4.244
  157TIP3    H2  436   6.514   4.971   4.176
  158TIP3   OH2  437   3.476   0.820   3.869
  158TIP3    H1  438   3.544   0.762   3.903
  158TIP3    H2  439   3.523   0.882   3.813
  159TIP3   OH2  440   1.524   3.148   5.789
  159TIP3    H1  441   1.550   3.174   5.877
  159TIP3    H2  442   1.471   3.221   5.758
  160TIP3   OH2  443   2.578   5.276  -0.018
  160TIP3    H1  444   2.621   5.302  -0.100
  160TIP3    H2  445   2.646   5.286   0.049
  161TIP3   OH2  446   5.078   2.684   1.831
  161TIP3    H1  447   5.156   2.642   1.865
  161TIP3    H2  448   5.066   2.647   1.743
  162TIP3   OH2  449   4.602   0.362   5.076
  162TIP3    H1  450   4.537   0.307   5.032
  162TIP3    H2  451   4.653   0.402   5.005
  163TIP3   OH2  452   0.686   6.231   4.904
  163TIP3    H1  453   0.721   6.245   4.816
  163TIP3    H2  454   0.594   6.209   4.889
  164TIP3   OH2  455   5.158   4.616   0.114
  164TIP3    H1  456   5.100   4.565   0.056
  164TIP3    H2  457   5.145   4.707   0.087
  165TIP3   OH2  458   1.041   3.916   0.820
  165TIP3    H1  459   1.073   3.968   0.746
  165TIP3    H2  460   1.064   3.826   0.798
  166TIP3   OH2  461   6.990   6.745   5.146
  166TIP3    H1  462   7.056   6.685   5.181
  166TIP3    H2  463   6.974   6.807   5.216
  167TIP3   OH2  464   5.305   2.763   1.333
  167TIP3    H1  465   5.244   2.835   1.323
  167TIP3    H2  466   5.316   2.754   1.428
  168TIP3   OH2  467   5.987   5.554   0.467
  168TIP3    H1  468   5.928   5.626   0.443
  168TIP3    H2  469   5.956   5.526   0.553
  169TIP3   OH2  470   6.756   3.864   1.172
  169TIP3    H1  471   6.779   3.774   1.196
  169TIP3    H2  472   6.663   3.872   1.190
  170TIP3   OH2  473   4.737   2.468   1.016
  170TIP3    H1  474   4.802   2.470   0.945
  170TIP3    H2  475   4.654   2.453   0.971
  171TIP3   OH2  476   0.765   1.582   0.453
  171TIP3    H1  477   0.677   1.544   0.449
  171TIP3    H2  478   0.823   1.506   0.457
  172TIP3   OH2  479   5.361   1.706   5.305
  172TIP3    H1  480   5.302   1.723   5.378
  172TIP3    H2  481   5.335   1.619   5.274
  173TIP3   OH2  482   0.003   0.343   4.582
  173TIP3    H1  483   0.053   0.423   4.595
  173TIP3    H2  484  -0.064   0.366   4.518
  174TIP3   OH2  485   1.691   3.008   2.594
  174TIP3    H1  486   1.636   3.060   2.653
  174TIP3    H2  487   1.635   2.936   2.567
  175TIP3   OH2  488   5.199   0.279   0.900
  175TIP3    H1  489   5.294   0.278   0.890
  175TIP3    H2  490   5.185   0.299   0.993
  176TIP3   OH2  491   3.030   2.781   0.261
  176TIP3    H1  492   3.097   2.733   0.311
  176TIP3    H2  493   2.982   2.713   0.215
  177TIP3   OH2  494   3.601   5.391   5.172
  177TIP3    H1  495   3.579   5.323   5.235
  177TIP3    H2  496   3.590   5.473   5.220
  178TIP3   OH2  497   3.201   2.836   2.590
  178TIP3    H1  498   3.223   2.763   2.648
  178TIP3    H2  499   3.268   2.833   2.521
  179TIP3   OH2  500   4.025   0.492   3.635
  179TIP3    H1  501   3.971   0.536   3.700
  179TIP3    H2  502   4.084   0.560   3.603
  180TIP3   OH2  503   1.567   3.598   3.263
  180TIP3    H1  504   1.598   3.552   3.341
  180TIP3    H2  505   1.532   3.681   3.295
  181TIP3   OH2  506   7.201   2.230   3.022
  181TIP3    H1  507   7.111   2.198   3.018
  181TIP3    H2  508   7.215   2.250   3.115
  182TIP3   OH2  509   0.593   1.702   2.808
  182TIP3    H1  510   0.570   1.708   2.715
  182TIP3    H2  511   0.679   1.660   2.808
  183TIP3   OH2  512   3.192   4.742   4.221
  183TIP3    H1  513   3.137   4.792   4.282
  183TIP3    H2  514   3.169   4.777   4.135
  184TIP3   OH2  515   0.333   4.586   4.418
  184TIP3    H1  516   0.352   4.672   4.458
  184TIP3    H2  517   0.376   4.589   4.333
  185TIP3   OH2  518   6.429   4.788   5.788
  185TIP3    H1  519   6.441   4.698   5.760
  185TIP3    H2  520   6.517   4.818   5.810
  186TIP3   OH2  521   3.108   2.471   2.755
  186TIP3    H1  522   3.063   2.521   2.688
  186TIP3    H2  523   3.191   2.518   2.768
  187TIP3   OH2  524   0.301   5.291   4.564
  187TIP3    H1  525   0.326   5.273   4.655
  187TIP3    H2  526   0.339   5.377   4.546
  188TIP3   OH2  527   0.151   5.248   1.773
  188TIP3    H1  528   0.186   5.308   1.707
  188TIP3    H2  529   0.072   5.211   1.732
  189TIP3   OH2  530   5.982   1.289   4.603
  189TIP3    H1  531   5.997   1.254   4.691
  189TIP3    H2  532   6.070   1.295   4.565
  190TIP3   OH2  533   2.609   0.420   4.692
  190TIP3    H1  534   2.685   0.453   4.739
  190TIP3    H2  535   2.575   0.495   4.644
  191TIP3   OH2  536   5.869   0.012   2.270
  191TIP3    H1  537   5.903  -0.054   2.331
  191TIP3    H2  538   5.947   0.057   2.238
  192TIP3   OH2  539   5.222   5.930   1.556
  192TIP3    H1  540   5.308   5.951   1.590
  192TIP3    H2  541   5.165   5.930   1.632
  193TIP3   OH2  542   4.457   0.798   4.640
  193TIP3    H1  543   4.402   0.743   4.696
  193TIP3    H2  544   4.429   0.887   4.659
  194TIP3   OH2  545   2.292   5.259   1.121
  194TIP3    H1  546   2.371   5.312   1.121
  194TIP3    H2  547   2.300   5.203   1.043
  195TIP3   OH2  548   4.267   6.172   5.233
  195TIP3    H1  549   4.255   6.260   5.268
  195TIP3    H2  550   4.362   6.159   5.235
  196TIP3   OH2  551   6.491   2.860   5.251
  196TIP3    H1  552   6.435   2.866   5.174
  196TIP3    H2  553   6.514   2.951   5.271
  197TIP3   OH2  554   6.010   5.109   5.710
  197TIP3    H1  555   6.084   5.111   5.650
  197TIP3    H2  556   5.941   5.064   5.661
  198TIP3   OH2  557   3.642   0.287   1.295
  198TIP3    H1  558   3.605   0.334   1.220
  198TIP3    H2  559   3.576   0.221   1.316
  199TIP3   OH2  560   5.491   1.704   2.187
  199TIP3    H1  561   5.416   1.681   2.131
  199TIP3    H2  562   5.454   1.761   2.254
  200TIP3   OH2  563   5.186   3.237   2.949
  200TIP3    H1  564   5.118   3.294   2.912
  200TIP3    H2  565   5.255   3.237   2.883
  201TIP3   OH2  566   0.734   3.978   2.963
  201TIP3    H1  567   0.808   3.976   2.903
  201TIP3    H2  568   0.673   3.913   2.928
  202TIP3   OH2  569   1.323   4.367   1.844
  202TIP3    H1  570   1.384   4.402   1.909
  202TIP3    H2  571   1.249   4.334   1.895
  203TIP3   OH2  572   2.229   1.946   2.267
  203TIP3    H1  573   2.158   1.926   2.328
  203TIP3    H2  574   2.197   1.916   2.182
  204TIP3   OH2  575   1.627   1.403   0.544
  204TIP3    H1  576   1.650   1.310   0.541
  204TIP3    H2  577   1.556   1.413   0.480
  205TIP3   OH2  578   5.286   1.979   3.154
  205TIP3    H1  579   5.305   2.072   3.160
  205TIP3    H2  580   5.267   1.964   3.062
  206TIP3   OH2  581   1.903   3.531   2.866
  206TIP3    H1  582   1.853   3.561   2.790
  206TIP3    H2  583   1.880   3.593   2.936
  207TIP3   OH2  584   1.207   0.986   3.931
  207TIP3    H1  585   1.138   0.948   3.985
  207TIP3    H2  586   1.272   0.916   3.924
  208TIP3   OH2  587   5.311   4.974   5.699
  208TIP3    H1  588   5.262   5.008   5.773
  208TIP3    H2  589   5.301   4.879   5.705
  209TIP3   OH2  590   7.049   4.838   1.106
  209TIP3    H1  591   7.137   4.802   1.098
  209TIP3    H2  592   7.037   4.889   1.025
  210TIP3   OH2  593   5.873   4.556   2.952
  210TIP3    H1  594   5.815   4.480   2.956
  210TIP3    H2  595   5.961   4.520   2.957
  211TIP3   OH2  596   4.270   1.325   2.689
  211TIP3    H1  597   4.191   1.342   2.739
  211TIP3    H2  598   4.280   1.402   2.633
  212TIP3   OH2  599   7.241   6.047   3.693
  212TIP3    H1  600   7.193   5.989   3.634
  212TIP3    H2  601   7.179   6.064   3.764
  213TIP3   OH2  602   2.171   2.763   4.379
  213TIP3    H1  603   2.198   2.728   4.294
  213TIP3    H2  604   2.075   2.754   4.379
  214TIP3   OH2  605   5.426   4.113   3.074
  214TIP3    H1  606   5.393   4.086   3.160
  214TIP3    H2  607   5.485   4.042   3.048
  215TIP3   OH2  608   6.438   0.069   5.017
  215TIP3    H1  609   6.510   0.053   4.956
  215TIP3    H2  610   6.448   0.002   5.085
  216TIP3   OH2  611   7.059   0.626   3.893
  216TIP3    H1  612   7.142   0.660   3.857
  216TIP3    H2  613   7.085   0.581   3.973
  217TIP3   OH2  614   6.276   5.791   0.136
  217TIP3    H1  615   6.291   5.884   0.148
  217TIP3    H2  616   6.182   5.779   0.148
  218TIP3   OH2  617   0.625   1.567   4.010
  218TIP3    H1  618   0.616   1.611   3.925
  218TIP3    H2  619   0.572   1.488   4.002
  219TIP3   OH2  620   3.747   1.697   0.990
  219TIP3    H1  621   3.731   1.790   0.974
  219TIP3    H2  622   3.688   1.652   0.929
  220TIP3   OH2  623   6.521   1.222   1.862
  220TIP3    H1  624   6.562   1.306   1.842
  220TIP3    H2  625   6.593   1.166   1.890
  221TIP3   OH2  626   0.942   4.052   2.783
  221TIP3    H1  627   0.900   4.135   2.759
  221TIP3    H2  628   1.023   4.050   2.732
  222TIP3   OH2  629   0.682   0.587   2.755
  222TIP3    H1  630   0.593   0.586   2.721
  222TIP3    H2  631   0.711   0.677   2.743
  223TIP3   OH2  632   3.185   1.299   3.294
  223TIP3    H1  633   3.234   1.377   3.268
  223TIP3    H2  634   3.251   1.230   3.299
  224TIP3   OH2  635   5.656   2.698   5.837
  224TIP3    H1  636   5.625   2.756   5.907
  224TIP3    H2  637   5.738   2.739   5.808
  225TIP3   OH2  638   3.091   6.043   5.059
  225TIP3    H1  639   3.034   5.973   5.027
  225TIP3    H2  640   3.083   6.037   5.155
  226TIP3   OH2  641   5.824   0.384   5.397
  226TIP3    H1  642   5.780   0.446   5.339
  226TIP3    H2  643   5.871   0.325   5.338
  227TIP3   OH2  644   1.388   5.525   0.913
  227TIP3    H1  645   1.483   5.540   0.911
  227TIP3    H2  646   1.356   5.563   0.832
  228TIP3   OH2  647   4.292   3.458   1.672
  228TIP3    H1  648   4.275   3.428   1.582
  228TIP3    H2  649   4.301   3.378   1.723
  229TIP3   OH2  650   1.901   6.323   5.477
  229TIP3    H1  651   1.851   6.360   5.550
  229TIP3    H2  652   1.897   6.229   5.491
  230TIP3   OH2  653   4.518   1.261   1.721
  230TIP3    H1  654   4.464   1.267   1.799
  230TIP3    H2  655   4.554   1.172   1.724
  231TIP3   OH2  656   1.872   5.809   2.142
  231TIP3    H1  657   1.930   5.757   2.087
  231TIP3    H2  658   1.926   5.835   2.216
  232TIP3   OH2  659   6.372   1.521   2.393
  232TIP3    H1  660   6.424   1.508   2.314
  232TIP3    H2  661   6.328   1.605   2.379
  233TIP3   OH2  662   2.970   0.147   4.867
  233TIP3    H1  663   2.993   0.158   4.960
  233TIP3    H2  664   3.043   0.097   4.830
  234TIP3   OH2  665   3.891   3.136   1.672
  234TIP3    H1  666   3.915   3.221   1.708
  234TIP3    H2  667   3.974   3.101   1.638
  235TIP3   OH2  668   5.145   5.481   0.743
  235TIP3    H1  669   5.201   5.441   0.677
  235TIP3    H2  670   5.057   5.449   0.723
  236TIP3   OH2  671   3.388   0.212   3.824
  236TIP3    H1  672   3.392   0.308   3.832
  236TIP3    H2  673   3.303   0.189   3.861
  237TIP3   OH2  674   1.916   5.080   5.661
  237TIP3    H1  675   1.985   5.077   5.594
  237TIP3    H2  676   1.856   5.148   5.630
  238TIP3   OH2  677   3.976   2.520   3.664
  238TIP3    H1  678   4.041   2.588   3.648
  238TIP3    H2  679   3.946   2.494   3.577
  239TIP3   OH2  680   5.905   6.714   0.104
  239TIP3    H1  681   5.865   6.637   0.144
  239TIP3    H2  682   5.914   6.691   0.011
  240TIP3   OH2  683   4.321   3.670   2.242
  240TIP3    H1  684   4.384   3.642   2.176
  240TIP3    H2  685   4.242   3.693   2.192
  241TIP3   OH2  686   1.802   5.099   2.410
  241TIP3    H1  687   1.759   5.154   2.476
  241TIP3    H2  688   1.830   5.161   2.343
  242TIP3   OH2  689   4.819   1.811   4.464
  242TIP3    H1  690   4.748   1.770   4.415
  242TIP3    H2  691   4.840   1.890   4.414
  243TIP3   OH2  692   1.277   3.028   5.443
  243TIP3    H1  693   1.324   3.092   5.390
  243TIP3    H2  694   1.321   3.030   5.528
  244TIP3   OH2  695   1.014   0.200   1.708
  244TIP3    H1  696   0.984   0.260   1.776
  244TIP3    H2  697   1.053   0.257   1.641
  245TIP3   OH2  698   0.695   5.877   4.815
  245TIP3    H1  699   0.660   5.894   4.903
  245TIP3    H2  700   0.619   5.887   4.757
  246TIP3   OH2  701   5.685   4.277   5.031
  246TIP3    H1  702   5.699   4.231   5.114
  246TIP3    H2  703   5.773   4.291   4.996
  247TIP3   OH2  704   5.880   2.396   3.029
  247TIP3    H1  705   5.797   2.428   3.064
  247TIP3    H2  706   5.888   2.437   2.943
  248TIP3   OH2  707   2.661   5.182   4.489
  248TIP3    H1  708   2.583   5.128   4.474
  248TIP3    H2  709   2.655   5.252   4.424
  249TIP3   OH2  710   4.082   5.837   0.453
  249TIP3    H1  711   4.164   5.810   0.495
  249TIP3    H2  712   4.038   5.890   0.519
  250TIP3   OH2  713   4.741   2.263   2.723
  250TIP3    H1  714   4.686   2.312   2.785
  250TIP3    H2  715   4.689   2.260   2.643
  251TIP3   OH2  716   0.611   4.710   0.673
  251TIP3    H1  717   0.650   4.651   0.738
  251TIP3    H2  718   0.673   4.710   0.601
  252TIP3   OH2  719   0.220   6.432   5.428
  252TIP3    H1  720   0.154   6.501   5.424
  252TIP3    H2  721   0.179   6.362   5.480
  253TIP3   OH2  722   3.522   3.640   1.272
  253TIP3    H1  723   3.469   3.561   1.272
  253TIP3    H2  724   3.477   3.699   1.333
  254TIP3   OH2  725   4.367   1.111   4.918
  254TIP3    H1  726   4.339   1.106   4.826
  254TIP3    H2  727   4.401   1.023   4.936
  255TIP3   OH2  728   4.813   4.102  -0.011
  255TIP3    H1  729   4.764   4.132   0.065
  255TIP3    H2  730   4.757   4.035  -0.050
  256TIP3   OH2  731   3.755   4.990   5.208
  256TIP3    H1  732   3.746   4.895   5.210
  256TIP3    H2  733   3.804   5.008   5.128
  257TIP3   OH2  734   2.720   4.206   0.047
  257TIP3    H1  735   2.716   4.142   0.119
  257TIP3    H2  736   2.731   4.290   0.091
  258TIP3   OH2  737   5.171   4.289   4.317
  258TIP3    H1  738   5.119   4.368   4.307
  258TIP3    H2  739   5.261   4.321   4.329
  259TIP3   OH2  740   2.498   5.585   2.914
  259TIP3    H1  741   2.403   5.589   2.916
  259TIP3    H2  742   2.520   5.501   2.953
  260TIP3   OH2  743   2.645   4.628   1.486
  260TIP3    H1  744   2.683   4.714   1.504
  260TIP3    H2  745   2.669   4.611   1.395
  261TIP3   OH2  746   1.189   0.916   2.836
  261TIP3    H1  747   1.120   0.914   2.902
  261TIP3    H2  748   1.194   0.827   2.803
  262TIP3   OH2  749   0.443   1.312   0.186
  262TIP3    H1  750   0.413   1.223   0.205
  262TIP3    H2  751   0.429   1.359   0.268
  263TIP3   OH2  752   6.199   0.173   3.838
  263TIP3    H1  753   6.256   0.122   3.896
  263TIP3    H2  754   6.235   0.262   3.842
  264TIP3   OH2  755   3.496   5.549   4.084
  264TIP3    H1  756   3.401   5.535   4.090
  264TIP3    H2  757   3.515   5.611   4.154
  265TIP3   OH2  758   0.237   3.164   2.393
  265TIP3    H1  759   0.239   3.193   2.302
  265TIP3    H2  760   0.253   3.244   2.444
  266TIP3   OH2  761   6.546   2.383   1.408
  266TIP3    H1  762   6.539   2.301   1.358
  266TIP3    H2  763   6.544   2.355   1.499
  267TIP3   OH2  764   2.311   5.427   5.114
  267TIP3    H1  765   2.393   5.470   5.137
  267TIP3    H2  766   2.269   5.487   5.052
  268TIP3   OH2  767   5.731   3.587   1.820
  268TIP3    H1  768   5.760   3.630   1.900
  268TIP3    H2  769   5.785   3.625   1.751
  269TIP3   OH2  770   1.811   6.778   5.607
  269TIP3    H1  771   1.885   6.776   5.666
  269TIP3    H2  772   1.846   6.747   5.523
  270TIP3   OH2  773   2.946   3.023   3.353
  270TIP3    H1  774   2.917   3.110   3.324
  270TIP3    H2  775   2.989   3.039   3.437
  271TIP3   OH2  776   3.781   5.994   3.274
  271TIP3    H1  777   3.853   5.969   3.215
  271TIP3    H2  778   3.702   5.968   3.228
  272TIP3   OH2  779   2.321   5.763   5.537
  272TIP3    H1  780   2.332   5.819   5.460
  272TIP3    H2  781   2.370   5.684   5.517
  273TIP3   OH2  782   2.526   1.571   1.698
  273TIP3    H1  783   2.567   1.657   1.692
  273TIP3    H2  784   2.573   1.526   1.769
  274TIP3   OH2  785   4.966   0.810   4.499
  274TIP3    H1  786   4.973   0.815   4.404
  274TIP3    H2  787   5.052   0.780   4.529
  275TIP3   OH2  788   2.242   1.281   5.075
  275TIP3    H1  789   2.180   1.307   5.144
  275TIP3    H2  790   2.228   1.187   5.065
  276TIP3   OH2  791   2.444   5.777   0.216
  276TIP3    H1  792   2.492   5.704   0.176
  276TIP3    H2  793   2.497   5.801   0.292
  277TIP3   OH2  794   5.404   5.738   5.046
  277TIP3    H1  795   5.457   5.673   5.092
  277TIP3    H2  796   5.465   5.781   4.986
  278TIP3   OH2  797   5.913   6.580   4.352
  278TIP3    H1  798   5.982   6.645   4.340
  278TIP3    H2  799   5.924   6.550   4.442
  279TIP3   OH2  800   6.554   3.201   2.038
  279TIP3    H1  801   6.487   3.191   2.106
  279TIP3    H2  802   6.579   3.111   2.017
  280TIP3   OH2  803   4.632   6.340   4.105
  280TIP3    H1  804   4.557   6.287   4.077
  280TIP3    H2  805   4.707   6.298   4.063
  281TIP3   OH2  806   2.663   0.789   3.396
  281TIP3    H1  807   2.576   0.791   3.435
  281TIP3    H2  808   2.657   0.849   3.322
  282TIP3   OH2  809   5.524   4.561   4.533
  282TIP3    H1  810   5.552   4.651   4.548
  282TIP3    H2  811   5.558   4.513   4.609
  283TIP3   OH2  812   1.629   2.097   1.363
  283TIP3    H1  813   1.690   2.075   1.292
  283TIP3    H2  814   1.577   2.018   1.375
  284TIP3   OH2  815   2.437   3.159   5.522
  284TIP3    H1  816   2.491   3.200   5.590
  284TIP3    H2  817   2.398   3.233   5.475
  285TIP3   OH2  818   6.308   6.379   4.299
  285TIP3    H1  819   6.334   6.471   4.292
  285TIP3    H2  820   6.356   6.335   4.229
  286TIP3   OH2  821   3.502   3.770   3.648
  286TIP3    H1  822   3.558   3.843   3.622
  286TIP3    H2  823   3.415   3.793   3.616
  287TIP3   OH2  824   6.139   0.757   3.540
  287TIP3    H1  825   6.205   0.691   3.520
  287TIP3    H2  826   6.060   0.706   3.559
  288TIP3   OH2  827   5.044   2.733   1.060
  288TIP3    H1  828   5.079   2.665   1.118
  288TIP3    H2  829   4.976   2.776   1.112
  289TIP3   OH2  830   2.938   1.227   4.996
  289TIP3    H1  831   3.008   1.236   4.931
  289TIP3    H2  832   2.955   1.143   5.038
  290TIP3   OH2  833   1.000   5.198   1.710
  290TIP3    H1  834   0.936   5.264   1.735
  290TIP3    H2  835   1.080   5.248   1.691
  291TIP3   OH2  836   6.689   2.452   1.122
  291TIP3    H1  837   6.688   2.499   1.205
  291TIP3    H2  838   6.616   2.391   1.127
  292TIP3   OH2  839   0.938   1.154   5.778
  292TIP3    H1  840   1.003   1.153   5.708
  292TIP3    H2  841   0.952   1.239   5.821
  293TIP3   OH2  842   6.794   2.814   2.582
  293TIP3    H1  843   6.703   2.817   2.610
  293TIP3    H2  844   6.843   2.793   2.661
  294TIP3   OH2  845   0.379   1.600   3.438
  294TIP3    H1  846   0.301   1.563   3.400
  294TIP3    H2  847   0.429   1.525   3.470
  295TIP3   OH2  848   1.877   0.878   3.396
  295TIP3    H1  849   1.846   0.943   3.459
  295TIP3    H2  850   1.817   0.885   3.322
  296TIP3   OH2  851   5.073   4.527   0.688
  296TIP3    H1  852   5.107   4.570   0.609
  296TIP3    H2  853   5.009   4.464   0.655
  297TIP3   OH2  854   2.286   2.884   2.635
  297TIP3    H1  855   2.273   2.942   2.710
  297TIP3    H2  856   2.377   2.856   2.642
  298TIP3   OH2  857   1.030   3.585   1.588
  298TIP3    H1  858   0.940   3.606   1.566
  298TIP3    H2  859   1.083   3.641   1.531
  299TIP3   OH2  860   5.941   4.723   4.453
  299TIP3    H1  861   5.921   4.793   4.515
  299TIP3    H2  862   6.032   4.739   4.428
  300TIP3   OH2  863   1.761   5.952   4.353
  300TIP3    H1  864   1.819   6.020   4.386
  300TIP3    H2  865   1.786   5.873   4.401
  301TIP3   OH2  866   4.469   4.032   5.718
  301TIP3    H1  867   4.408   3.960   5.701
  301TIP3    H2  868   4.418   4.095   5.769
  302TIP3   OH2  869   3.465   4.695   4.582
  302TIP3    H1  870   3.415   4.617   4.609
  302TIP3    H2  871   3.554   4.663   4.569
  303TIP3   OH2  872   0.271   5.633   5.222
  303TIP3    H1  873   0.179   5.608   5.207
  303TIP3    H2  874   0.266   5.700   5.291
  304TIP3   OH2  875   7.080   2.499   4.269
  304TIP3    H1  876   7.145   2.467   4.206
  304TIP3    H2  877   7.127   2.565   4.320
  305TIP3   OH2  878   0.637   5.949   4.225
  305TIP3    H1  879   0.592   5.956   4.141
  305TIP3    H2  880   0.704   5.882   4.211
  306TIP3   OH2  881   3.848   1.969   4.031
  306TIP3    H1  882   3.840   1.924   4.115
  306TIP3    H2  883   3.856   2.062   4.055
  307TIP3   OH2  884   6.176   3.840   2.392
  307TIP3    H1  885   6.125   3.772   2.436
  307TIP3    H2  886   6.259   3.797   2.370
  308TIP3   OH2  887   1.742   5.103   2.097
  308TIP3    H1  888   1.707   5.136   2.014
  308TIP3    H2  889   1.666   5.066   2.142
  309TIP3   OH2  890   5.427   0.742   1.581
  309TIP3    H1  891   5.400   0.813   1.522
  309TIP3    H2  892   5.475   0.786   1.651
  310TIP3   OH2  893   3.570   6.844   1.559
  310TIP3    H1  894   3.492   6.820   1.510
  310TIP3    H2  895   3.638   6.854   1.492
  311TIP3   OH2  896   4.250   6.544   1.873
  311TIP3    H1  897   4.216   6.610   1.934
  311TIP3    H2  898   4.172   6.495   1.846
  312TIP3   OH2  899   1.343   4.671   3.721
  312TIP3    H1  900   1.305   4.666   3.633
  312TIP3    H2  901   1.387   4.756   3.723
  313TIP3   OH2  902   1.353   2.968   3.872
  313TIP3    H1  903   1.266   3.006   3.860
  313TIP3    H2  904   1.359   2.899   3.805
  314TIP3   OH2  905   1.632   0.935   5.035
  314TIP3    H1  906   1.680   0.891   5.105
  314TIP3    H2  907   1.550   0.962   5.075
  315TIP3   OH2  908   5.420   3.157   3.048
  315TIP3    H1  909   5.328   3.184   3.042
  315TIP3    H2  910   5.470   3.237   3.037
  316TIP3   OH2  911   5.108   6.620   1.974
  316TIP3    H1  912   5.133   6.685   2.040
  316TIP3    H2  913   5.063   6.671   1.907
  317TIP3   OH2  914   1.004   6.036   0.701
  317TIP3    H1  915   0.997   6.128   0.725
  317TIP3    H2  916   0.966   5.989   0.776
  318TIP3   OH2  917   3.322   0.650   4.279
  318TIP3    H1  918   3.350   0.635   4.369
  318TIP3    H2  919   3.348   0.571   4.232
  319TIP3   OH2  920   2.805   2.505   1.971
  319TIP3    H1  921   2.738   2.459   2.022
  319TIP3    H2  922   2.778   2.596   1.974
  320TIP3   OH2  923   0.099   3.193   1.129
  320TIP3    H1  924   0.027   3.178   1.067
  320TIP3    H2  925   0.167   3.132   1.102
  321TIP3   OH2  926   0.115   6.001   5.665
  321TIP3    H1  927   0.157   5.951   5.735
  321TIP3    H2  928   0.114   5.941   5.590
  322TIP3   OH2  929   3.013   3.519   4.188
  322TIP3    H1  930   2.927   3.506   4.228
  322TIP3    H2  931   3.075   3.492   4.256
  323TIP3   OH2  932   2.223   3.607   0.223
  323TIP3    H1  933   2.267   3.523   0.236
  323TIP3    H2  934   2.252   3.661   0.296
  324TIP3   OH2  935   7.089   2.648   3.663
  324TIP3    H1  936   7.175   2.614   3.689
  324TIP3    H2  937   7.040   2.657   3.745
  325TIP3   OH2  938   0.589   4.713   3.066
  325TIP3    H1  939   0.559   4.631   3.027
  325TIP3    H2  940   0.684   4.701   3.076
  326TIP3   OH2  941   2.155   6.433   0.199
  326TIP3    H1  942   2.153   6.338   0.192
  326TIP3    H2  943   2.237   6.458   0.156
  327TIP3   OH2  944   0.479   0.411   1.111
  327TIP3    H1  945   0.559   0.376   1.150
  327TIP3    H2  946   0.428   0.442   1.186
  328TIP3   OH2  947   3.693   4.706   4.249
  328TIP3    H1  948   3.672   4.781   4.194
  328TIP3    H2  949   3.618   4.647   4.239
  329TIP3   OH2  950   0.976   5.890   4.921
  329TIP3    H1  951   1.001   5.840   5.000
  329TIP3    H2  952   0.881   5.883   4.918
  330TIP3   OH2  953   3.726   1.435   1.034
  330TIP3    H1  954   3.774   1.517   1.022
  330TIP3    H2  955   3.706   1.406   0.945
  331TIP3   OH2  956   1.888   3.007   1.362
  331TIP3    H1  957   1.962   2.993   1.422
  331TIP3    H2  958   1.854   2.919   1.346
  332TIP3   OH2  959   6.738   4.444   1.758
  332TIP3    H1  960   6.735   4.489   1.673
  332TIP3    H2  961   6.666   4.382   1.755
  333TIP3   OH2  962   6.088   6.463   1.779
  333TIP3    H1  963   5.995   6.470   1.758
  333TIP3    H2  964   6.091   6.436   1.870
  334TIP3   OH2  965   5.342   5.705   2.837
  334TIP3    H1  966   5.353   5.800   2.837
  334TIP3    H2  967   5.373   5.677   2.751
  335TIP3   OH2  968   4.822   3.024   0.233
  335TIP3    H1  969   4.776   3.009   0.151
  335TIP3    H2  970   4.785   3.107   0.266
  336TIP3   OH2  971   2.577   4.409   4.592
  336TIP3    H1  972   2.662   4.401   4.636
  336TIP3    H2  973   2.514   4.373   4.654
  337TIP3   OH2  974   0.363   1.967   1.244
  337TIP3    H1  975   0.372   1.871   1.249
  337TIP3    H2  976   0.287   1.987   1.299
  338TIP3   OH2  977   0.414   6.137   1.460
  338TIP3    H1  978   0.474   6.168   1.528
  338TIP3    H2  979   0.338   6.105   1.509
  339TIP3   OH2  980   3.917   0.244   1.338
  339TIP3    H1  981   3.947   0.335   1.340
  339TIP3    H2  982   3.822   0.250   1.322
  340TIP3   OH2  983   2.484   5.173   5.888
  340TIP3    H1  984   2.523   5.087   5.874
  340TIP3    H2  985   2.439   5.192   5.806
  341TIP3   OH2  986   5.221   5.068   1.443
  341TIP3    H1  987   5.313   5.048   1.427
  341TIP3    H2  988   5.182   5.071   1.355
  342TIP3   OH2  989   5.773   4.544   2.558
  342TIP3    H1  990   5.841   4.477   2.557
  342TIP3    H2  991   5.691   4.495   2.555
  343TIP3   OH2  992   0.754   0.398   1.203
  343TIP3    H1  993   0.741   0.489   1.231
  343TIP3    H2  994   0.821   0.363   1.261
  344TIP3   OH2  995   1.766   6.210   1.914
  344TIP3    H1  996   1.768   6.306   1.912
  344TIP3    H2  997   1.856   6.183   1.893
  345TIP3   OH2  998   3.788   5.165   4.124
  345TIP3    H1  999   3.809   5.192   4.035
  345TIP3    H2 1000   3.857   5.102   4.146
  346TIP3   OH2 1001   6.664   0.156   3.787
  346TIP3    H1 1002   6.593   0.193   3.734
  346TIP3    H2 1003   6.641   0.064   3.798
  347TIP3   OH2 1004   0.588   4.355   0.294
  347TIP3    H1 1005   0.658   4.391   0.240
  347TIP3    H2 1006   0.558   4.278   0.246
  348TIP3   OH2 1007   6.768   6.441   0.273
  348TIP3    H1 1008   6.821   6.404   0.203
  348TIP3    H2 1009   6.828   6.449   0.347
  349TIP3   OH2 1010   4.272   5.019   1.867
  349TIP3    H1 1011   4.201   4.993   1.809
  349TIP3    H2 1012   4.325   4.940   1.879
  350TIP3   OH2 1013   3.638   3.765   5.440
  350TIP3    H1 1014   3.660   3.855   5.466
  350TIP3    H2 1015   3.672   3.756   5.351
  351TIP3   OH2 1016   3.487   2.373   5.770
  351TIP3    H1 1017   3.544   2.307   5.810
  351TIP3    H2 1018   3.443   2.415   5.844
  352TIP3   OH2 1019   4.488   6.459   4.635
  352TIP3    H1 1020   4.425   6.525   4.606
  352TIP3    H2 1021   4.486   6.392   4.567
  353TIP3   OH2 1022   1.859   6.593   5.371
  353TIP3    H1 1023   1.785   6.610   5.311
  353TIP3    H2 1024   1.840   6.508   5.409
  354TIP3   OH2 1025   5.145   1.399   0.783
  354TIP3    H1 1026   5.230   1.366   0.752
  354TIP3    H2 1027   5.162   1.491   0.804
  355TIP3   OH2 1028   0.439   0.967   4.915
  355TIP3    H1 1029   0.445   1.032   4.985
  355TIP3    H2 1030   0.374   0.904   4.946
  356TIP3   OH2 1031   2.965   0.350   1.573
  356TIP3    H1 1032   2.921   0.403   1.506
  356TIP3    H2 1033   2.908   0.356   1.650
  357TIP3   OH2 1034   6.302   3.367   3.390
  357TIP3    H1 1035   6.383   3.417   3.394
  357TIP3    H2 1036   6.301   3.317   3.472
  358TIP3   OH2 1037   5.481   1.210   5.187
  358TIP3    H1 1038   5.572   1.206   5.218
  358TIP3    H2 1039   5.488   1.195   5.093
  359TIP3   OH2 1040   1.043   6.105   0.187
  359TIP3    H1 1041   1.056   6.045   0.113
  359TIP3    H2 1042   1.041   6.048   0.264
  360TIP3   OH2 1043   0.740   6.489   3.061
  360TIP3    H1 1044   0.723   6.519   2.972
  360TIP3    H2 1045   0.807   6.421   3.051
  361TIP3   OH2 1046   4.211   3.568   3.467
  361TIP3    H1 1047   4.274   3.599   3.532
  361TIP3    H2 1048   4.128   3.560   3.514
  362TIP3   OH2 1049   2.649   0.792   2.802
  362TIP3    H1 1050   2.670   0.884   2.785
  362TIP3    H2 1051   2.675   0.747   2.722
  363TIP3   OH2 1052   4.385   4.992   3.533
  363TIP3    H1 1053   4.376   5.007   3.628
  363TIP3    H2 1054   4.439   4.914   3.526
  364TIP3   OH2 1055   5.637   6.585   0.978
  364TIP3    H1 1056   5.627   6.631   0.894
  364TIP3    H2 1057   5.726   6.550   0.976
  365TIP3   OH2 1058   1.984   3.575   0.417
  365TIP3    H1 1059   1.968   3.561   0.510
  365TIP3    H2 1060   2.028   3.660   0.413
  366TIP3   OH2 1061   5.912   2.777   2.595
  366TIP3    H1 1062   5.934   2.686   2.615
  366TIP3    H2 1063   5.882   2.814   2.679
  367TIP3   OH2 1064   3.101   4.708   5.356
  367TIP3    H1 1065   3.016   4.663   5.362
  367TIP3    H2 1066   3.163   4.639   5.332
  368TIP3   OH2 1067   0.953   0.909   3.018
  368TIP3    H1 1068   0.945   0.989   2.966
  368TIP3    H2 1069   0.878   0.913   3.078
  369TIP3   OH2 1070   4.107   1.115   2.209
  369TIP3    H1 1071   4.056   1.176   2.262
  369TIP3    H2 1072   4.074   1.127   2.120
  370TIP3   OH2 1073   3.811   6.512   3.103
  370TIP3    H1 1074   3.802   6.535   3.195
  370TIP3    H2 1075   3.752   6.573   3.057
  371TIP3   OH2 1076   1.661   5.279   2.583
  371TIP3    H1 1077   1.682   5.266   2.675
  371TIP3    H2 1078   1.587   5.340   2.583
  372TIP3   OH2 1079   1.388   2.578   0.792
  372TIP3    H1 1080   1.379   2.483   0.804
  372TIP3    H2 1081   1.390   2.591   0.697
  373TIP3   OH2 1082   2.932   0.376   3.953
  373TIP3    H1 1083   2.961   0.451   4.005
  373TIP3    H2 1084   2.847   0.353   3.990
  374TIP3   OH2 1085   1.220   5.301   3.064
  374TIP3    H1 1086   1.164   5.225   3.049
  374TIP3    H2 1087   1.196   5.330   3.153
  375TIP3   OH2 1088   3.075   6.009   0.582
  375TIP3    H1 1089   3.105   6.079   0.640
  375TIP3    H2 1090   2.986   6.035   0.557
  376TIP3   OH2 1091   2.929   3.025   0.252
  376TIP3    H1 1092   2.948   2.932   0.243
  376TIP3    H2 1093   2.851   3.029   0.307
  377TIP3   OH2 1094   2.970   3.735   2.522
  377TIP3    H1 1095   3.059   3.705   2.502
  377TIP3    H2 1096   2.920   3.720   2.442
  378TIP3   OH2 1097   0.643   3.508   4.731
  378TIP3    H1 1098   0.589   3.586   4.742
  378TIP3    H2 1099   0.733   3.541   4.732
  379TIP3   OH2 1100   5.914   4.048   5.144
  379TIP3    H1 1101   5.830   4.060   5.189
  379TIP3    H2 1102   5.895   4.062   5.052
  380TIP3   OH2 1103   6.976   1.770   2.833
  380TIP3    H1 1104   7.002   1.679   2.818
  380TIP3    H2 1105   6.882   1.766   2.849
  381TIP3   OH2 1106   4.548   5.064   4.045
  381TIP3    H1 1107   4.507   5.054   3.959
  381TIP3    H2 1108   4.521   4.987   4.094
  382TIP3   OH2 1109   5.010   3.339   4.231
  382TIP3    H1 1110   5.059   3.420   4.223
  382TIP3    H2 1111   5.076   3.272   4.249
  383TIP3   OH2 1112   6.253   2.758   0.314
  383TIP3    H1 1113   6.229   2.699   0.385
  383TIP3    H2 1114   6.253   2.845   0.354
  384TIP3   OH2 1115   7.051   1.257   3.758
  384TIP3    H1 1116   6.979   1.205   3.793
  384TIP3    H2 1117   7.123   1.194   3.746
  385TIP3   OH2 1118   4.642   1.005   2.895
  385TIP3    H1 1119   4.575   1.068   2.867
  385TIP3    H2 1120   4.639   1.008   2.991
  386TIP3   OH2 1121   3.903   3.325   2.007
  386TIP3    H1 1122   3.959   3.330   1.929
  386TIP3    H2 1123   3.961   3.347   2.080
  387TIP3   OH2 1124   7.106   6.081   1.780
  387TIP3    H1 1125   7.024   6.057   1.736
  387TIP3    H2 1126   7.155   5.999   1.786
  388TIP3   OH2 1127   3.676   4.650   3.048
  388TIP3    H1 1128   3.689   4.709   2.974
  388TIP3    H2 1129   3.646   4.568   3.008
  389TIP3   OH2 1130   0.932   4.908   2.615
  389TIP3    H1 1131   1.002   4.919   2.679
  389TIP3    H2 1132   0.931   4.990   2.565
  390TIP3   OH2 1133   5.862   6.154   1.734
  390TIP3    H1 1134   5.905   6.193   1.810
  390TIP3    H2 1135   5.933   6.136   1.672
  391TIP3   OH2 1136   2.352   3.174   1.043
  391TIP3    H1 1137   2.415   3.142   1.108
  391TIP3    H2 1138   2.289   3.103   1.035
  392TIP3   OH2 1139   0.817   3.831   3.682
  392TIP3    H1 1140   0.750   3.862   3.622
  392TIP3    H2 1141   0.883   3.900   3.682
  393TIP3   OH2 1142   5.202   4.759   4.498
  393TIP3    H1 1143   5.267   4.772   4.567
  393TIP3    H2 1144   5.239   4.802   4.421
  394TIP3   OH2 1145   6.472   4.390   0.100
  394TIP3    H1 1146   6.462   4.333   0.024
  394TIP3    H2 1147   6.422   4.469   0.077
  395TIP3   OH2 1148   4.236   6.687   2.727
  395TIP3    H1 1149   4.164   6.624   2.733
  395TIP3    H2 1150   4.315   6.633   2.728
  396TIP3   OH2 1151   6.817   2.588   0.895
  396TIP3    H1 1152   6.800   2.567   0.987
  396TIP3    H2 1153   6.732   2.584   0.853
  397TIP3   OH2 1154   1.511   2.746   2.560
  397TIP3    H1 1155   1.454   2.730   2.485
  397TIP3    H2 1156   1.507   2.666   2.611
  398TIP3   OH2 1157   2.670   5.770   0.995
  398TIP3    H1 1158   2.639   5.725   1.074
  398TIP3    H2 1159   2.756   5.805   1.020
  399TIP3   OH2 1160   2.497   6.769   1.004
  399TIP3    H1 1161   2.467   6.799   0.918
  399TIP3    H2 1162   2.471   6.839   1.064
  400TIP3   OH2 1163   3.940   1.212   5.120
  400TIP3    H1 1164   4.016   1.258   5.084
  400TIP3    H2 1165   3.971   1.124   5.140
  401TIP3   OH2 1166   4.963   1.597   5.631
  401TIP3    H1 1167   4.870   1.572   5.634
  401TIP3    H2 1168   4.999   1.546   5.560
  402TIP3   OH2 1169   2.553   3.917   0.705
  402TIP3    H1 1170   2.488   3.909   0.775
  402TIP3    H2 1171   2.636   3.894   0.747
  403TIP3   OH2 1172   1.089   1.761   0.830
  403TIP3    H1 1173   1.096   1.849   0.794
  403TIP3    H2 1174   1.141   1.706   0.771
  404TIP3   OH2 1175   0.665   3.122   3.488
  404TIP3    H1 1176   0.658   3.184   3.561
  404TIP3    H2 1177   0.700   3.175   3.416
  405TIP3   OH2 1178   1.252   3.600   2.742
  405TIP3    H1 1179   1.274   3.515   2.705
  405TIP3    H2 1180   1.205   3.646   2.672
  406TIP3   OH2 1181   7.153   1.835   3.763
  406TIP3    H1 1182   7.225   1.773   3.773
  406TIP3    H2 1183   7.195   1.918   3.742
  407TIP3   OH2 1184   2.860   6.063   4.154
  407TIP3    H1 1185   2.894   6.142   4.196
  407TIP3    H2 1186   2.918   6.048   4.079
  408TIP3   OH2 1187   2.449   3.956   3.398
  408TIP3    H1 1188   2.438   3.861   3.393
  408TIP3    H2 1189   2.514   3.969   3.467
  409TIP3   OH2 1190   5.423   3.012   4.729
  409TIP3    H1 1191   5.448   2.921   4.745
  409TIP3    H2 1192   5.351   3.007   4.666
  410TIP3   OH2 1193   6.881   3.273   0.993
  410TIP3    H1 1194   6.807   3.331   0.975
  410TIP3    H2 1195   6.907   3.240   0.907
  411TIP3   OH2 1196   0.760   6.495   1.026
  411TIP3    H1 1197   0.675   6.483   0.984
  411TIP3    H2 1198   0.740   6.516   1.117
  412TIP3   OH2 1199   6.374   4.579   4.836
  412TIP3    H1 1200   6.384   4.528   4.756
  412TIP3    H2 1201   6.454   4.630   4.843
  413TIP3   OH2 1202   3.257   1.873   2.439
  413TIP3    H1 1203   3.316   1.801   2.416
  413TIP3    H2 1204   3.308   1.926   2.501
  414TIP3   OH2 1205   1.934   1.558   2.235
  414TIP3    H1 1206   2.024   1.550   2.204
  414TIP3    H2 1207   1.913   1.651   2.222
  415TIP3   OH2 1208   7.162   0.482   0.632
  415TIP3    H1 1209   7.174   0.392   0.664
  415TIP3    H2 1210   7.097   0.520   0.692
  416TIP3   OH2 1211   4.344   3.247   1.450
  416TIP3    H1 1212   4.357   3.232   1.357
  416TIP3    H2 1213   4.417   3.202   1.492
  417TIP3   OH2 1214   0.826   3.128   0.442
  417TIP3    H1 1215   0.780   3.206   0.475
  417TIP3    H2 1216   0.821   3.065   0.514
  418TIP3   OH2 1217   5.303   2.919   2.921
  418TIP3    H1 1218   5.213   2.934   2.949
  418TIP3    H2 1219   5.351   2.996   2.950
  419TIP3   OH2 1220   7.208   5.298   0.417
  419TIP3    H1 1221   7.265   5.245   0.473
  419TIP3    H2 1222   7.201   5.247   0.336
  420TIP3   OH2 1223   5.828   2.053   3.098
  420TIP3    H1 1224   5.829   1.958   3.109
  420TIP3    H2 1225   5.863   2.088   3.180
  421TIP3   OH2 1226   3.780   1.729   2.998
  421TIP3    H1 1227   3.823   1.738   2.913
  421TIP3    H2 1228   3.781   1.635   3.016
  422TIP3   OH2 1229   6.191   1.528   5.423
  422TIP3    H1 1230   6.146   1.469   5.363
  422TIP3    H2 1231   6.275   1.546   5.382
  423TIP3   OH2 1232   6.861   0.316   1.438
  423TIP3    H1 1233   6.925   0.340   1.505
  423TIP3    H2 1234   6.813   0.397   1.421
  424TIP3   OH2 1235   5.581   4.083   0.706
  424TIP3    H1 1236   5.609   4.132   0.783
  424TIP3    H2 1237   5.491   4.058   0.725
  425TIP3   OH2 1238   0.258   2.324   3.935
  425TIP3    H1 1239   0.234   2.322   4.028
  425TIP3    H2 1240   0.175   2.337   3.889
  426TIP3   OH2 1241   2.548   0.473   3.115
  426TIP3    H1 1242   2.486   0.409   3.149
  426TIP3    H2 1243   2.632   0.427   3.113
  427TIP3   OH2 1244   6.554   2.063   1.091
  427TIP3    H1 1245   6.492   2.047   1.162
  427TIP3    H2 1246   6.525   2.145   1.051
  428TIP3   OH2 1247   2.755   6.020   2.005
  428TIP3    H1 1248   2.782   6.112   2.002
  428TIP3    H2 1249   2.768   5.994   2.096
  429TIP3   OH2 1250   7.046   0.565   2.019
  429TIP3    H1 1251   7.118   0.565   1.955
  429TIP3    H2 1252   7.064   0.640   2.076
  430TIP3   OH2 1253   4.592   1.666   4.378
  430TIP3    H1 1254   4.507   1.669   4.421
  430TIP3    H2 1255   4.602   1.574   4.352
  431TIP3   OH2 1256   1.134   3.032   0.113
  431TIP3    H1 1257   1.055   3.084   0.129
  431TIP3    H2 1258   1.121   2.996   0.025
  432TIP3   OH2 1259   7.186   3.168   2.402
  432TIP3    H1 1260   7.280   3.154   2.415
  432TIP3    H2 1261   7.146   3.085   2.429
  433TIP3   OH2 1262   0.265   5.212   5.296
  433TIP3    H1 1263   0.337   5.272   5.279
  433TIP3    H2 1264   0.200   5.233   5.229
  434TIP3   OH2 1265   1.449   2.393   0.160
  434TIP3    H1 1266   1.429   2.481   0.128
  434TIP3    H2 1267   1.526   2.405   0.216
  435TIP3   OH2 1268   2.507   4.986   5.304
  435TIP3    H1 1269   2.437   4.930   5.339
  435TIP3    H2 1270   2.585   4.959   5.351
  436TIP3   OH2 1271   5.093   6.479   5.536
  436TIP3    H1 1272   5.092   6.498   5.630
  436TIP3    H2 1273   5.020   6.530   5.501
  437TIP3   OH2 1274   2.715   2.086   3.635
  437TIP3    H1 1275   2.783   2.043   3.687
  437TIP3    H2 1276   2.763   2.130   3.565
  438TIP3   OH2 1277   3.952   0.238   0.899
  438TIP3    H1 1278   3.910   0.241   0.813
  438TIP3    H2 1279   3.904   0.171   0.947
  439TIP3   OH2 1280   7.057   5.548   3.957
  439TIP3    H1 1281   7.029   5.606   4.029
  439TIP3    H2 1282   7.152   5.549   3.962
  440TIP3   OH2 1283   7.059   5.947   4.517
  440TIP3    H1 1284   7.063   6.002   4.595
  440TIP3    H2 1285   6.986   5.983   4.466
  441TIP3   OH2 1286   5.336   3.436   4.283
  441TIP3    H1 1287   5.408   3.497   4.266
  441TIP3    H2 1288   5.360   3.356   4.236
  442TIP3   OH2 1289   0.503   6.344   4.099
  442TIP3    H1 1290   0.451   6.267   4.121
  442TIP3    H2 1291   0.478   6.365   4.009
  443TIP3   OH2 1292   4.525   3.693   2.662
  443TIP3    H1 1293   4.497   3.752   2.592
  443TIP3    H2 1294   4.495   3.735   2.742
  444TIP3   OH2 1295   3.894   6.240   3.340
  444TIP3    H1 1296   3.971   6.251   3.284
  444TIP3    H2 1297   3.849   6.164   3.305
  445TIP3   OH2 1298   5.144   5.906   3.049
  445TIP3    H1 1299   5.234   5.923   3.075
  445TIP3    H2 1300   5.103   5.992   3.047
  446TIP3   OH2 1301   0.151   1.661   3.852
  446TIP3    H1 1302   0.195   1.672   3.767
  446TIP3    H2 1303   0.178   1.738   3.902
  447TIP3   OH2 1304   4.938   2.434   4.600
  447TIP3    H1 1305   4.860   2.454   4.548
  447TIP3    H2 1306   4.912   2.358   4.653
  448TIP3   OH2 1307   5.441   5.619   2.555
  448TIP3    H1 1308   5.355   5.661   2.564
  448TIP3    H2 1309   5.461   5.625   2.462
  449TIP3   OH2 1310   1.661   6.397   4.638
  449TIP3    H1 1311   1.587   6.383   4.579
  449TIP3    H2 1312   1.734   6.419   4.580
  450TIP3   OH2 1313   6.937   3.442   3.171
  450TIP3    H1 1314   6.942   3.449   3.266
  450TIP3    H2 1315   6.993   3.513   3.139
  451TIP3   OH2 1316   3.082   3.257   5.505
  451TIP3    H1 1317   3.084   3.338   5.555
  451TIP3    H2 1318   3.164   3.257   5.455
  452TIP3   OH2 1319   0.434   6.539   4.622
  452TIP3    H1 1320   0.410   6.545   4.715
  452TIP3    H2 1321   0.352   6.557   4.576
  453TIP3   OH2 1322   2.072   0.102   4.695
  453TIP3    H1 1323   2.059   0.067   4.783
  453TIP3    H2 1324   2.108   0.189   4.708
  454TIP3   OH2 1325   3.098   4.609   3.116
  454TIP3    H1 1326   3.187   4.620   3.081
  454TIP3    H2 1327   3.046   4.579   3.041
  455TIP3   OH2 1328   5.554   6.247   0.018
  455TIP3    H1 1329   5.635   6.267   0.065
  455TIP3    H2 1330   5.582   6.225  -0.071
  456TIP3   OH2 1331   5.002   2.354   2.858
  456TIP3    H1 1332   4.967   2.270   2.886
  456TIP3    H2 1333   4.967   2.417   2.921
  457TIP3   OH2 1334   0.322   1.215   5.623
  457TIP3    H1 1335   0.294   1.146   5.683
  457TIP3    H2 1336   0.416   1.225   5.639
  458TIP3   OH2 1337   3.482   4.367   1.761
  458TIP3    H1 1338   3.455   4.293   1.707
  458TIP3    H2 1339   3.412   4.431   1.748
  459TIP3   OH2 1340   6.414   0.965   2.112
  459TIP3    H1 1341   6.326   0.963   2.073
  459TIP3    H2 1342   6.419   1.049   2.157
  460TIP3   OH2 1343   1.701   5.046   5.329
  460TIP3    H1 1344   1.762   5.004   5.268
  460TIP3    H2 1345   1.668   4.974   5.383
  461TIP3   OH2 1346   2.563   3.560   0.707
  461TIP3    H1 1347   2.474   3.592   0.695
  461TIP3    H2 1348   2.553   3.467   0.724
  462TIP3   OH2 1349   3.624   6.345   5.312
  462TIP3    H1 1350   3.567   6.420   5.330
  462TIP3    H2 1351   3.711   6.375   5.338
  463TIP3   OH2 1352   5.069   2.110   1.974
  463TIP3    H1 1353   4.998   2.173   1.985
  463TIP3    H2 1354   5.109   2.103   2.061
  464TIP3   OH2 1355   2.257   4.569   3.048
  464TIP3    H1 1356   2.230   4.635   2.985
  464TIP3    H2 1357   2.190   4.501   3.043
  465TIP3   OH2 1358   5.579   6.245   2.537
  465TIP3    H1 1359   5.638   6.174   2.562
  465TIP3    H2 1360   5.615   6.322   2.579
  466TIP3   OH2 1361   3.163   5.346   4.803
  466TIP3    H1 1362   3.184   5.325   4.893
  466TIP3    H2 1363   3.246   5.375   4.764
  467TIP3   OH2 1364   2.719   5.615   4.181
  467TIP3    H1 1365   2.649   5.679   4.168
  467TIP3    H2 1366   2.781   5.657   4.240
  468TIP3   OH2 1367   3.127   0.655   3.213
  468TIP3    H1 1368   3.070   0.582   3.188
  468TIP3    H2 1369   3.125   0.655   3.308
  469TIP3   OH2 1370   4.733   3.892   4.711
  469TIP3    H1 1371   4.654   3.894   4.658
  469TIP3    H2 1372   4.789   3.826   4.668
  470TIP3   OH2 1373   6.899   5.208   3.635
  470TIP3    H1 1374   6.810   5.241   3.653
  470TIP3    H2 1375   6.919   5.153   3.711
  471TIP3   OH2 1376   4.725   1.689   2.827
  471TIP3    H1 1377   4.800   1.692   2.768
  471TIP3    H2 1378   4.669   1.762   2.799
  472TIP3   OH2 1379   6.968   6.018   4.765
  472TIP3    H1 1380   6.893   5.983   4.814
  472TIP3    H2 1381   6.943   6.108   4.744
  473TIP3   OH2 1382   6.011   1.554   1.529
  473TIP3    H1 1383   6.001   1.523   1.619
  473TIP3    H2 1384   5.942   1.509   1.480
  474TIP3   OH2 1385   6.631   4.083   4.750
  474TIP3    H1 1386   6.550   4.103   4.797
  474TIP3    H2 1387   6.615   3.998   4.709
  475TIP3   OH2 1388   4.462   2.432   0.257
  475TIP3    H1 1389   4.367   2.417   0.266
  475TIP3    H2 1390   4.469   2.503   0.194
  476TIP3   OH2 1391   0.474   1.323   3.986
  476TIP3    H1 1392   0.503   1.278   3.907
  476TIP3    H2 1393   0.403   1.268   4.020
  477TIP3   OH2 1394   5.477   5.457   3.590
  477TIP3    H1 1395   5.560   5.465   3.637
  477TIP3    H2 1396   5.424   5.400   3.645
  478TIP3   OH2 1397   2.091   6.521   2.802
  478TIP3    H1 1398   2.056   6.443   2.845
  478TIP3    H2 1399   2.164   6.488   2.750
  479TIP3   OH2 1400   2.474   4.326   4.058
  479TIP3    H1 1401   2.422   4.266   4.004
  479TIP3    H2 1402   2.465   4.291   4.147
  480TIP3   OH2 1403   7.194   6.326   3.187
  480TIP3    H1 1404   7.128   6.300   3.251
  480TIP3    H2 1405   7.274   6.283   3.218
  481TIP3   OH2 1406   2.776   1.621   2.397
  481TIP3    H1 1407   2.784   1.567   2.476
  481TIP3    H2 1408   2.864   1.659   2.386
  482TIP3   OH2 1409   6.669   4.330   3.176
  482TIP3    H1 1410   6.718   4.249   3.159
  482TIP3    H2 1411   6.685   4.384   3.099
  483TIP3   OH2 1412   6.330   5.457   3.165
  483TIP3    H1 1413   6.402   5.406   3.202
  483TIP3    H2 1414   6.294   5.401   3.096
  484TIP3   OH2 1415   6.738   4.522   2.515
  484TIP3    H1 1416   6.795   4.586   2.473
  484TIP3    H2 1417   6.729   4.554   2.605
  485TIP3   OH2 1418   5.111   6.334   1.425
  485TIP3    H1 1419   5.060   6.316   1.504
  485TIP3    H2 1420   5.045   6.356   1.359
  486TIP3   OH2 1421   6.533   2.716   0.564
  486TIP3    H1 1422   6.500   2.805   0.573
  486TIP3    H2 1423   6.591   2.719   0.488
  487TIP3   OH2 1424   4.148   5.141   5.541
  487TIP3    H1 1425   4.116   5.081   5.473
  487TIP3    H2 1426   4.166   5.223   5.494
  488TIP3   OH2 1427   5.200   1.451   3.093
  488TIP3    H1 1428   5.197   1.456   2.997
  488TIP3    H2 1429   5.127   1.506   3.122
  489TIP3   OH2 1430   1.387   5.358   0.590
  489TIP3    H1 1431   1.404   5.452   0.582
  489TIP3    H2 1432   1.472   5.317   0.570
  490TIP3   OH2 1433   6.362   0.946   1.404
  490TIP3    H1 1434   6.434   1.009   1.393
  490TIP3    H2 1435   6.404   0.869   1.444
  491TIP3   OH2 1436   0.439   1.523   2.560
  491TIP3    H1 1437   0.532   1.508   2.547
  491TIP3    H2 1438   0.426   1.616   2.544
  492TIP3   OH2 1439   3.546   5.540   0.493
  492TIP3    H1 1440   3.612   5.526   0.561
  492TIP3    H2 1441   3.572   5.622   0.451
  493TIP3   OH2 1442   1.393   1.327   5.484
  493TIP3    H1 1443   1.391   1.339   5.389
  493TIP3    H2 1444   1.327   1.260   5.501
  494TIP3   OH2 1445   3.181   2.029   0.744
  494TIP3    H1 1446   3.107   2.060   0.797
  494TIP3    H2 1447   3.170   2.074   0.660
  495TIP3   OH2 1448   2.939   2.387   2.246
  495TIP3    H1 1449   2.882   2.406   2.321
  495TIP3    H2 1450   2.891   2.421   2.171
  496TIP3   OH2 1451   5.399   5.654   3.226
  496TIP3    H1 1452   5.303   5.660   3.227
  496TIP3    H2 1453   5.418   5.567   3.191
  497TIP3   OH2 1454   6.593   5.121   5.180
  497TIP3    H1 1455   6.671   5.172   5.199
  497TIP3    H2 1456   6.598   5.102   5.086
  498TIP3   OH2 1457   6.034   5.972   2.538
  498TIP3    H1 1458   6.037   5.879   2.560
  498TIP3    H2 1459   5.977   5.977   2.462
  499TIP3   OH2 1460   6.850   2.997   0.253
  499TIP3    H1 1461   6.945   2.987   0.245
  499TIP3    H2 1462   6.820   3.019   0.165
  500TIP3   OH2 1463   1.281   1.949   4.141
  500TIP3    H1 1464   1.228   1.956   4.061
  500TIP3    H2 1465   1.355   1.894   4.116
  501TIP3   OH2 1466   3.054   0.172   4.456
  501TIP3    H1 1467   3.108   0.105   4.497
  501TIP3    H2 1468   3.093   0.185   4.370
  502TIP3   OH2 1469  -0.006   4.792   3.873
  502TIP3    H1 1470   0.040   4.801   3.956
  502TIP3    H2 1471  -0.069   4.721   3.888
  503TIP3   OH2 1472   1.223   3.269   1.742
  503TIP3    H1 1473   1.244   3.361   1.729
  503TIP3    H2 1474   1.202   3.237   1.654
  504TIP3   OH2 1475   1.825   4.157   2.216
  504TIP3    H1 1476   1.817   4.163   2.121
  504TIP3    H2 1477   1.804   4.245   2.247
  505TIP3   OH2 1478   2.572   0.777   2.387
  505TIP3    H1 1479   2.585   0.789   2.293
  505TIP3    H2 1480   2.565   0.867   2.421
  506TIP3   OH2 1481   1.916   4.473   5.263
  506TIP3    H1 1482   1.851   4.539   5.239
  506TIP3    H2 1483   1.999   4.507   5.230
  507TIP3   OH2 1484   0.861   5.082   4.299
  507TIP3    H1 1485   0.867   5.138   4.377
  507TIP3    H2 1486   0.946   5.094   4.256
  508TIP3   OH2 1487   0.421   0.927   3.073
  508TIP3    H1 1488   0.343   0.953   3.024
  508TIP3    H2 1489   0.473   1.007   3.080
  509TIP3   OH2 1490   2.526   6.396   0.284
  509TIP3    H1 1491   2.478   6.314   0.276
  509TIP3    H2 1492   2.598   6.388   0.221
  510TIP3   OH2 1493   2.496   4.151   5.408
  510TIP3    H1 1494   2.439   4.163   5.332
  510TIP3    H2 1495   2.482   4.059   5.433
  511TIP3   OH2 1496   4.026   5.314   3.378
  511TIP3    H1 1497   4.099   5.258   3.404
  511TIP3    H2 1498   4.045   5.399   3.418
  512TIP3   OH2 1499   5.034   5.190   5.107
  512TIP3    H1 1500   4.981   5.110   5.109
  512TIP3    H2 1501   5.115   5.166   5.153
  513TIP3   OH2 1502   1.298   1.613   5.070
  513TIP3    H1 1503   1.291   1.624   4.975
  513TIP3    H2 1504   1.357   1.684   5.097
  514TIP3   OH2 1505   5.403   2.753   4.637
  514TIP3    H1 1506   5.318   2.757   4.593
  514TIP3    H2 1507   5.403   2.669   4.683
  515TIP3   OH2 1508   1.345   4.024   1.820
  515TIP3    H1 1509   1.258   4.046   1.854
  515TIP3    H2 1510   1.395   3.998   1.897
  516TIP3   OH2 1511   0.894   6.780   2.173
  516TIP3    H1 1512   0.844   6.743   2.246
  516TIP3    H2 1513   0.882   6.716   2.102
  517TIP3   OH2 1514   1.356   3.369   0.319
  517TIP3    H1 1515   1.342   3.304   0.388
  517TIP3    H2 1516   1.269   3.392   0.289
  518TIP3   OH2 1517   6.767   5.726   1.546
  518TIP3    H1 1518   6.782   5.683   1.461
  518TIP3    H2 1519   6.731   5.657   1.601
  519TIP3   OH2 1520   4.779   1.413   2.200
  519TIP3    H1 1521   4.757   1.376   2.285
  519TIP3    H2 1522   4.822   1.496   2.220
  520TIP3   OH2 1523   1.010   0.375   3.476
  520TIP3    H1 1524   0.993   0.299   3.531
  520TIP3    H2 1525   1.049   0.339   3.396
  521TIP3   OH2 1526   0.864   3.461   4.064
  521TIP3    H1 1527   0.889   3.550   4.039
  521TIP3    H2 1528   0.898   3.451   4.153
  522TIP3   OH2 1529   5.834   0.616   4.181
  522TIP3    H1 1530   5.743   0.603   4.209
  522TIP3    H2 1531   5.859   0.532   4.142
  523TIP3   OH2 1532   1.290   6.723   0.356
  523TIP3    H1 1533   1.272   6.632   0.381
  523TIP3    H2 1534   1.245   6.775   0.423
  524TIP3   OH2 1535   0.896   2.374   5.653
  524TIP3    H1 1536   0.881   2.318   5.730
  524TIP3    H2 1537   0.970   2.333   5.608
  525TIP3   OH2 1538   2.664   3.763   1.357
  525TIP3    H1 1539   2.697   3.693   1.301
  525TIP3    H2 1540   2.625   3.716   1.431
  526TIP3   OH2 1541   1.163   2.988   5.833
  526TIP3    H1 1542   1.119   3.017   5.914
  526TIP3    H2 1543   1.116   2.908   5.808
  527TIP3   OH2 1544   3.106   3.676   0.836
  527TIP3    H1 1545   3.011   3.667   0.845
  527TIP3    H2 1546   3.127   3.759   0.879
  528TIP3   OH2 1547   5.081   4.674   2.642
  528TIP3    H1 1548   5.093   4.620   2.721
  528TIP3    H2 1549   5.098   4.615   2.569
  529TIP3   OH2 1550   4.013   4.374   4.193
  529TIP3    H1 1551   3.953   4.351   4.263
  529TIP3    H2 1552   3.957   4.408   4.123
  530TIP3   OH2 1553   5.099   6.265   4.636
  530TIP3    H1 1554   5.153   6.241   4.711
  530TIP3    H2 1555   5.073   6.355   4.653
  531TIP3   OH2 1556   2.804   1.737   1.913
  531TIP3    H1 1557   2.852   1.769   1.989
  531TIP3    H2 1558   2.724   1.698   1.949
  532TIP3   OH2 1559   3.064   0.648   0.578
  532TIP3    H1 1560   3.146   0.641   0.530
  532TIP3    H2 1561   3.055   0.742   0.596
  533TIP3   OH2 1562   4.157   2.717   3.516
  533TIP3    H1 1563   4.245   2.710   3.551
  533TIP3    H2 1564   4.124   2.800   3.551
  534TIP3   OH2 1565   1.997   4.713   4.990
  534TIP3    H1 1566   2.078   4.672   4.961
  534TIP3    H2 1567   1.987   4.790   4.934
  535TIP3   OH2 1568   1.797   3.695   3.075
  535TIP3    H1 1569   1.726   3.676   3.136
  535TIP3    H2 1570   1.801   3.790   3.073
  536TIP3   OH2 1571   4.133   4.777   0.069
  536TIP3    H1 1572   4.082   4.850   0.104
  536TIP3    H2 1573   4.068   4.723   0.023
  537TIP3   OH2 1574   1.049   5.246   4.748
  537TIP3    H1 1575   1.068   5.336   4.774
  537TIP3    H2 1576   1.127   5.197   4.773
  538TIP3   OH2 1577   5.199   5.771   2.562
  538TIP3    H1 1578   5.163   5.700   2.509
  538TIP3    H2 1579   5.126   5.801   2.616
  539TIP3   OH2 1580   3.351   1.886   3.855
  539TIP3    H1 1581   3.340   1.847   3.768
  539TIP3    H2 1582   3.289   1.839   3.910
  540TIP3   OH2 1583   5.011   0.199   3.028
  540TIP3    H1 1584   5.094   0.242   3.049
  540TIP3    H2 1585   5.010   0.121   3.084
  541TIP3   OH2 1586   5.578   6.670   0.711
  541TIP3    H1 1587   5.597   6.627   0.627
  541TIP3    H2 1588   5.487   6.646   0.730
  542TIP3   OH2 1589   3.676   4.045   1.342
  542TIP3    H1 1590   3.744   4.076   1.282
  542TIP3    H2 1591   3.687   4.100   1.420
  543TIP3   OH2 1592   1.663   2.018   0.688
  543TIP3    H1 1593   1.733   1.974   0.735
  543TIP3    H2 1594   1.606   1.946   0.658
  544TIP3   OH2 1595   0.126   3.137   4.815
  544TIP3    H1 1596   0.074   3.136   4.895
  544TIP3    H2 1597   0.134   3.045   4.791
  545TIP3   OH2 1598   0.568   5.247   2.273
  545TIP3    H1 1599   0.629   5.316   2.296
  545TIP3    H2 1600   0.616   5.192   2.211
  546TIP3   OH2 1601   6.135   4.460   2.959
  546TIP3    H1 1602   6.147   4.469   2.864
  546TIP3    H2 1603   6.179   4.378   2.981
  547TIP3   OH2 1604   6.321   3.441   5.730
  547TIP3    H1 1605   6.377   3.492   5.672
  547TIP3    H2 1606   6.239   3.432   5.682
  548TIP3   OH2 1607   4.903   5.261   4.817
  548TIP3    H1 1608   4.955   5.235   4.892
  548TIP3    H2 1609   4.966   5.292   4.753
  549TIP3   OH2 1610   0.852   0.158   3.052
  549TIP3    H1 1611   0.767   0.195   3.031
  549TIP3    H2 1612   0.907   0.233   3.072
  550TIP3   OH2 1613   1.966   0.269   2.216
  550TIP3    H1 1614   1.884   0.243   2.175
  550TIP3    H2 1615   2.001   0.338   2.158
  551TIP3   OH2 1616   0.192   3.310   2.174
  551TIP3    H1 1617   0.136   3.383   2.201
  551TIP3    H2 1618   0.153   3.279   2.092
  552TIP3   OH2 1619   2.873   0.457   3.687
  552TIP3    H1 1620   2.942   0.454   3.622
  552TIP3    H2 1621   2.905   0.400   3.758
  553TIP3   OH2 1622   1.155   6.336   0.029
  553TIP3    H1 1623   1.100   6.298   0.098
  553TIP3    H2 1624   1.243   6.306   0.050
  554TIP3   OH2 1625   5.929   0.712   4.710
  554TIP3    H1 1626   5.885   0.648   4.766
  554TIP3    H2 1627   6.012   0.671   4.687
  555TIP3   OH2 1628   2.917   6.102   2.836
  555TIP3    H1 1629   2.896   6.099   2.742
  555TIP3    H2 1630   2.891   6.016   2.869
  556TIP3   OH2 1631   1.680   3.934   2.974
  556TIP3    H1 1632   1.626   3.902   2.902
  556TIP3    H2 1633   1.731   4.006   2.937
  557TIP3   OH2 1634   1.843   4.316   4.392
  557TIP3    H1 1635   1.877   4.276   4.313
  557TIP3    H2 1636   1.889   4.400   4.399
  558TIP3   OH2 1637   6.202   1.062   2.941
  558TIP3    H1 1638   6.178   0.972   2.961
  558TIP3    H2 1639   6.278   1.055   2.883
  559TIP3   OH2 1640   3.749   6.202   0.205
  559TIP3    H1 1641   3.826   6.169   0.158
  559TIP3    H2 1642   3.745   6.295   0.182
  560TIP3   OH2 1643   3.298   5.231   1.366
  560TIP3    H1 1644   3.270   5.191   1.284
  560TIP3    H2 1645   3.340   5.161   1.415
  561TIP3   OH2 1646   1.875   3.234   2.539
  561TIP3    H1 1647   1.785   3.202   2.548
  561TIP3    H2 1648   1.929   3.157   2.558
  562TIP3   OH2 1649   3.928   2.657   0.939
  562TIP3    H1 1650   3.946   2.563   0.942
  562TIP3    H2 1651   3.834   2.664   0.957
  563TIP3   OH2 1652   1.505   3.884   3.235
  563TIP3    H1 1653   1.430   3.944   3.232
  563TIP3    H2 1654   1.527   3.869   3.143
  564TIP3   OH2 1655   0.052   4.456   5.621
  564TIP3    H1 1656   0.013   4.521   5.679
  564TIP3    H2 1657  -0.006   4.380   5.626
  565TIP3   OH2 1658   3.136   0.520   4.521
  565TIP3    H1 1659   3.081   0.447   4.549
  565TIP3    H2 1660   3.084   0.564   4.453
  566TIP3   OH2 1661   1.987   6.516   0.618
  566TIP3    H1 1662   1.954   6.525   0.529
  566TIP3    H2 1663   2.067   6.464   0.609
  567TIP3   OH2 1664   4.505   3.746   3.678
  567TIP3    H1 1665   4.435   3.781   3.734
  567TIP3    H2 1666   4.581   3.799   3.699
  568TIP3   OH2 1667   4.248   3.370   2.999
  568TIP3    H1 1668   4.236   3.441   3.061
  568TIP3    H2 1669   4.214   3.293   3.044
  569TIP3   OH2 1670   0.494   5.316   2.964
  569TIP3    H1 1671   0.467   5.350   2.879
  569TIP3    H2 1672   0.437   5.240   2.979
  570TIP3   OH2 1673   0.558   1.107   4.200
  570TIP3    H1 1674   0.586   1.038   4.140
  570TIP3    H2 1675   0.550   1.185   4.145
  571TIP3   OH2 1676   1.936   2.081   2.054
  571TIP3    H1 1677   1.875   2.029   2.106
  571TIP3    H2 1678   1.993   2.016   2.013
  572TIP3   OH2 1679   2.753   4.552   3.027
  572TIP3    H1 1680   2.713   4.630   2.989
  572TIP3    H2 1681   2.699   4.532   3.103
  573TIP3   OH2 1682   3.360   5.253   0.171
  573TIP3    H1 1683   3.436   5.196   0.160
  573TIP3    H2 1684   3.288   5.193   0.192
  574TIP3   OH2 1685   2.821   0.639   0.682
  574TIP3    H1 1686   2.807   0.617   0.774
  574TIP3    H2 1687   2.912   0.614   0.665
  575TIP3   OH2 1688   6.390   4.236   0.332
  575TIP3    H1 1689   6.463   4.186   0.369
  575TIP3    H2 1690   6.427   4.281   0.256
  576TIP3   OH2 1691   3.838   5.189   4.641
  576TIP3    H1 1692   3.873   5.110   4.600
  576TIP3    H2 1693   3.874   5.261   4.590
  577TIP3   OH2 1694   0.317   4.522   3.025
  577TIP3    H1 1695   0.240   4.497   3.076
  577TIP3    H2 1696   0.282   4.577   2.955
  578TIP3   OH2 1697   6.320   2.903   3.635
  578TIP3    H1 1698   6.398   2.876   3.684
  578TIP3    H2 1699   6.318   2.844   3.560
  579TIP3   OH2 1700   2.764   3.827   0.844
  579TIP3    H1 1701   2.843   3.880   0.855
  579TIP3    H2 1702   2.776   3.783   0.760
  580TIP3   OH2 1703   0.680   5.065   3.409
  580TIP3    H1 1704   0.718   5.138   3.458
  580TIP3    H2 1705   0.589   5.060   3.440
  581TIP3   OH2 1706   6.478   5.630   2.955
  581TIP3    H1 1707   6.533   5.609   3.030
  581TIP3    H2 1708   6.524   5.701   2.910
  582TIP3   OH2 1709   3.841   5.931   3.764
  582TIP3    H1 1710   3.920   5.961   3.810
  582TIP3    H2 1711   3.837   5.837   3.784
  583TIP3   OH2 1712   6.664   6.041   5.125
  583TIP3    H1 1713   6.610   5.968   5.155
  583TIP3    H2 1714   6.722   6.061   5.199
  584TIP3   OH2 1715   3.784   0.880   2.558
  584TIP3    H1 1716   3.710   0.819   2.560
  584TIP3    H2 1717   3.846   0.840   2.497
  585TIP3   OH2 1718   5.523   1.439   3.683
  585TIP3    H1 1719   5.516   1.528   3.649
  585TIP3    H2 1720   5.505   1.447   3.777
  586TIP3   OH2 1721   1.917   6.541   0.337
  586TIP3    H1 1722   1.921   6.628   0.298
  586TIP3    H2 1723   2.002   6.502   0.318
  587TIP3   OH2 1724   1.093   4.895   2.846
  587TIP3    H1 1725   1.176   4.850   2.860
  587TIP3    H2 1726   1.110   4.985   2.874
  588TIP3   OH2 1727   7.141   3.095   0.952
  588TIP3    H1 1728   7.077   3.104   0.881
  588TIP3    H2 1729   7.194   3.019   0.926
  589TIP3   OH2 1730   5.022   2.780   1.357
  589TIP3    H1 1731   5.053   2.819   1.439
  589TIP3    H2 1732   4.955   2.841   1.325
  590TIP3   OH2 1733   5.572   6.497   1.236
  590TIP3    H1 1734   5.586   6.535   1.150
  590TIP3    H2 1735   5.480   6.471   1.237
  591TIP3   OH2 1736   3.281   4.684   3.780
  591TIP3    H1 1737   3.374   4.696   3.800
  591TIP3    H2 1738   3.252   4.770   3.750
  592TIP3   OH2 1739   6.123   6.139   2.737
  592TIP3    H1 1740   6.081   6.080   2.673
  592TIP3    H2 1741   6.085   6.114   2.821
  593TIP3   OH2 1742   4.130   1.700   3.665
  593TIP3    H1 1743   4.191   1.649   3.718
  593TIP3    H2 1744   4.090   1.761   3.726
  594TIP3   OH2 1745   6.672   2.462   2.586
  594TIP3    H1 1746   6.735   2.391   2.574
  594TIP3    H2 1747   6.713   2.538   2.543
  595TIP3   OH2 1748   6.264   0.048   5.365
  595TIP3    H1 1749   6.295   0.111   5.430
  595TIP3    H2 1750   6.169   0.053   5.370
  596TIP3   OH2 1751   2.450   3.687   3.345
  596TIP3    H1 1752   2.392   3.632   3.294
  596TIP3    H2 1753   2.536   3.675   3.306
  597TIP3   OH2 1754   1.971   5.246   2.716
  597TIP3    H1 1755   1.927   5.224   2.798
  597TIP3    H2 1756   1.957   5.340   2.705
  598TIP3   OH2 1757   3.672   0.222   2.415
  598TIP3    H1 1758   3.640   0.300   2.459
  598TIP3    H2 1759   3.593   0.171   2.394
  599TIP3   OH2 1760   5.137   3.527   4.718
  599TIP3    H1 1761   5.123   3.446   4.766
  599TIP3    H2 1762   5.204   3.505   4.653
  600TIP3   OH2 1763   3.346   5.202   3.301
  600TIP3    H1 1764   3.377   5.285   3.264
  600TIP3    H2 1765   3.297   5.162   3.229
  601TIP3   OH2 1766   0.335   0.560   3.037
  601TIP3    H1 1767   0.301   0.478   3.072
  601TIP3    H2 1768   0.427   0.561   3.064
  602TIP3   OH2 1769   1.849   6.127   0.673
  602TIP3    H1 1770   1.867   6.183   0.748
  602TIP3    H2 1771   1.754   6.129   0.663
  603TIP3   OH2 1772   4.493   4.281   4.257
  603TIP3    H1 1773   4.413   4.332   4.275
  603TIP3    H2 1774   4.495   4.215   4.326
  604TIP3   OH2 1775   4.925   2.659   3.265
  604TIP3    H1 1776   4.902   2.739   3.311
  604TIP3    H2 1777   4.847   2.603   3.274
  605TIP3   OH2 1778   6.805   4.576   5.734
  605TIP3    H1 1779   6.869   4.521   5.779
  605TIP3    H2 1780   6.724   4.563   5.784
  606TIP3   OH2 1781   4.131   6.165   4.136
  606TIP3    H1 1782   4.062   6.207   4.188
  606TIP3    H2 1783   4.189   6.124   4.200
  607TIP3   OH2 1784   0.245   4.672   2.135
  607TIP3    H1 1785   0.265   4.764   2.118
  607TIP3    H2 1786   0.241   4.665   2.231
  608TIP3   OH2 1787   2.842   3.041   2.616
  608TIP3    H1 1788   2.881   3.086   2.542
  608TIP3    H2 1789   2.915   3.022   2.675
  609TIP3   OH2 1790   1.412   1.462   0.395
  609TIP3    H1 1791   1.413   1.420   0.309
  609TIP3    H2 1792   1.321   1.491   0.406
  610TIP3   OH2 1793   4.667   2.378   2.472
  610TIP3    H1 1794   4.720   2.415   2.402
  610TIP3    H2 1795   4.594   2.334   2.428
  611TIP3   OH2 1796   0.227   4.395   5.431
  611TIP3    H1 1797   0.238   4.300   5.427
  611TIP3    H2 1798   0.162   4.409   5.500
  612TIP3   OH2 1799   0.755   1.395   4.618
  612TIP3    H1 1800   0.838   1.442   4.630
  612TIP3    H2 1801   0.724   1.379   4.707
  613TIP3   OH2 1802   4.279   2.056   5.054
  613TIP3    H1 1803   4.353   1.998   5.072
  613TIP3    H2 1804   4.276   2.062   4.958
  614TIP3   OH2 1805   0.981   5.668   0.556
  614TIP3    H1 1806   0.922   5.704   0.490
  614TIP3    H2 1807   0.930   5.665   0.636
  615TIP3   OH2 1808   4.894   3.526   0.686
  615TIP3    H1 1809   4.897   3.474   0.767
  615TIP3    H2 1810   4.977   3.507   0.642
  616TIP3   OH2 1811   1.794   6.485   4.983
  616TIP3    H1 1812   1.745   6.450   5.057
  616TIP3    H2 1813   1.850   6.413   4.954
  617TIP3   OH2 1814   6.986   2.673   5.158
  617TIP3    H1 1815   7.008   2.681   5.065
  617TIP3    H2 1816   6.941   2.589   5.165
  618TIP3   OH2 1817   0.044   0.080   3.880
  618TIP3    H1 1818  -0.041   0.038   3.871
  618TIP3    H2 1819   0.029   0.171   3.856
  619TIP3   OH2 1820   1.060   1.961   1.703
  619TIP3    H1 1821   1.097   1.972   1.615
  619TIP3    H2 1822   1.008   1.881   1.697
  620TIP3   OH2 1823   1.536   3.571   4.401
  620TIP3    H1 1824   1.533   3.543   4.493
  620TIP3    H2 1825   1.445   3.594   4.380
  621TIP3   OH2 1826   2.881   3.178   0.632
  621TIP3    H1 1827   2.843   3.232   0.701
  621TIP3    H2 1828   2.952   3.231   0.597
  622TIP3   OH2 1829   4.669   5.350   2.976
  622TIP3    H1 1830   4.759   5.380   2.963
  622TIP3    H2 1831   4.668   5.263   2.935
  623TIP3   OH2 1832   5.166   1.079   4.505
  623TIP3    H1 1833   5.168   1.153   4.564
  623TIP3    H2 1834   5.258   1.061   4.485
  624TIP3   OH2 1835   2.440   4.965   2.894
  624TIP3    H1 1836   2.386   4.957   2.972
  624TIP3    H2 1837   2.470   4.876   2.876
  625TIP3   OH2 1838   6.991   6.568   4.585
  625TIP3    H1 1839   7.035   6.616   4.656
  625TIP3    H2 1840   6.919   6.625   4.558
  626TIP3   OH2 1841   1.350   4.554   1.446
  626TIP3    H1 1842   1.388   4.501   1.376
  626TIP3    H2 1843   1.417   4.558   1.514
  627TIP3   OH2 1844   4.787   4.404   3.893
  627TIP3    H1 1845   4.770   4.364   3.978
  627TIP3    H2 1846   4.870   4.364   3.864
  628TIP3   OH2 1847   5.187   2.202   0.645
  628TIP3    H1 1848   5.238   2.123   0.631
  628TIP3    H2 1849   5.147   2.190   0.732
  629TIP3   OH2 1850   0.762   0.368   4.182
  629TIP3    H1 1851   0.749   0.433   4.113
  629TIP3    H2 1852   0.792   0.290   4.136
  630TIP3   OH2 1853   5.741   3.345   3.270
  630TIP3    H1 1854   5.832   3.340   3.300
  630TIP3    H2 1855   5.703   3.261   3.295
  631TIP3   OH2 1856   4.843   5.205   1.649
  631TIP3    H1 1857   4.761   5.160   1.669
  631TIP3    H2 1858   4.823   5.298   1.662
  632TIP3   OH2 1859   2.685   3.079   1.077
  632TIP3    H1 1860   2.679   3.135   1.155
  632TIP3    H2 1861   2.777   3.054   1.073
  633TIP3   OH2 1862   5.708   6.237   4.076
  633TIP3    H1 1863   5.617   6.262   4.059
  633TIP3    H2 1864   5.754   6.256   3.994
  634TIP3   OH2 1865   2.852   2.931   5.786
  634TIP3    H1 1866   2.894   2.987   5.851
  634TIP3    H2 1867   2.902   2.849   5.789
  635TIP3   OH2 1868   1.593   3.463   3.973
  635TIP3    H1 1869   1.597   3.371   3.947
  635TIP3    H2 1870   1.599   3.461   4.069
  636TIP3   OH2 1871   4.718   2.692   4.180
  636TIP3    H1 1872   4.785   2.688   4.248
  636TIP3    H2 1873   4.766   2.715   4.100
  637TIP3   OH2 1874   3.783   2.970   0.875
  637TIP3    H1 1875   3.847   2.997   0.810
  637TIP3    H2 1876   3.789   2.874   0.877
  638TIP3   OH2 1877   1.663   2.576   3.544
  638TIP3    H1 1878   1.726   2.646   3.565
  638TIP3    H2 1879   1.595   2.585   3.610
  639TIP3   OH2 1880   5.197   2.956   5.271
  639TIP3    H1 1881   5.217   3.028   5.210
  639TIP3    H2 1882   5.265   2.891   5.254
  640TIP3   OH2 1883   6.034   1.836   2.841
  640TIP3    H1 1884   6.027   1.916   2.893
  640TIP3    H2 1885   6.074   1.773   2.900
  641TIP3   OH2 1886   0.338   3.324   0.430
  641TIP3    H1 1887   0.417   3.377   0.441
  641TIP3    H2 1888   0.289   3.369   0.360
  642TIP3   OH2 1889   5.421   4.687   2.429
  642TIP3    H1 1890   5.363   4.686   2.352
  642TIP3    H2 1891   5.364   4.663   2.502
  643TIP3   OH2 1892   6.810   1.652   0.109
  643TIP3    H1 1893   6.797   1.571   0.058
  643TIP3    H2 1894   6.724   1.694   0.109
  644TIP3   OH2 1895   3.534   1.239   2.424
  644TIP3    H1 1896   3.532   1.143   2.415
  644TIP3    H2 1897   3.580   1.269   2.346
  645TIP3   OH2 1898   0.928   5.364   2.153
  645TIP3    H1 1899   0.876   5.371   2.233
  645TIP3    H2 1900   0.978   5.283   2.164
  646TIP3   OH2 1901   6.683   3.750   2.387
  646TIP3    H1 1902   6.737   3.768   2.310
  646TIP3    H2 1903   6.725   3.676   2.429
  647TIP3   OH2 1904   2.153   0.816   4.778
  647TIP3    H1 1905   2.190   0.834   4.692
  647TIP3    H2 1906   2.077   0.760   4.761
  648TIP3   OH2 1907   5.595   5.103   4.746
  648TIP3    H1 1908   5.521   5.118   4.806
  648TIP3    H2 1909   5.627   5.191   4.726
  649TIP3   OH2 1910   0.040  -0.048   0.415
  649TIP3    H1 1911   0.021  -0.019   0.504
  649TIP3    H2 1912  -0.038  -0.023   0.365
  650TIP3   OH2 1913   3.684   2.714   1.010
  650TIP3    H1 1914   3.653   2.719   1.100
  650TIP3    H2 1915   3.615   2.756   0.958
  651TIP3   OH2 1916   3.857   0.521   2.068
  651TIP3    H1 1917   3.800   0.543   1.995
  651TIP3    H2 1918   3.810   0.552   2.146
  652TIP3   OH2 1919   5.349   3.549   3.844
  652TIP3    H1 1920   5.264   3.570   3.805
  652TIP3    H2 1921   5.330   3.477   3.905
  653TIP3   OH2 1922   6.830   6.198   5.297
  653TIP3    H1 1923   6.883   6.214   5.219
  653TIP3    H2 1924   6.767   6.270   5.298
  654TIP3   OH2 1925   0.181   4.383   2.656
  654TIP3    H1 1926   0.249   4.450   2.663
  654TIP3    H2 1927   0.143   4.377   2.743
  655TIP3   OH2 1928   4.069   0.907   1.138
  655TIP3    H1 1929   4.088   0.814   1.153
  655TIP3    H2 1930   3.973   0.912   1.143
  656TIP3   OH2 1931   0.754   0.930   1.011
  656TIP3    H1 1932   0.815   0.890   1.072
  656TIP3    H2 1933   0.718   1.005   1.058
  657TIP3   OH2 1934   1.694   2.664   0.107
  657TIP3    H1 1935   1.684   2.703   0.194
  657TIP3    H2 1936   1.788   2.655   0.095
  658TIP3   OH2 1937   3.518   6.674   4.815
  658TIP3    H1 1938   3.586   6.739   4.834
  658TIP3    H2 1939   3.446   6.697   4.874
  659TIP3   OH2 1940   0.956   0.386   1.875
  659TIP3    H1 1941   0.941   0.481   1.876
  659TIP3    H2 1942   0.938   0.358   1.964
  660TIP3   OH2 1943   2.655   2.471   4.321
  660TIP3    H1 1944   2.625   2.443   4.407
  660TIP3    H2 1945   2.628   2.400   4.262
  661TIP3   OH2 1946   6.867   3.588   1.230
  661TIP3    H1 1947   6.915   3.508   1.252
  661TIP3    H2 1948   6.935   3.656   1.225
  662TIP3   OH2 1949   4.484   2.422   1.593
  662TIP3    H1 1950   4.466   2.461   1.507
  662TIP3    H2 1951   4.435   2.340   1.593
  663TIP3   OH2 1952   4.220   0.190   1.105
  663TIP3    H1 1953   4.167   0.113   1.087
  663TIP3    H2 1954   4.241   0.226   1.019
  664TIP3   OH2 1955   1.732   1.452   5.540
  664TIP3    H1 1956   1.792   1.380   5.556
  664TIP3    H2 1957   1.731   1.502   5.622
  665TIP3   OH2 1958   3.812   0.909   4.310
  665TIP3    H1 1959   3.778   0.924   4.398
  665TIP3    H2 1960   3.735   0.917   4.253
  666TIP3   OH2 1961   6.859   3.913   0.750
  666TIP3    H1 1962   6.839   3.965   0.828
  666TIP3    H2 1963   6.945   3.945   0.722
  667TIP3   OH2 1964   6.438   5.909   3.974
  667TIP3    H1 1965   6.459   5.848   4.045
  667TIP3    H2 1966   6.348   5.889   3.951
  668TIP3   OH2 1967   2.650   5.637   1.914
  668TIP3    H1 1968   2.555   5.643   1.919
  668TIP3    H2 1969   2.668   5.544   1.925
  669TIP3   OH2 1970   3.812   6.416   0.886
  669TIP3    H1 1971   3.875   6.390   0.819
  669TIP3    H2 1972   3.865   6.426   0.966
  670TIP3   OH2 1973   4.259   4.778   2.128
  670TIP3    H1 1974   4.294   4.761   2.216
  670TIP3    H2 1975   4.335   4.782   2.071
  671TIP3   OH2 1976   6.532   2.169   1.934
  671TIP3    H1 1977   6.594   2.206   1.871
  671TIP3    H2 1978   6.505   2.086   1.894
  672TIP3   OH2 1979   3.005   4.000   3.863
  672TIP3    H1 1980   3.099   4.015   3.863
  672TIP3    H2 1981   2.987   3.956   3.946
  673TIP3   OH2 1982   3.435   0.449   1.666
  673TIP3    H1 1983   3.510   0.487   1.620
  673TIP3    H2 1984   3.470   0.424   1.751
  674TIP3   OH2 1985   4.598   3.739   2.968
  674TIP3    H1 1986   4.686   3.703   2.960
  674TIP3    H2 1987   4.607   3.830   2.943
  675TIP3   OH2 1988   4.825   5.045   0.445
  675TIP3    H1 1989   4.779   5.123   0.415
  675TIP3    H2 1990   4.851   5.065   0.535
  676TIP3   OH2 1991   2.891   5.452   2.459
  676TIP3    H1 1992   2.924   5.383   2.401
  676TIP3    H2 1993   2.860   5.406   2.536
  677TIP3   OH2 1994   0.320   6.353   3.297
  677TIP3    H1 1995   0.362   6.372   3.213
  677TIP3    H2 1996   0.380   6.294   3.342
  678TIP3   OH2 1997   6.825   0.184   0.673
  678TIP3    H1 1998   6.790   0.106   0.716
  678TIP3    H2 1999   6.789   0.257   0.723
  679TIP3   OH2 2000   1.224   5.012   4.813
  679TIP3    H1 2001   1.159   4.963   4.862
  679TIP3    H2 2002   1.307   4.967   4.830
  680TIP3   OH2 2003   0.534   4.349   4.765
  680TIP3    H1 2004   0.604   4.295   4.728
  680TIP3    H2 2005   0.470   4.286   4.799
  681TIP3   OH2 2006   4.526   3.827   1.998
  681TIP3    H1 2007   4.513   3.898   1.935
  681TIP3    H2 2008   4.540   3.750   1.943
  682TIP3   OH2 2009   4.767   2.572   2.695
  682TIP3    H1 2010   4.758   2.522   2.614
  682TIP3    H2 2011   4.732   2.514   2.763
  683TIP3   OH2 2012   0.945   2.781   2.020
  683TIP3    H1 2013   0.858   2.806   1.988
  683TIP3    H2 2014   0.975   2.857   2.070
  684TIP3   OH2 2015   0.289   1.920   0.103
  684TIP3    H1 2016   0.352   1.900   0.033
  684TIP3    H2 2017   0.205   1.893   0.067
  685TIP3   OH2 2018   0.692   0.184   3.430
  685TIP3    H1 2019   0.738   0.190   3.514
  685TIP3    H2 2020   0.606   0.148   3.453
  686TIP3   OH2 2021   2.380   3.966   4.984
  686TIP3    H1 2022   2.415   3.970   4.895
  686TIP3    H2 2023   2.286   3.983   4.975
  687TIP3   OH2 2024   4.079   4.984   5.308
  687TIP3    H1 2025   3.987   5.001   5.287
  687TIP3    H2 2026   4.111   4.932   5.235
  688TIP3   OH2 2027   5.954   6.473   2.478
  688TIP3    H1 2028   6.006   6.461   2.557
  688TIP3    H2 2029   5.931   6.384   2.451
  689TIP3   OH2 2030   2.944   5.418   0.286
  689TIP3    H1 2031   2.934   5.473   0.364
  689TIP3    H2 2032   3.015   5.459   0.237
  690TIP3   OH2 2033   4.245   2.683   3.099
  690TIP3    H1 2034   4.264   2.745   3.028
  690TIP3    H2 2035   4.314   2.698   3.163
  691TIP3   OH2 2036   1.963   2.921   2.991
  691TIP3    H1 2037   1.964   2.900   2.898
  691TIP3    H2 2038   1.908   2.998   2.998
  692TIP3   OH2 2039   2.382   0.095   3.411
  692TIP3    H1 2040   2.473   0.098   3.380
  692TIP3    H2 2041   2.388   0.114   3.504
  693TIP3   OH2 2042   4.164   4.914   2.882
  693TIP3    H1 2043   4.161   4.819   2.871
  693TIP3    H2 2044   4.236   4.928   2.943
  694TIP3   OH2 2045   1.373   2.435   3.116
  694TIP3    H1 2046   1.379   2.485   3.197
  694TIP3    H2 2047   1.344   2.498   3.050
  695TIP3   OH2 2048   6.913   0.326   4.777
  695TIP3    H1 2049   6.957   0.411   4.784
  695TIP3    H2 2050   6.944   0.289   4.694
  696TIP3   OH2 2051   0.069   0.047   5.301
  696TIP3    H1 2052  -0.024   0.031   5.318
  696TIP3    H2 2053   0.104   0.077   5.384
  697TIP3   OH2 2054   3.015   1.152   3.711
  697TIP3    H1 2055   3.016   1.060   3.686
  697TIP3    H2 2056   3.043   1.152   3.803
  698TIP3   OH2 2057   5.294   1.290   1.426
  698TIP3    H1 2058   5.318   1.379   1.451
  698TIP3    H2 2059   5.198   1.290   1.423
  699TIP3   OH2 2060   0.589   0.249   2.643
  699TIP3    H1 2061   0.623   0.326   2.599
  699TIP3    H2 2062   0.596   0.269   2.736
  700TIP3   OH2 2063   6.665   3.240   4.182
  700TIP3    H1 2064   6.635   3.149   4.189
  700TIP3    H2 2065   6.717   3.242   4.102
  701TIP3   OH2 2066   4.472   4.482   4.054
  701TIP3    H1 2067   4.407   4.456   3.988
  701TIP3    H2 2068   4.489   4.402   4.103
  702TIP3   OH2 2069  -0.006   4.924   5.079
  702TIP3    H1 2070   0.039   4.840   5.085
  702TIP3    H2 2071  -0.039   4.939   5.168
  703TIP3   OH2 2072   2.175   1.273   1.624
  703TIP3    H1 2073   2.270   1.275   1.627
  703TIP3    H2 2074   2.147   1.359   1.656
  704TIP3   OH2 2075   5.172   0.367   1.143
  704TIP3    H1 2076   5.083   0.382   1.176
  704TIP3    H2 2077   5.227   0.362   1.221
  705TIP3   OH2 2078   5.147   0.788   3.101
  705TIP3    H1 2079   5.094   0.813   3.025
  705TIP3    H2 2080   5.103   0.711   3.137
  706TIP3   OH2 2081   4.481   0.892   1.896
  706TIP3    H1 2082   4.550   0.908   1.832
  706TIP3    H2 2083   4.525   0.901   1.981
  707TIP3   OH2 2084   3.513   4.804   0.157
  707TIP3    H1 2085   3.544   4.725   0.201
  707TIP3    H2 2086   3.536   4.876   0.216
  708TIP3   OH2 2087   2.940   4.877   0.044
  708TIP3    H1 2088   2.969   4.793   0.079
  708TIP3    H2 2089   2.869   4.904   0.103
  709TIP3   OH2 2090   5.032   6.279   5.785
  709TIP3    H1 2091   5.007   6.277   5.693
  709TIP3    H2 2092   5.049   6.371   5.804
  710TIP3   OH2 2093   6.744   0.419   5.646
  710TIP3    H1 2094   6.677   0.387   5.706
  710TIP3    H2 2095   6.783   0.340   5.609
  711TIP3   OH2 2096   3.110   6.667   1.174
  711TIP3    H1 2097   3.048   6.677   1.246
  711TIP3    H2 2098   3.075   6.595   1.122
  712TIP3   OH2 2099   1.222   1.650   0.625
  712TIP3    H1 2100   1.200   1.587   0.556
  712TIP3    H2 2101   1.273   1.718   0.580
  713TIP3   OH2 2102   6.800   5.715   5.549
  713TIP3    H1 2103   6.857   5.638   5.551
  713TIP3    H2 2104   6.856   5.785   5.515
  714TIP3   OH2 2105   4.922   2.244   1.433
  714TIP3    H1 2106   4.899   2.332   1.405
  714TIP3    H2 2107   4.911   2.245   1.529
  715TIP3   OH2 2108   2.920   1.425   3.939
  715TIP3    H1 2109   2.931   1.490   4.009
  715TIP3    H2 2110   3.007   1.417   3.900
  716TIP3   OH2 2111   3.405   2.343   2.320
  716TIP3    H1 2112   3.467   2.285   2.364
  716TIP3    H2 2113   3.319   2.305   2.338
  717TIP3   OH2 2114   2.712   6.554   0.831
  717TIP3    H1 2115   2.724   6.633   0.884
  717TIP3    H2 2116   2.674   6.586   0.749
  718TIP3   OH2 2117   2.727   6.470   3.088
  718TIP3    H1 2118   2.677   6.541   3.127
  718TIP3    H2 2119   2.677   6.391   3.108
  719TIP3   OH2 2120   0.518   4.749   4.992
  719TIP3    H1 2121   0.543   4.700   5.070
  719TIP3    H2 2122   0.527   4.841   5.018
  720TIP3   OH2 2123   0.743   1.438   5.505
  720TIP3    H1 2124   0.718   1.531   5.501
  720TIP3    H2 2125   0.835   1.437   5.476
  721TIP3   OH2 2126   0.719   3.773   0.295
  721TIP3    H1 2127   0.642   3.775   0.352
  721TIP3    H2 2128   0.776   3.841   0.330
  722TIP3   OH2 2129   4.957   5.422   3.750
  722TIP3    H1 2130   4.939   5.477   3.826
  722TIP3    H2 2131   4.944   5.480   3.675
  723TIP3   OH2 2132   2.998   1.975   0.343
  723TIP3    H1 2133   3.049   1.894   0.343
  723TIP3    H2 2134   2.963   1.980   0.432
  724TIP3   OH2 2135   5.649   5.064   2.674
  724TIP3    H1 2136   5.669   4.970   2.674
  724TIP3    H2 2137   5.586   5.075   2.744
  725TIP3   OH2 2138   3.511   4.926   1.107
  725TIP3    H1 2139   3.428   4.896   1.071
  725TIP3    H2 2140   3.554   4.973   1.035
  726TIP3   OH2 2141   5.711   2.373   3.473
  726TIP3    H1 2142   5.695   2.389   3.566
  726TIP3    H2 2143   5.787   2.428   3.452
  727TIP3   OH2 2144   1.092   6.306   3.413
  727TIP3    H1 2145   1.061   6.397   3.418
  727TIP3    H2 2146   1.098   6.278   3.504
  728TIP3   OH2 2147   0.643   1.240   5.323
  728TIP3    H1 2148   0.729   1.202   5.305
  728TIP3    H2 2149   0.660   1.306   5.390
  729TIP3   OH2 2150   3.783   4.964   4.469
  729TIP3    H1 2151   3.785   4.934   4.560
  729TIP3    H2 2152   3.691   4.988   4.454
  730TIP3   OH2 2153   5.728   5.827   2.386
  730TIP3    H1 2154   5.668   5.887   2.431
  730TIP3    H2 2155   5.683   5.742   2.387
  731TIP3   OH2 2156   3.067   1.128   4.574
  731TIP3    H1 2157   2.999   1.183   4.535
  731TIP3    H2 2158   3.085   1.168   4.659
  732TIP3   OH2 2159   5.378   5.081   5.455
  732TIP3    H1 2160   5.348   4.992   5.442
  732TIP3    H2 2161   5.361   5.099   5.547
  733TIP3   OH2 2162   6.616   1.935   2.545
  733TIP3    H1 2163   6.574   2.008   2.500
  733TIP3    H2 2164   6.645   1.971   2.629
  734TIP3   OH2 2165   2.063   3.385   5.868
  734TIP3    H1 2166   2.047   3.293   5.888
  734TIP3    H2 2167   2.156   3.398   5.887
  735TIP3   OH2 2168   3.832   3.136   5.456
  735TIP3    H1 2169   3.893   3.140   5.530
  735TIP3    H2 2170   3.869   3.195   5.391
  736TIP3   OH2 2171   5.801   3.392   2.852
  736TIP3    H1 2172   5.844   3.472   2.823
  736TIP3    H2 2173   5.862   3.322   2.828
  737TIP3   OH2 2174   6.878   3.266   5.354
  737TIP3    H1 2175   6.866   3.195   5.417
  737TIP3    H2 2176   6.794   3.312   5.353
  738TIP3   OH2 2177   1.823   1.825   2.140
  738TIP3    H1 2178   1.800   1.819   2.048
  738TIP3    H2 2179   1.748   1.786   2.186
  739TIP3   OH2 2180   3.921   1.281   2.304
  739TIP3    H1 2181   3.964   1.352   2.256
  739TIP3    H2 2182   3.828   1.291   2.284
  740TIP3   OH2 2183   4.493   0.203   1.115
  740TIP3    H1 2184   4.398   0.190   1.116
  740TIP3    H2 2185   4.515   0.230   1.204
  741TIP3   OH2 2186   0.233   1.533   1.736
  741TIP3    H1 2187   0.183   1.547   1.817
  741TIP3    H2 2188   0.220   1.614   1.686
  742TIP3   OH2 2189   7.033   4.619   3.914
  742TIP3    H1 2190   6.976   4.628   3.990
  742TIP3    H2 2191   7.042   4.525   3.902
  743TIP3   OH2 2192   5.292   0.442   0.407
  743TIP3    H1 2193   5.321   0.351   0.410
  743TIP3    H2 2194   5.251   0.457   0.492
  744TIP3   OH2 2195   5.713   0.436   0.852
  744TIP3    H1 2196   5.654   0.392   0.791
  744TIP3    H2 2197   5.791   0.457   0.800
  745TIP3   OH2 2198   2.357   0.573   0.407
  745TIP3    H1 2199   2.370   0.532   0.322
  745TIP3    H2 2200   2.326   0.661   0.387
  746TIP3   OH2 2201   5.750   6.578   4.138
  746TIP3    H1 2202   5.681   6.643   4.155
  746TIP3    H2 2203   5.798   6.573   4.221
  747TIP3   OH2 2204   4.012   6.679   5.228
  747TIP3    H1 2205   3.948   6.609   5.230
  747TIP3    H2 2206   3.968   6.753   5.270
  748TIP3   OH2 2207   4.277   1.505   1.789
  748TIP3    H1 2208   4.243   1.481   1.703
  748TIP3    H2 2209   4.320   1.426   1.821
  749TIP3   OH2 2210   3.835   0.702   3.502
  749TIP3    H1 2211   3.891   0.722   3.577
  749TIP3    H2 2212   3.823   0.785   3.458
  750TIP3   OH2 2213   4.459   6.059   1.358
  750TIP3    H1 2214   4.535   6.028   1.409
  750TIP3    H2 2215   4.470   6.154   1.353
  751TIP3   OH2 2216   0.239   0.978   1.385
  751TIP3    H1 2217   0.322   1.026   1.377
  751TIP3    H2 2218   0.171   1.043   1.370
  752TIP3   OH2 2219   3.460   2.145   2.842
  752TIP3    H1 2220   3.368   2.154   2.819
  752TIP3    H2 2221   3.474   2.210   2.910
  753TIP3   OH2 2222   1.117   2.234   5.136
  753TIP3    H1 2223   1.175   2.285   5.078
  753TIP3    H2 2224   1.050   2.199   5.077
  754TIP3   OH2 2225   3.435   5.403   4.715
  754TIP3    H1 2226   3.490   5.447   4.779
  754TIP3    H2 2227   3.416   5.470   4.649
  755TIP3   OH2 2228   6.580   3.216   4.998
  755TIP3    H1 2229   6.533   3.261   5.069
  755TIP3    H2 2230   6.668   3.202   5.033
  756TIP3   OH2 2231   3.171   4.950   2.790
  756TIP3    H1 2232   3.156   5.006   2.714
  756TIP3    H2 2233   3.088   4.904   2.804
  757TIP3   OH2 2234   7.079   3.606   4.551
  757TIP3    H1 2235   7.064   3.682   4.496
  757TIP3    H2 2236   7.112   3.539   4.490
  758TIP3   OH2 2237   5.626   0.961   5.500
  758TIP3    H1 2238   5.618   0.868   5.478
  758TIP3    H2 2239   5.653   0.962   5.591
  759TIP3   OH2 2240   2.778   0.532   4.946
  759TIP3    H1 2241   2.737   0.587   5.013
  759TIP3    H2 2242   2.810   0.456   4.993
  760TIP3   OH2 2243   0.751   1.561   1.837
  760TIP3    H1 2244   0.678   1.591   1.891
  760TIP3    H2 2245   0.713   1.495   1.779
  761TIP3   OH2 2246   1.377   0.803   0.952
  761TIP3    H1 2247   1.331   0.755   0.883
  761TIP3    H2 2248   1.322   0.880   0.968
  762TIP3   OH2 2249   5.177   5.371   5.619
  762TIP3    H1 2250   5.154   5.282   5.646
  762TIP3    H2 2251   5.095   5.408   5.586
  763TIP3   OH2 2252   3.807   5.221   3.861
  763TIP3    H1 2253   3.811   5.299   3.805
  763TIP3    H2 2254   3.749   5.162   3.814
  764TIP3   OH2 2255   6.146   4.547   1.837
  764TIP3    H1 2256   6.197   4.604   1.780
  764TIP3    H2 2257   6.105   4.607   1.900
  765TIP3   OH2 2258   5.437   1.156   1.813
  765TIP3    H1 2259   5.449   1.244   1.847
  765TIP3    H2 2260   5.469   1.160   1.723
  766TIP3   OH2 2261   3.743   3.681   2.539
  766TIP3    H1 2262   3.766   3.605   2.485
  766TIP3    H2 2263   3.823   3.699   2.589
  767TIP3   OH2 2264   4.299   2.577   4.093
  767TIP3    H1 2265   4.219   2.629   4.100
  767TIP3    H2 2266   4.290   2.530   4.009
  768TIP3   OH2 2267   7.081   3.982   5.611
  768TIP3    H1 2268   7.106   4.068   5.645
  768TIP3    H2 2269   7.044   4.001   5.524
  769TIP3   OH2 2270   0.988   2.346   5.358
  769TIP3    H1 2271   0.905   2.298   5.369
  769TIP3    H2 2272   1.034   2.297   5.289
  770TIP3   OH2 2273   0.710   2.442   1.537
  770TIP3    H1 2274   0.787   2.499   1.544
  770TIP3    H2 2275   0.746   2.354   1.530
  771TIP3   OH2 2276   4.930   6.518   3.994
  771TIP3    H1 2277   4.890   6.436   3.966
  771TIP3    H2 2278   4.880   6.543   4.072
  772TIP3   OH2 2279   4.597   6.349   3.466
  772TIP3    H1 2280   4.504   6.368   3.478
  772TIP3    H2 2281   4.635   6.356   3.554
  773TIP3   OH2 2282   3.128   1.789   5.726
  773TIP3    H1 2283   3.158   1.710   5.772
  773TIP3    H2 2284   3.204   1.817   5.676
  774TIP3   OH2 2285   6.415   2.415   1.925
  774TIP3    H1 2286   6.386   2.448   2.010
  774TIP3    H2 2287   6.452   2.329   1.943
  775TIP3   OH2 2288   1.993   5.471   5.658
  775TIP3    H1 2289   1.962   5.554   5.621
  775TIP3    H2 2290   2.028   5.423   5.583
  776TIP3   OH2 2291   5.781   0.855   2.585
  776TIP3    H1 2292   5.875   0.844   2.577
  776TIP3    H2 2293   5.750   0.772   2.622
  777TIP3   OH2 2294   2.128   0.840   3.502
  777TIP3    H1 2295   2.048   0.863   3.455
  777TIP3    H2 2296   2.127   0.745   3.507
  778TIP3   OH2 2297   5.159   3.994   4.255
  778TIP3    H1 2298   5.246   3.965   4.230
  778TIP3    H2 2299   5.157   4.087   4.234
  779TIP3   OH2 2300   1.564   5.873   1.654
  779TIP3    H1 2301   1.524   5.909   1.574
  779TIP3    H2 2302   1.520   5.789   1.666
  780TIP3   OH2 2303   0.880   4.150   0.648
  780TIP3    H1 2304   0.836   4.228   0.614
  780TIP3    H2 2305   0.956   4.183   0.695
  781TIP3   OH2 2306   4.268   5.881   0.660
  781TIP3    H1 2307   4.233   5.865   0.747
  781TIP3    H2 2308   4.313   5.965   0.667
  782TIP3   OH2 2309   2.496   0.728   3.022
  782TIP3    H1 2310   2.529   0.739   2.932
  782TIP3    H2 2311   2.542   0.651   3.055
  783TIP3   OH2 2312   4.929   6.147   1.942
  783TIP3    H1 2313   4.984   6.215   1.905
  783TIP3    H2 2314   4.928   6.165   2.036
  784TIP3   OH2 2315   1.153   6.166   1.556
  784TIP3    H1 2316   1.200   6.185   1.637
  784TIP3    H2 2317   1.212   6.109   1.507
  785TIP3   OH2 2318   0.794   3.860   0.926
  785TIP3    H1 2319   0.817   3.845   1.017
  785TIP3    H2 2320   0.875   3.893   0.886
  786TIP3   OH2 2321   2.270   5.151   1.386
  786TIP3    H1 2322   2.296   5.220   1.324
  786TIP3    H2 2323   2.176   5.142   1.372
  787TIP3   OH2 2324   2.591   2.102   1.405
  787TIP3    H1 2325   2.624   2.177   1.355
  787TIP3    H2 2326   2.665   2.073   1.457
  788TIP3   OH2 2327   6.705   1.559   1.240
  788TIP3    H1 2328   6.618   1.572   1.279
  788TIP3    H2 2329   6.736   1.647   1.219
  789TIP3   OH2 2330   4.039   4.003   1.000
  789TIP3    H1 2331   4.037   4.005   0.904
  789TIP3    H2 2332   3.954   4.038   1.027
  790TIP3   OH2 2333   3.907   0.732   3.785
  790TIP3    H1 2334   3.846   0.704   3.853
  790TIP3    H2 2335   3.926   0.824   3.806
  791TIP3   OH2 2336   0.688   4.643   5.584
  791TIP3    H1 2337   0.693   4.714   5.520
  791TIP3    H2 2338   0.598   4.612   5.578
  792TIP3   OH2 2339   5.111   1.135   3.063
  792TIP3    H1 2340   5.123   1.222   3.025
  792TIP3    H2 2341   5.172   1.134   3.137
  793TIP3   OH2 2342   0.204   4.337   4.662
  793TIP3    H1 2343   0.183   4.322   4.754
  793TIP3    H2 2344   0.122   4.326   4.616
  794TIP3   OH2 2345   5.728   1.390   0.394
  794TIP3    H1 2346   5.769   1.426   0.473
  794TIP3    H2 2347   5.681   1.313   0.425
  795TIP3   OH2 2348   1.706   2.405   0.320
  795TIP3    H1 2349   1.801   2.394   0.327
  795TIP3    H2 2350   1.688   2.486   0.367
  796TIP3   OH2 2351   6.835   3.138   5.063
  796TIP3    H1 2352   6.878   3.156   5.147
  796TIP3    H2 2353   6.894   3.077   5.019
  797TIP3   OH2 2354   5.005   4.353   3.254
  797TIP3    H1 2355   5.026   4.334   3.346
  797TIP3    H2 2356   4.978   4.445   3.254
  798TIP3   OH2 2357   3.957   5.936   5.806
  798TIP3    H1 2358   4.007   5.979   5.874
  798TIP3    H2 2359   4.023   5.899   5.747
  799TIP3   OH2 2360   6.977   3.168   2.064
  799TIP3    H1 2361   7.069   3.165   2.091
  799TIP3    H2 2362   6.944   3.250   2.102
  800TIP3   OH2 2363   1.194   5.086   5.816
  800TIP3    H1 2364   1.106   5.085   5.777
  800TIP3    H2 2365   1.252   5.108   5.744
  801TIP3   OH2 2366   5.293   1.532   0.129
  801TIP3    H1 2367   5.378   1.564   0.161
  801TIP3    H2 2368   5.309   1.440   0.109
  802TIP3   OH2 2369   4.877   0.942   5.306
  802TIP3    H1 2370   4.955   0.947   5.251
  802TIP3    H2 2371   4.910   0.946   5.395
  803TIP3   OH2 2372   0.745   6.294   4.632
  803TIP3    H1 2373   0.820   6.250   4.591
  803TIP3    H2 2374   0.673   6.279   4.571
  804TIP3   OH2 2375   5.252   1.706   0.585
  804TIP3    H1 2376   5.332   1.667   0.548
  804TIP3    H2 2377   5.185   1.689   0.518
  805TIP3   OH2 2378   5.882   5.184   4.783
  805TIP3    H1 2379   5.851   5.267   4.820
  805TIP3    H2 2380   5.880   5.197   4.689
  806TIP3   OH2 2381   0.870   5.244   1.393
  806TIP3    H1 2382   0.961   5.236   1.422
  806TIP3    H2 2383   0.864   5.334   1.359
  807TIP3   OH2 2384   3.915   5.233   2.379
  807TIP3    H1 2385   3.930   5.213   2.287
  807TIP3    H2 2386   3.968   5.168   2.426
  808TIP3   OH2 2387   6.048   4.809   0.180
  808TIP3    H1 2388   5.969   4.781   0.226
  808TIP3    H2 2389   6.100   4.854   0.246
  809TIP3   OH2 2390   5.392   6.040   3.066
  809TIP3    H1 2391   5.398   6.128   3.030
  809TIP3    H2 2392   5.454   5.988   3.016
  810TIP3   OH2 2393   0.708   4.425   2.021
  810TIP3    H1 2394   0.778   4.360   2.020
  810TIP3    H2 2395   0.630   4.376   1.997
  811TIP3   OH2 2396   3.410   0.038   2.752
  811TIP3    H1 2397   3.344   0.083   2.804
  811TIP3    H2 2398   3.421   0.094   2.675
  812TIP3   OH2 2399   6.223   3.154   2.612
  812TIP3    H1 2400   6.234   3.203   2.694
  812TIP3    H2 2401   6.228   3.062   2.638
  813TIP3   OH2 2402   0.673   1.400   0.998
  813TIP3    H1 2403   0.649   1.449   1.077
  813TIP3    H2 2404   0.756   1.358   1.020
  814TIP3   OH2 2405   2.301   2.605   0.835
  814TIP3    H1 2406   2.359   2.655   0.892
  814TIP3    H2 2407   2.244   2.557   0.894
  815TIP3   OH2 2408   6.846   2.464   4.378
  815TIP3    H1 2409   6.805   2.550   4.386
  815TIP3    H2 2410   6.921   2.478   4.320
  816TIP3   OH2 2411   1.514   3.463   4.652
  816TIP3    H1 2412   1.460   3.386   4.635
  816TIP3    H2 2413   1.603   3.429   4.662
  817TIP3   OH2 2414   5.106   1.111   3.840
  817TIP3    H1 2415   5.043   1.057   3.792
  817TIP3    H2 2416   5.165   1.145   3.772
  818TIP3   OH2 2417   2.949   4.815   5.805
  818TIP3    H1 2418   2.973   4.806   5.897
  818TIP3    H2 2419   2.958   4.727   5.769
  819TIP3   OH2 2420   5.400   5.900   4.058
  819TIP3    H1 2421   5.416   5.973   3.998
  819TIP3    H2 2422   5.384   5.825   4.001
  820TIP3   OH2 2423   3.561   3.360   0.588
  820TIP3    H1 2424   3.503   3.350   0.664
  820TIP3    H2 2425   3.649   3.356   0.624
  821TIP3   OH2 2426   5.814   2.606   4.864
  821TIP3    H1 2427   5.864   2.619   4.783
  821TIP3    H2 2428   5.839   2.680   4.919
  822TIP3   OH2 2429   3.237   1.420   1.214
  822TIP3    H1 2430   3.160   1.454   1.168
  822TIP3    H2 2431   3.307   1.480   1.189
  823TIP3   OH2 2432   3.682   5.315   4.836
  823TIP3    H1 2433   3.754   5.270   4.792
  823TIP3    H2 2434   3.646   5.249   4.895
  824TIP3   OH2 2435   3.238   3.861   1.861
  824TIP3    H1 2436   3.146   3.835   1.853
  824TIP3    H2 2437   3.262   3.838   1.951
  825TIP3   OH2 2438   0.334   6.417   1.596
  825TIP3    H1 2439   0.417   6.393   1.639
  825TIP3    H2 2440   0.271   6.354   1.630
  826TIP3   OH2 2441   5.010   4.760   4.725
  826TIP3    H1 2442   5.088   4.749   4.670
  826TIP3    H2 2443   4.959   4.680   4.712
  827TIP3   OH2 2444   0.304   6.164   4.159
  827TIP3    H1 2445   0.220   6.203   4.132
  827TIP3    H2 2446   0.287   6.130   4.247
  828TIP3   OH2 2447   4.175   0.687   0.278
  828TIP3    H1 2448   4.227   0.768   0.274
  828TIP3    H2 2449   4.238   0.617   0.262
  829TIP3   OH2 2450   2.769   2.091   2.936
  829TIP3    H1 2451   2.777   1.999   2.962
  829TIP3    H2 2452   2.700   2.126   2.992
  830TIP3   OH2 2453   6.952   4.056   5.374
  830TIP3    H1 2454   6.861   4.033   5.359
  830TIP3    H2 2455   6.952   4.152   5.379
  831TIP3   OH2 2456   2.695   2.417   4.771
  831TIP3    H1 2457   2.740   2.335   4.750
  831TIP3    H2 2458   2.610   2.389   4.806
  832TIP3   OH2 2459   5.040   3.504   0.324
  832TIP3    H1 2460   5.084   3.496   0.409
  832TIP3    H2 2461   5.055   3.595   0.298
  833TIP3   OH2 2462   0.361   0.125   1.118
  833TIP3    H1 2463   0.414   0.204   1.132
  833TIP3    H2 2464   0.420   0.064   1.074
  834TIP3   OH2 2465   6.295   4.103   2.121
  834TIP3    H1 2466   6.370   4.047   2.140
  834TIP3    H2 2467   6.322   4.154   2.044
  835TIP3   OH2 2468   5.469   3.599   3.502
  835TIP3    H1 2469   5.392   3.580   3.556
  835TIP3    H2 2470   5.470   3.528   3.437
  836TIP3   OH2 2471   4.527   1.452   1.513
  836TIP3    H1 2472   4.471   1.419   1.444
  836TIP3    H2 2473   4.525   1.384   1.581
  837TIP3   OH2 2474   6.684   4.794   5.584
  837TIP3    H1 2475   6.724   4.881   5.591
  837TIP3    H2 2476   6.750   4.734   5.619
  838TIP3   OH2 2477   5.999   3.735   4.200
  838TIP3    H1 2478   6.035   3.670   4.140
  838TIP3    H2 2479   5.967   3.685   4.275
  839TIP3   OH2 2480   0.785   0.287   5.506
  839TIP3    H1 2481   0.760   0.203   5.543
  839TIP3    H2 2482   0.868   0.271   5.463
  840TIP3   OH2 2483   5.859   5.814   2.799
  840TIP3    H1 2484   5.807   5.733   2.801
  840TIP3    H2 2485   5.857   5.846   2.890
  841TIP3   OH2 2486   2.656   3.572   0.959
  841TIP3    H1 2487   2.643   3.546   0.868
  841TIP3    H2 2488   2.687   3.662   0.954
  842TIP3   OH2 2489   3.271   0.613   2.210
  842TIP3    H1 2490   3.314   0.671   2.146
  842TIP3    H2 2491   3.181   0.644   2.214
  843TIP3   OH2 2492   4.834   0.427   5.896
  843TIP3    H1 2493   4.836   0.522   5.910
  843TIP3    H2 2494   4.905   0.412   5.833
  844TIP3   OH2 2495   4.654   0.954   3.510
  844TIP3    H1 2496   4.734   0.902   3.504
  844TIP3    H2 2497   4.592   0.900   3.559
  845TIP3   OH2 2498   6.914   0.309   3.497
  845TIP3    H1 2499   6.872   0.389   3.467
  845TIP3    H2 2500   6.842   0.245   3.501
  846TIP3   OH2 2501   2.776   1.481   4.641
  846TIP3    H1 2502   2.821   1.536   4.704
  846TIP3    H2 2503   2.686   1.476   4.674
  847TIP3   OH2 2504   4.870   6.401   4.464
  847TIP3    H1 2505   4.793   6.344   4.451
  847TIP3    H2 2506   4.859   6.435   4.553
  848TIP3   OH2 2507   1.679   6.684   3.536
  848TIP3    H1 2508   1.766   6.723   3.544
  848TIP3    H2 2509   1.619   6.759   3.536
  849TIP3   OH2 2510   1.563   4.990   4.938
  849TIP3    H1 2511   1.581   4.906   4.896
  849TIP3    H2 2512   1.632   5.048   4.907
  850TIP3   OH2 2513   6.881   1.270   2.206
  850TIP3    H1 2514   6.911   1.329   2.137
  850TIP3    H2 2515   6.786   1.284   2.211
  851TIP3   OH2 2516   0.927   1.066   2.100
  851TIP3    H1 2517   0.910   1.091   2.191
  851TIP3    H2 2518   0.857   1.109   2.050
  852TIP3   OH2 2519   6.412   3.800   0.929
  852TIP3    H1 2520   6.331   3.773   0.886
  852TIP3    H2 2521   6.415   3.747   1.010
  853TIP3   OH2 2522   3.940   0.264   4.951
  853TIP3    H1 2523   3.908   0.174   4.946
  853TIP3    H2 2524   3.862   0.318   4.950
  854TIP3   OH2 2525   0.343   1.706   3.680
  854TIP3    H1 2526   0.415   1.701   3.744
  854TIP3    H2 2527   0.385   1.690   3.596
  855TIP3   OH2 2528   4.810   0.535   0.661
  855TIP3    H1 2529   4.826   0.446   0.695
  855TIP3    H2 2530   4.869   0.543   0.586
  856TIP3   OH2 2531   4.590   0.513   1.217
  856TIP3    H1 2532   4.557   0.601   1.199
  856TIP3    H2 2533   4.543   0.486   1.296
  857TIP3   OH2 2534   0.467   3.237   1.143
  857TIP3    H1 2535   0.382   3.264   1.178
  857TIP3    H2 2536   0.447   3.204   1.056
  858TIP3   OH2 2537   4.760   4.585   1.637
  858TIP3    H1 2538   4.752   4.616   1.546
  858TIP3    H2 2539   4.720   4.498   1.636
  859TIP3   OH2 2540   5.876   6.621   5.328
  859TIP3    H1 2541   5.829   6.540   5.311
  859TIP3    H2 2542   5.809   6.682   5.360
  860TIP3   OH2 2543   2.355   4.147   3.884
  860TIP3    H1 2544   2.390   4.114   3.802
  860TIP3    H2 2545   2.271   4.185   3.861
  861TIP3   OH2 2546   2.318   5.074   2.336
  861TIP3    H1 2547   2.363   5.159   2.339
  861TIP3    H2 2548   2.253   5.079   2.405
  862TIP3   OH2 2549   3.557   0.784   1.391
  862TIP3    H1 2550   3.519   0.851   1.334
  862TIP3    H2 2551   3.649   0.783   1.368
  863TIP3   OH2 2552   6.216   6.677   1.611
  863TIP3    H1 2553   6.201   6.589   1.575
  863TIP3    H2 2554   6.130   6.719   1.606
  864TIP3   OH2 2555   7.109   1.574   1.706
  864TIP3    H1 2556   7.083   1.531   1.788
  864TIP3    H2 2557   7.137   1.502   1.649
  865TIP3   OH2 2558   1.908   0.121   2.732
  865TIP3    H1 2559   1.876   0.031   2.732
  865TIP3    H2 2560   1.952   0.132   2.648
  866TIP3   OH2 2561   7.131   1.897   5.286
  866TIP3    H1 2562   7.125   1.914   5.381
  866TIP3    H2 2563   7.064   1.953   5.248
  867TIP3   OH2 2564   7.068   0.278   2.089
  867TIP3    H1 2565   7.119   0.352   2.058
  867TIP3    H2 2566   7.034   0.307   2.174
  868TIP3   OH2 2567   1.057   0.710   2.425
  868TIP3    H1 2568   0.990   0.653   2.464
  868TIP3    H2 2569   1.120   0.649   2.387
  869TIP3   OH2 2570   3.948   4.590   5.817
  869TIP3    H1 2571   3.876   4.550   5.866
  869TIP3    H2 2572   3.921   4.682   5.806
  870TIP3   OH2 2573   5.289   3.593   2.242
  870TIP3    H1 2574   5.375   3.563   2.212
  870TIP3    H2 2575   5.241   3.613   2.161
  871TIP3   OH2 2576   5.821   1.756   3.105
  871TIP3    H1 2577   5.803   1.767   3.012
  871TIP3    H2 2578   5.838   1.663   3.116
  872TIP3   OH2 2579   2.620   0.553   1.960
  872TIP3    H1 2580   2.591   0.571   1.870
  872TIP3    H2 2581   2.636   0.459   1.961
  873TIP3   OH2 2582   2.976   3.557   1.074
  873TIP3    H1 2583   2.967   3.612   1.152
  873TIP3    H2 2584   3.028   3.610   1.013
  874TIP3   OH2 2585   5.770   2.088   2.633
  874TIP3    H1 2586   5.769   2.182   2.654
  874TIP3    H2 2587   5.707   2.049   2.693
  875TIP3   OH2 2588   5.661   5.610   5.725
  875TIP3    H1 2589   5.693   5.607   5.815
  875TIP3    H2 2590   5.739   5.595   5.671
  876TIP3   OH2 2591   3.245   0.640   3.486
  876TIP3    H1 2592   3.319   0.583   3.508
  876TIP3    H2 2593   3.286   0.725   3.468
  877TIP3   OH2 2594   2.701   3.144   0.383
  877TIP3    H1 2595   2.624   3.184   0.424
  877TIP3    H2 2596   2.756   3.118   0.457
  878TIP3   OH2 2597   1.860   5.855   3.608
  878TIP3    H1 2598   1.804   5.864   3.686
  878TIP3    H2 2599   1.832   5.926   3.550
  879TIP3   OH2 2600   3.759   3.049   4.867
  879TIP3    H1 2601   3.736   3.023   4.778
  879TIP3    H2 2602   3.695   3.005   4.922
  880TIP3   OH2 2603   2.597   0.948   3.200
  880TIP3    H1 2604   2.538   0.897   3.145
  880TIP3    H2 2605   2.551   1.030   3.216
  881TIP3   OH2 2606   3.048   2.157   5.292
  881TIP3    H1 2607   3.124   2.188   5.243
  881TIP3    H2 2608   2.973   2.197   5.249
  882TIP3   OH2 2609   5.890   0.892   4.370
  882TIP3    H1 2610   5.925   0.955   4.433
  882TIP3    H2 2611   5.916   0.927   4.284
  883TIP3   OH2 2612   2.992   6.000   3.903
  883TIP3    H1 2613   2.975   6.078   3.850
  883TIP3    H2 2614   3.080   5.972   3.878
  884TIP3   OH2 2615   0.174   2.079   1.413
  884TIP3    H1 2616   0.241   2.130   1.459
  884TIP3    H2 2617   0.123   2.039   1.483
  885TIP3   OH2 2618   2.664   2.352   3.258
  885TIP3    H1 2619   2.650   2.275   3.203
  885TIP3    H2 2620   2.650   2.426   3.200
  886TIP3   OH2 2621   3.855   2.858   1.322
  886TIP3    H1 2622   3.907   2.783   1.297
  886TIP3    H2 2623   3.919   2.926   1.345
  887TIP3   OH2 2624   6.169   5.423   5.261
  887TIP3    H1 2625   6.098   5.359   5.268
  887TIP3    H2 2626   6.249   5.372   5.275
  888TIP3   OH2 2627   0.728   3.341   0.766
  888TIP3    H1 2628   0.819   3.365   0.783
  888TIP3    H2 2629   0.685   3.423   0.742
  889TIP3   OH2 2630   0.273   0.074   4.447
  889TIP3    H1 2631   0.251   0.068   4.540
  889TIP3    H2 2632   0.274  -0.017   4.416
  890TIP3   OH2 2633   1.059   3.344   1.096
  890TIP3    H1 2634   1.050   3.387   1.011
  890TIP3    H2 2635   1.019   3.258   1.084
  891TIP3   OH2 2636   1.503   0.718   2.122
  891TIP3    H1 2637   1.563   0.648   2.096
  891TIP3    H2 2638   1.471   0.691   2.208
  892TIP3   OH2 2639   3.076   0.720   4.350
  892TIP3    H1 2640   3.096   0.751   4.438
  892TIP3    H2 2641   3.161   0.699   4.311
  893TIP3   OH2 2642   6.824   0.274   0.411
  893TIP3    H1 2643   6.845   0.249   0.500
  893TIP3    H2 2644   6.732   0.302   0.415
  894TIP3   OH2 2645   1.265   3.322   5.794
  894TIP3    H1 2646   1.252   3.415   5.775
  894TIP3    H2 2647   1.198   3.278   5.743
  895TIP3   OH2 2648   2.120   3.060   2.447
  895TIP3    H1 2649   2.049   3.029   2.390
  895TIP3    H2 2650   2.187   2.992   2.441
  896TIP3   OH2 2651   6.967   3.747   2.301
  896TIP3    H1 2652   7.048   3.708   2.333
  896TIP3    H2 2653   6.991   3.790   2.219
  897TIP3   OH2 2654   2.381   0.764   3.444
  897TIP3    H1 2655   2.367   0.697   3.377
  897TIP3    H2 2656   2.294   0.802   3.458
  898TIP3   OH2 2657   4.993   5.269   0.320
  898TIP3    H1 2658   5.039   5.193   0.355
  898TIP3    H2 2659   4.980   5.248   0.227
  899TIP3   OH2 2660   3.405   3.950   1.583
  899TIP3    H1 2661   3.405   3.872   1.528
  899TIP3    H2 2662   3.367   3.922   1.666
  900TIP3   OH2 2663   5.670   6.303   1.870
  900TIP3    H1 2664   5.716   6.361   1.931
  900TIP3    H2 2665   5.730   6.291   1.797
  901TIP3   OH2 2666   4.433   0.307   2.714
  901TIP3    H1 2667   4.342   0.316   2.683
  901TIP3    H2 2668   4.432   0.344   2.802
  902TIP3   OH2 2669   3.285   1.391   2.426
  902TIP3    H1 2670   3.289   1.423   2.516
  902TIP3    H2 2671   3.358   1.330   2.419
  903TIP3   OH2 2672   2.334   2.636   5.689
  903TIP3    H1 2673   2.391   2.691   5.743
  903TIP3    H2 2674   2.371   2.642   5.601
  904TIP3   OH2 2675   2.160   3.129   0.041
  904TIP3    H1 2676   2.117   3.204   0.001
  904TIP3    H2 2677   2.103   3.055   0.022
  905TIP3   OH2 2678   2.194   5.760   3.950
  905TIP3    H1 2679   2.163   5.818   3.881
  905TIP3    H2 2680   2.289   5.772   3.951
  906TIP3   OH2 2681   3.005   4.434   2.901
  906TIP3    H1 2682   2.915   4.461   2.915
  906TIP3    H2 2683   3.015   4.433   2.805
  907TIP3   OH2 2684   0.086   4.106   5.253
  907TIP3    H1 2685   0.139   4.106   5.332
  907TIP3    H2 2686   0.125   4.039   5.198
  908TIP3   OH2 2687   5.107   5.306   4.084
  908TIP3    H1 2688   5.052   5.280   4.158
  908TIP3    H2 2689   5.083   5.245   4.014
  909TIP3   OH2 2690   6.295   5.771   2.774
  909TIP3    H1 2691   6.297   5.721   2.692
  909TIP3    H2 2692   6.327   5.709   2.840
  910TIP3   OH2 2693   7.175   0.888   4.343
  910TIP3    H1 2694   7.239   0.900   4.272
  910TIP3    H2 2695   7.104   0.839   4.302
  911TIP3   OH2 2696   1.002   4.488   4.903
  911TIP3    H1 2697   1.051   4.494   4.985
  911TIP3    H2 2698   0.910   4.483   4.931
  912TIP3   OH2 2699   5.497   5.361   2.597
  912TIP3    H1 2700   5.493   5.348   2.692
  912TIP3    H2 2701   5.499   5.456   2.586
  913TIP3   OH2 2702   5.533   3.159   2.371
  913TIP3    H1 2703   5.441   3.133   2.370
  913TIP3    H2 2704   5.558   3.158   2.463
  914TIP3   OH2 2705   3.845   5.627   2.501
  914TIP3    H1 2706   3.886   5.609   2.586
  914TIP3    H2 2707   3.902   5.585   2.437
  915TIP3   OH2 2708   5.731   0.886   3.778
  915TIP3    H1 2709   5.783   0.896   3.698
  915TIP3    H2 2710   5.674   0.963   3.779
  916TIP3   OH2 2711   2.760   0.001   2.497
  916TIP3    H1 2712   2.767  -0.089   2.529
  916TIP3    H2 2713   2.669   0.026   2.515
  917TIP3   OH2 2714   3.458   0.201   4.467
  917TIP3    H1 2715   3.390   0.202   4.398
  917TIP3    H2 2716   3.497   0.288   4.463
  918TIP3   OH2 2717   2.503   2.815   0.650
  918TIP3    H1 2718   2.592   2.852   0.645
  918TIP3    H2 2719   2.510   2.730   0.608
  919TIP3   OH2 2720   5.723   6.616   4.955
  919TIP3    H1 2721   5.673   6.535   4.961
  919TIP3    H2 2722   5.661   6.681   4.924
  920TIP3   OH2 2723   5.088   3.798   4.419
  920TIP3    H1 2724   5.116   3.872   4.365
  920TIP3    H2 2725   5.020   3.834   4.475
  921TIP3   OH2 2726   0.363   0.256   1.393
  921TIP3    H1 2727   0.313   0.194   1.340
  921TIP3    H2 2728   0.299   0.290   1.456
  922TIP3   OH2 2729   2.901   4.249   2.301
  922TIP3    H1 2730   2.845   4.255   2.378
  922TIP3    H2 2731   2.873   4.321   2.245
  923TIP3   OH2 2732   2.729   3.256   2.767
  923TIP3    H1 2733   2.752   3.192   2.701
  923TIP3    H2 2734   2.782   3.333   2.746
  924TIP3   OH2 2735   4.878   0.888   0.807
  924TIP3    H1 2736   4.927   0.852   0.881
  924TIP3    H2 2737   4.788   0.890   0.837
  925TIP3   OH2 2738   5.031   5.464   1.414
  925TIP3    H1 2739   5.084   5.426   1.483
  925TIP3    H2 2740   5.059   5.556   1.409
  926TIP3   OH2 2741   6.780   5.730   5.859
  926TIP3    H1 2742   6.863   5.728   5.812
  926TIP3    H2 2743   6.724   5.788   5.807
  927TIP3   OH2 2744   2.645   5.263   5.026
  927TIP3    H1 2745   2.608   5.306   5.103
  927TIP3    H2 2746   2.569   5.241   4.972
  928TIP3   OH2 2747   7.011   1.446   0.762
  928TIP3    H1 2748   7.042   1.498   0.687
  928TIP3    H2 2749   6.916   1.442   0.750
  929TIP3   OH2 2750   3.075   6.048   2.168
  929TIP3    H1 2751   3.019   5.982   2.128
  929TIP3    H2 2752   3.120   6.002   2.239
  930TIP3   OH2 2753   0.888   5.246   3.948
  930TIP3    H1 2754   0.980   5.222   3.956
  930TIP3    H2 2755   0.860   5.264   4.038
  931TIP3   OH2 2756   3.597   2.196   3.341
  931TIP3    H1 2757   3.655   2.244   3.282
  931TIP3    H2 2758   3.531   2.259   3.367
  932TIP3   OH2 2759   2.873   2.383   5.277
  932TIP3    H1 2760   2.915   2.469   5.270
  932TIP3    H2 2761   2.821   2.375   5.197
  933TIP3   OH2 2762   0.902   3.006   5.150
  933TIP3    H1 2763   0.993   3.035   5.143
  933TIP3    H2 2764   0.860   3.039   5.071
  934TIP3   OH2 2765   7.051   0.414   2.394
  934TIP3    H1 2766   6.970   0.403   2.443
  934TIP3    H2 2767   7.063   0.509   2.389
  935TIP3   OH2 2768   6.743   2.855   4.790
  935TIP3    H1 2769   6.750   2.942   4.751
  935TIP3    H2 2770   6.733   2.872   4.884
  936TIP3   OH2 2771   3.465   5.437   2.274
  936TIP3    H1 2772   3.378   5.436   2.314
  936TIP3    H2 2773   3.514   5.499   2.327
  937TIP3   OH2 2774   6.469   4.433   3.324
  937TIP3    H1 2775   6.542   4.376   3.302
  937TIP3    H2 2776   6.465   4.496   3.252
  938TIP3   OH2 2777   0.746   1.599   3.113
  938TIP3    H1 2778   0.817   1.601   3.177
  938TIP3    H2 2779   0.751   1.513   3.072
  939TIP3   OH2 2780   4.497   2.087   2.487
  939TIP3    H1 2781   4.480   2.152   2.420
  939TIP3    H2 2782   4.427   2.022   2.476
  940TIP3   OH2 2783   6.400   6.252   1.836
  940TIP3    H1 2784   6.457   6.236   1.761
  940TIP3    H2 2785   6.456   6.298   1.899
  941TIP3   OH2 2786   4.843   3.784   0.097
  941TIP3    H1 2787   4.906   3.856   0.089
  941TIP3    H2 2788   4.838   3.746   0.010
  942TIP3   OH2 2789   1.777   1.099   3.540
  942TIP3    H1 2790   1.759   1.072   3.630
  942TIP3    H2 2791   1.698   1.146   3.512
  943TIP3   OH2 2792   2.240   0.592   4.925
  943TIP3    H1 2793   2.235   0.672   4.873
  943TIP3    H2 2794   2.228   0.622   5.015
  944TIP3   OH2 2795   4.921   1.138   1.562
  944TIP3    H1 2796   4.925   1.093   1.646
  944TIP3    H2 2797   4.864   1.213   1.577
  945TIP3   OH2 2798   1.888   4.732   1.601
  945TIP3    H1 2799   1.823   4.791   1.639
  945TIP3    H2 2800   1.966   4.745   1.655
  946TIP3   OH2 2801   1.405   1.209   3.763
  946TIP3    H1 2802   1.480   1.258   3.798
  946TIP3    H2 2803   1.372   1.160   3.838
  947TIP3   OH2 2804   0.205   4.312   1.248
  947TIP3    H1 2805   0.258   4.259   1.189
  947TIP3    H2 2806   0.236   4.402   1.234
  948TIP3   OH2 2807   0.794   1.753   3.459
  948TIP3    H1 2808   0.729   1.796   3.515
  948TIP3    H2 2809   0.825   1.823   3.402
  949TIP3   OH2 2810   0.428   0.954   1.067
  949TIP3    H1 2811   0.426   0.930   0.974
  949TIP3    H2 2812   0.521   0.967   1.086
  950TIP3   OH2 2813   1.382   5.660   4.257
  950TIP3    H1 2814   1.359   5.670   4.350
  950TIP3    H2 2815   1.344   5.576   4.232
  951TIP3   OH2 2816   4.364   1.592   3.762
  951TIP3    H1 2817   4.437   1.614   3.704
  951TIP3    H2 2818   4.346   1.500   3.744
  952TIP3   OH2 2819   7.021   1.057   5.378
  952TIP3    H1 2820   7.034   1.067   5.284
  952TIP3    H2 2821   7.086   0.992   5.404
  953TIP3   OH2 2822   6.584   4.317   2.552
  953TIP3    H1 2823   6.639   4.391   2.524
  953TIP3    H2 2824   6.629   4.240   2.518
  954TIP3   OH2 2825   3.479   1.975   2.605
  954TIP3    H1 2826   3.487   2.043   2.672
  954TIP3    H2 2827   3.462   1.895   2.655
  955TIP3   OH2 2828   3.342   0.607   2.469
  955TIP3    H1 2829   3.318   0.618   2.376
  955TIP3    H2 2830   3.262   0.630   2.516
  956TIP3   OH2 2831   6.162   4.346   0.823
  956TIP3    H1 2832   6.094   4.398   0.866
  956TIP3    H2 2833   6.150   4.257   0.856
  957TIP3   OH2 2834   6.629   1.188   0.112
  957TIP3    H1 2835   6.629   1.276   0.152
  957TIP3    H2 2836   6.631   1.205   0.018
  958TIP3   OH2 2837   1.944   4.408   4.105
  958TIP3    H1 2838   1.904   4.493   4.090
  958TIP3    H2 2839   2.034   4.428   4.131
  959TIP3   OH2 2840   4.243   0.934   1.774
  959TIP3    H1 2841   4.175   0.941   1.842
  959TIP3    H2 2842   4.325   0.947   1.822
  960TIP3   OH2 2843   0.818   0.121   1.436
  960TIP3    H1 2844   0.855   0.206   1.459
  960TIP3    H2 2845   0.830   0.068   1.514
  961TIP3   OH2 2846   4.773   6.542   5.757
  961TIP3    H1 2847   4.732   6.549   5.843
  961TIP3    H2 2848   4.704   6.506   5.701
  962TIP3   OH2 2849   5.044   6.549   3.088
  962TIP3    H1 2850   5.095   6.556   3.168
  962TIP3    H2 2851   5.107   6.566   3.018
  963TIP3   OH2 2852   7.028   0.866   1.686
  963TIP3    H1 2853   7.007   0.903   1.600
  963TIP3    H2 2854   7.099   0.921   1.719
  964TIP3   OH2 2855   6.422   2.406   2.705
  964TIP3    H1 2856   6.508   2.396   2.666
  964TIP3    H2 2857   6.403   2.322   2.746
  965TIP3   OH2 2858   2.471   0.615   0.661
  965TIP3    H1 2859   2.548   0.641   0.611
  965TIP3    H2 2860   2.409   0.582   0.596
  966TIP3   OH2 2861   0.764   6.733   1.211
  966TIP3    H1 2862   0.777   6.696   1.298
  966TIP3    H2 2863   0.847   6.717   1.166
  967TIP3   OH2 2864   3.906   4.861   1.495
  967TIP3    H1 2865   3.916   4.771   1.524
  967TIP3    H2 2866   3.837   4.897   1.550
  968TIP3   OH2 2867   0.844   0.012   0.405
  968TIP3    H1 2868   0.858   0.102   0.436
  968TIP3    H2 2869   0.771   0.019   0.344
  969TIP3   OH2 2870   6.397   1.713   3.823
  969TIP3    H1 2871   6.368   1.635   3.870
  969TIP3    H2 2872   6.477   1.686   3.778
  970TIP3   OH2 2873   1.168   6.567   3.914
  970TIP3    H1 2874   1.148   6.632   3.982
  970TIP3    H2 2875   1.121   6.598   3.836
  971TIP3   OH2 2876   1.538   3.134   0.516
  971TIP3    H1 2877   1.503   3.079   0.586
  971TIP3    H2 2878   1.626   3.158   0.545
  972TIP3   OH2 2879   5.653   2.838   1.927
  972TIP3    H1 2880   5.730   2.787   1.952
  972TIP3    H2 2881   5.628   2.884   2.007
  973TIP3   OH2 2882   2.768   6.066   0.665
  973TIP3    H1 2883   2.758   5.986   0.717
  973TIP3    H2 2884   2.681   6.106   0.665
  974TIP3   OH2 2885   5.205   2.249   3.481
  974TIP3    H1 2886   5.158   2.199   3.414
  974TIP3    H2 2887   5.207   2.338   3.447
  975TIP3   OH2 2888   5.218   3.476   3.573
  975TIP3    H1 2889   5.198   3.543   3.508
  975TIP3    H2 2890   5.133   3.438   3.596
  976TIP3   OH2 2891   4.550   3.756   0.971
  976TIP3    H1 2892   4.630   3.786   1.013
  976TIP3    H2 2893   4.514   3.691   1.032
  977TIP3   OH2 2894   4.621   0.590   0.832
  977TIP3    H1 2895   4.682   0.565   0.762
  977TIP3    H2 2896   4.623   0.517   0.893
  978TIP3   OH2 2897   3.256   6.126   3.959
  978TIP3    H1 2898   3.174   6.166   3.990
  978TIP3    H2 2899   3.269   6.161   3.871
  979TIP3   OH2 2900   2.584   2.509   3.048
  979TIP3    H1 2901   2.535   2.439   3.004
  979TIP3    H2 2902   2.524   2.584   3.047
  980TIP3   OH2 2903   3.630   1.912   3.824
  980TIP3    H1 2904   3.658   1.935   3.913
  980TIP3    H2 2905   3.536   1.932   3.823
  981TIP3   OH2 2906   4.127   4.008   5.296
  981TIP3    H1 2907   4.220   4.021   5.276
  981TIP3    H2 2908   4.094   4.096   5.313
  982TIP3   OH2 2909   3.757   4.038   0.135
  982TIP3    H1 2910   3.783   3.946   0.122
  982TIP3    H2 2911   3.678   4.048   0.083
  983TIP3   OH2 2912   1.074   5.037   0.295
  983TIP3    H1 2913   1.048   4.966   0.354
  983TIP3    H2 2914   1.063   5.116   0.348
  984TIP3   OH2 2915   3.694   0.034   4.251
  984TIP3    H1 2916   3.748  -0.030   4.298
  984TIP3    H2 2917   3.681   0.105   4.314
  985TIP3   OH2 2918   2.860   4.444   0.659
  985TIP3    H1 2919   2.788   4.419   0.717
  985TIP3    H2 2920   2.913   4.504   0.711
  986TIP3   OH2 2921   3.755   0.761   5.069
  986TIP3    H1 2922   3.745   0.698   5.142
  986TIP3    H2 2923   3.689   0.827   5.086
  987TIP3   OH2 2924   3.687   2.870   0.305
  987TIP3    H1 2925   3.624   2.850   0.236
  987TIP3    H2 2926   3.665   2.809   0.376
  988TIP3   OH2 2927   4.595   0.481   5.525
  988TIP3    H1 2928   4.518   0.531   5.498
  988TIP3    H2 2929   4.614   0.424   5.450
  989TIP3   OH2 2930   4.340   3.357   3.708
  989TIP3    H1 2931   4.387   3.276   3.724
  989TIP3    H2 2932   4.371   3.417   3.777
  990TIP3   OH2 2933   0.795   4.197   1.177
  990TIP3    H1 2934   0.862   4.160   1.120
  990TIP3    H2 2935   0.818   4.290   1.183
  991TIP3   OH2 2936   2.288   1.990   0.334
  991TIP3    H1 2937   2.221   2.044   0.377
  991TIP3    H2 2938   2.251   1.971   0.248
  992TIP3   OH2 2939   0.848   6.527   4.409
  992TIP3    H1 2940   0.909   6.493   4.343
  992TIP3    H2 2941   0.773   6.468   4.405
  993TIP3   OH2 2942   2.233   0.744   1.727
  993TIP3    H1 2943   2.223   0.839   1.734
  993TIP3    H2 2944   2.232   0.713   1.818
  994TIP3   OH2 2945   6.226   0.560   4.719
  994TIP3    H1 2946   6.223   0.514   4.635
  994TIP3    H2 2947   6.300   0.520   4.765
  995TIP3   OH2 2948   4.481   1.878   5.111
  995TIP3    H1 2949   4.430   1.801   5.139
  995TIP3    H2 2950   4.557   1.841   5.067
  996TIP3   OH2 2951   5.122   4.417   0.930
  996TIP3    H1 2952   5.111   4.458   0.844
  996TIP3    H2 2953   5.045   4.362   0.940
  997TIP3   OH2 2954   2.773   1.269   5.436
  997TIP3    H1 2955   2.825   1.288   5.514
  997TIP3    H2 2956   2.683   1.263   5.468
  998TIP3   OH2 2957   0.547   1.952   5.057
  998TIP3    H1 2958   0.524   1.899   5.133
  998TIP3    H2 2959   0.468   2.003   5.039
  999TIP3   OH2 2960   4.854   4.144   0.381
  999TIP3    H1 2961   4.868   4.050   0.374
  999TIP3    H2 2962   4.772   4.160   0.334
 1000TIP3   OH2 2963   1.081   2.725   4.404
 1000TIP3    H1 2964   0.993   2.760   4.415
 1000TIP3    H2 2965   1.068   2.633   4.381
 1001TIP3   OH2 2966   6.516   5.833   1.705
 1001TIP3    H1 2967   6.439   5.780   1.683
 1001TIP3    H2 2968   6.584   5.769   1.726
 1002TIP3   OH2 2969   5.002   6.633   4.392
 1002TIP3    H1 2970   5.063   6.559   4.397
 1002TIP3    H2 2971   4.916   6.592   4.381
 1003TIP3   OH2 2972   3.471   6.327   4.123
 1003TIP3    H1 2973   3.519   6.323   4.040
 1003TIP3    H2 2974   3.383   6.295   4.100
 1004TIP3   OH2 2975   6.489   2.010   0.286
 1004TIP3    H1 2976   6.456   2.087   0.239
 1004TIP3    H2 2977   6.576   2.037   0.316
 1005TIP3   OH2 2978   0.992   2.998   4.105
 1005TIP3    H1 2979   0.898   2.980   4.115
 1005TIP3    H2 2980   1.026   2.996   4.195
 1006TIP3   OH2 2981   6.063   6.226   0.097
 1006TIP3    H1 2982   6.092   6.146   0.053
 1006TIP3    H2 2983   6.075   6.295   0.032
 1007TIP3   OH2 2984   4.224   4.542   1.877
 1007TIP3    H1 2985   4.247   4.535   1.784
 1007TIP3    H2 2986   4.297   4.590   1.916
 1008TIP3   OH2 2987   3.611   2.004   0.956
 1008TIP3    H1 2988   3.601   2.058   1.034
 1008TIP3    H2 2989   3.523   1.972   0.938
 1009TIP3   OH2 2990   4.807   6.330   5.172
 1009TIP3    H1 2991   4.727   6.367   5.133
 1009TIP3    H2 2992   4.844   6.275   5.104
 1010TIP3   OH2 2993   0.459   0.584   4.155
 1010TIP3    H1 2994   0.481   0.492   4.142
 1010TIP3    H2 2995   0.533   0.632   4.118
 1011TIP3   OH2 2996   6.358   4.381   4.147
 1011TIP3    H1 2997   6.379   4.472   4.169
 1011TIP3    H2 2998   6.262   4.379   4.145
 1012TIP3   OH2 2999   6.988   5.375   1.578
 1012TIP3    H1 3000   7.039   5.408   1.652
 1012TIP3    H2 3001   6.909   5.340   1.618
 1013TIP3   OH2 3002   6.931   6.568   5.399
 1013TIP3    H1 3003   6.872   6.541   5.329
 1013TIP3    H2 3004   6.890   6.646   5.436
 1014TIP3   OH2 3005   6.621   3.197   2.627
 1014TIP3    H1 3006   6.584   3.137   2.691
 1014TIP3    H2 3007   6.584   3.282   2.650
 1015TIP3   OH2 3008   3.456   4.837   2.617
 1015TIP3    H1 3009   3.448   4.896   2.692
 1015TIP3    H2 3010   3.495   4.757   2.654
 1016TIP3   OH2 3011   3.714   2.781   2.994
 1016TIP3    H1 3012   3.778   2.711   2.998
 1016TIP3    H2 3013   3.724   2.817   2.906
 1017TIP3   OH2 3014   0.944   3.268   1.705
 1017TIP3    H1 3015   1.026   3.311   1.679
 1017TIP3    H2 3016   0.900   3.248   1.623
 1018TIP3   OH2 3017   0.959   3.483   5.678
 1018TIP3    H1 3018   0.991   3.396   5.653
 1018TIP3    H2 3019   1.020   3.544   5.637
 1019TIP3   OH2 3020   3.709   2.955   1.769
 1019TIP3    H1 3021   3.766   3.016   1.722
 1019TIP3    H2 3022   3.631   3.006   1.789
 1020TIP3   OH2 3023   1.533   4.663   0.550
 1020TIP3    H1 3024   1.519   4.649   0.643
 1020TIP3    H2 3025   1.619   4.623   0.533
 1021TIP3   OH2 3026   5.651   3.609   3.235
 1021TIP3    H1 3027   5.704   3.531   3.248
 1021TIP3    H2 3028   5.562   3.582   3.255
 1022TIP3   OH2 3029   0.096   6.614   2.624
 1022TIP3    H1 3030   0.066   6.527   2.647
 1022TIP3    H2 3031   0.191   6.611   2.637
 1023TIP3   OH2 3032   4.193   5.764   2.052
 1023TIP3    H1 3033   4.159   5.843   2.010
 1023TIP3    H2 3034   4.148   5.692   2.009
 1024TIP3   OH2 3035   5.203   4.922   0.036
 1024TIP3    H1 3036   5.282   4.931   0.089
 1024TIP3    H2 3037   5.204   4.998  -0.022
 1025TIP3   OH2 3038   3.065   4.302   3.141
 1025TIP3    H1 3039   3.041   4.355   3.065
 1025TIP3    H2 3040   3.128   4.356   3.189
 1026TIP3   OH2 3041   3.587   3.468   5.171
 1026TIP3    H1 3042   3.553   3.554   5.148
 1026TIP3    H2 3043   3.550   3.409   5.105
 1027TIP3   OH2 3044   1.580   1.675   2.172
 1027TIP3    H1 3045   1.528   1.595   2.186
 1027TIP3    H2 3046   1.625   1.660   2.089
 1028TIP3   OH2 3047   1.618   6.238   3.574
 1028TIP3    H1 3048   1.710   6.223   3.595
 1028TIP3    H2 3049   1.619   6.271   3.484
 1029TIP3   OH2 3050   2.749   6.670   2.460
 1029TIP3    H1 3051   2.734   6.757   2.497
 1029TIP3    H2 3052   2.757   6.685   2.366
 1030TIP3   OH2 3053   6.766   3.177   1.571
 1030TIP3    H1 3054   6.728   3.190   1.658
 1030TIP3    H2 3055   6.691   3.156   1.515
 1031TIP3   OH2 3056   3.536   1.343   0.843
 1031TIP3    H1 3057   3.566   1.407   0.779
 1031TIP3    H2 3058   3.440   1.344   0.836
 1032TIP3   OH2 3059   3.504   5.312   1.199
 1032TIP3    H1 3060   3.467   5.335   1.114
 1032TIP3    H2 3061   3.432   5.324   1.261
 1033TIP3   OH2 3062   1.035   4.090   4.248
 1033TIP3    H1 3063   1.057   4.176   4.285
 1033TIP3    H2 3064   0.957   4.063   4.297
 1034TIP3   OH2 3065   1.402   0.691   5.329
 1034TIP3    H1 3066   1.484   0.645   5.343
 1034TIP3    H2 3067   1.382   0.678   5.236
 1035TIP3   OH2 3068   6.011   2.364   0.430
 1035TIP3    H1 3069   5.972   2.383   0.516
 1035TIP3    H2 3070   6.027   2.450   0.392
 1036TIP3   OH2 3071   3.213   6.778   0.381
 1036TIP3    H1 3072   3.207   6.797   0.475
 1036TIP3    H2 3073   3.132   6.732   0.361
 1037TIP3   OH2 3074   4.394   4.989   5.615
 1037TIP3    H1 3075   4.328   5.052   5.588
 1037TIP3    H2 3076   4.348   4.905   5.616
 1038TIP3   OH2 3077   6.729   2.018   4.457
 1038TIP3    H1 3078   6.691   1.933   4.478
 1038TIP3    H2 3079   6.693   2.039   4.370
 1039TIP3   OH2 3080   6.275   3.391   4.408
 1039TIP3    H1 3081   6.247   3.481   4.396
 1039TIP3    H2 3082   6.317   3.390   4.494
 1040TIP3   OH2 3083   2.158   2.471   1.021
 1040TIP3    H1 3084   2.158   2.458   1.116
 1040TIP3    H2 3085   2.077   2.429   0.991
 1041TIP3   OH2 3086   5.553   2.963   1.350
 1041TIP3    H1 3087   5.471   3.011   1.366
 1041TIP3    H2 3088   5.542   2.925   1.263
 1042TIP3   OH2 3089   0.928   5.494   1.228
 1042TIP3    H1 3090   0.913   5.466   1.138
 1042TIP3    H2 3091   0.877   5.575   1.237
 1043TIP3   OH2 3092   2.011   2.343   3.551
 1043TIP3    H1 3093   1.975   2.330   3.463
 1043TIP3    H2 3094   2.016   2.439   3.560
 1044TIP3   OH2 3095   5.432   6.296   5.142
 1044TIP3    H1 3096   5.357   6.318   5.197
 1044TIP3    H2 3097   5.462   6.211   5.174
 1045TIP3   OH2 3098   5.041   2.260   0.892
 1045TIP3    H1 3099   5.057   2.268   0.986
 1045TIP3    H2 3100   5.012   2.347   0.865
 1046TIP3   OH2 3101   1.725   3.553   1.977
 1046TIP3    H1 3102   1.734   3.576   1.885
 1046TIP3    H2 3103   1.645   3.500   1.981
 1047TIP3   OH2 3104   7.097   4.726   1.934
 1047TIP3    H1 3105   7.131   4.638   1.917
 1047TIP3    H2 3106   7.176   4.780   1.945
 1048TIP3   OH2 3107   2.844   6.285   4.461
 1048TIP3    H1 3108   2.913   6.228   4.495
 1048TIP3    H2 3109   2.891   6.360   4.424
 1049TIP3   OH2 3110   5.693   6.478   2.221
 1049TIP3    H1 3111   5.618   6.498   2.277
 1049TIP3    H2 3112   5.728   6.396   2.255
 1050TIP3   OH2 3113   0.499   2.573   3.775
 1050TIP3    H1 3114   0.465   2.573   3.686
 1050TIP3    H2 3115   0.562   2.500   3.777
 1051TIP3   OH2 3116   3.526   4.238   0.126
 1051TIP3    H1 3117   3.503   4.203   0.040
 1051TIP3    H2 3118   3.520   4.333   0.117
 1052TIP3   OH2 3119   7.179   6.693   5.726
 1052TIP3    H1 3120   7.106   6.662   5.779
 1052TIP3    H2 3121   7.257   6.658   5.769
 1053TIP3   OH2 3122   0.670   0.912   4.765
 1053TIP3    H1 3123   0.595   0.936   4.819
 1053TIP3    H2 3124   0.640   0.838   4.713
 1054TIP3   OH2 3125   4.142   2.991   1.609
 1054TIP3    H1 3126   4.145   2.997   1.514
 1054TIP3    H2 3127   4.168   2.901   1.628
 1055TIP3   OH2 3128   3.445   1.650   4.476
 1055TIP3    H1 3129   3.460   1.618   4.387
 1055TIP3    H2 3130   3.438   1.570   4.529
 1056TIP3   OH2 3131   1.756   0.306   3.677
 1056TIP3    H1 3132   1.820   0.358   3.727
 1056TIP3    H2 3133   1.787   0.311   3.587
 1057TIP3   OH2 3134   6.024   6.023   1.528
 1057TIP3    H1 3135   5.969   5.951   1.558
 1057TIP3    H2 3136   6.104   6.014   1.579
 1058TIP3   OH2 3137   2.324   5.425   0.697
 1058TIP3    H1 3138   2.291   5.471   0.620
 1058TIP3    H2 3139   2.317   5.332   0.674
 1059TIP3   OH2 3140   0.092   0.132   0.662
 1059TIP3    H1 3141   0.009   0.143   0.710
 1059TIP3    H2 3142   0.145   0.077   0.719
 1060TIP3   OH2 3143   2.417   6.215   1.327
 1060TIP3    H1 3144   2.353   6.269   1.282
 1060TIP3    H2 3145   2.493   6.272   1.338
 1061TIP3   OH2 3146   4.228   0.606   0.672
 1061TIP3    H1 3147   4.274   0.583   0.592
 1061TIP3    H2 3148   4.166   0.674   0.645
 1062TIP3   OH2 3149   4.078   4.658   5.333
 1062TIP3    H1 3150   4.108   4.601   5.262
 1062TIP3    H2 3151   4.145   4.725   5.340
 1063TIP3   OH2 3152   1.812   4.243   0.957
 1063TIP3    H1 3153   1.764   4.305   0.903
 1063TIP3    H2 3154   1.843   4.294   1.032
 1064TIP3   OH2 3155   6.998   3.543   5.842
 1064TIP3    H1 3156   6.976   3.585   5.758
 1064TIP3    H2 3157   6.962   3.454   5.833
 1065TIP3   OH2 3158   6.631   4.950   2.005
 1065TIP3    H1 3159   6.701   4.972   1.943
 1065TIP3    H2 3160   6.629   4.855   2.006
 1066TIP3   OH2 3161   1.746   4.282   5.356
 1066TIP3    H1 3162   1.810   4.348   5.327
 1066TIP3    H2 3163   1.800   4.208   5.385
 1067TIP3   OH2 3164   6.440   1.147   4.858
 1067TIP3    H1 3165   6.500   1.077   4.885
 1067TIP3    H2 3166   6.497   1.218   4.831
 1068TIP3   OH2 3167   7.130   6.135   0.293
 1068TIP3    H1 3168   7.203   6.160   0.351
 1068TIP3    H2 3169   7.172   6.098   0.216
 1069TIP3   OH2 3170   4.256   4.729   2.502
 1069TIP3    H1 3171   4.277   4.641   2.470
 1069TIP3    H2 3172   4.273   4.725   2.596
 1070TIP3   OH2 3173   6.991   6.767   2.765
 1070TIP3    H1 3174   6.929   6.702   2.799
 1070TIP3    H2 3175   7.067   6.716   2.739
 1071TIP3   OH2 3176   4.101   4.391   2.623
 1071TIP3    H1 3177   4.024   4.362   2.673
 1071TIP3    H2 3178   4.089   4.351   2.537
 1072TIP3   OH2 3179   6.900   1.145   3.485
 1072TIP3    H1 3180   6.944   1.083   3.543
 1072TIP3    H2 3181   6.812   1.155   3.522
 1073TIP3   OH2 3182   7.064   6.223   3.546
 1073TIP3    H1 3183   7.109   6.255   3.624
 1073TIP3    H2 3184   7.132   6.176   3.497
 1074TIP3   OH2 3185   4.207   2.398   5.663
 1074TIP3    H1 3186   4.164   2.444   5.591
 1074TIP3    H2 3187   4.153   2.418   5.739
 1075TIP3   OH2 3188   0.234   5.327   3.974
 1075TIP3    H1 3189   0.304   5.271   3.940
 1075TIP3    H2 3190   0.245   5.323   4.069
 1076TIP3   OH2 3191   6.669   4.972   0.019
 1076TIP3    H1 3192   6.694   4.888  -0.019
 1076TIP3    H2 3193   6.586   4.955   0.063
 1077TIP3   OH2 3194   0.052   0.415   3.284
 1077TIP3    H1 3195   0.095   0.342   3.239
 1077TIP3    H2 3196   0.098   0.493   3.252
 1078TIP3   OH2 3197   3.520   1.748   3.168
 1078TIP3    H1 3198   3.608   1.757   3.130
 1078TIP3    H2 3199   3.467   1.812   3.121
 1079TIP3   OH2 3200   5.112   5.658   0.494
 1079TIP3    H1 3201   5.155   5.611   0.566
 1079TIP3    H2 3202   5.070   5.733   0.537
 1080TIP3   OH2 3203   0.262   1.547   2.786
 1080TIP3    H1 3204   0.351   1.553   2.750
 1080TIP3    H2 3205   0.240   1.454   2.779
 1081TIP3   OH2 3206   3.153   1.316   0.569
 1081TIP3    H1 3207   3.237   1.279   0.541
 1081TIP3    H2 3208   3.092   1.243   0.565
 1082TIP3   OH2 3209   2.126   6.141   2.987
 1082TIP3    H1 3210   2.210   6.123   2.946
 1082TIP3    H2 3211   2.097   6.056   3.020
 1083TIP3   OH2 3212   3.739   0.457   3.329
 1083TIP3    H1 3213   3.773   0.538   3.367
 1083TIP3    H2 3214   3.810   0.394   3.337
 1084TIP3   OH2 3215   6.243   6.565   2.976
 1084TIP3    H1 3216   6.209   6.621   2.906
 1084TIP3    H2 3217   6.165   6.528   3.017
 1085TIP3   OH2 3218   1.707   5.483   4.872
 1085TIP3    H1 3219   1.636   5.499   4.809
 1085TIP3    H2 3220   1.665   5.491   4.958
 1086TIP3   OH2 3221   4.638   5.090   2.406
 1086TIP3    H1 3222   4.570   5.150   2.376
 1086TIP3    H2 3223   4.590   5.019   2.450
 1087TIP3   OH2 3224   5.974   6.034   4.333
 1087TIP3    H1 3225   5.986   6.129   4.337
 1087TIP3    H2 3226   5.902   6.021   4.272
 1088TIP3   OH2 3227   2.352   6.551   0.747
 1088TIP3    H1 3228   2.306   6.504   0.677
 1088TIP3    H2 3229   2.346   6.643   0.721
 1089TIP3   OH2 3230   5.568   3.321   4.453
 1089TIP3    H1 3231   5.589   3.415   4.453
 1089TIP3    H2 3232   5.650   3.278   4.476
 1090TIP3   OH2 3233   3.710   3.403   1.642
 1090TIP3    H1 3234   3.747   3.356   1.567
 1090TIP3    H2 3235   3.755   3.367   1.718
 1091TIP3   OH2 3236   5.851   1.430   2.148
 1091TIP3    H1 3237   5.878   1.356   2.094
 1091TIP3    H2 3238   5.815   1.389   2.227
 1092TIP3   OH2 3239   1.355   2.753   2.312
 1092TIP3    H1 3240   1.402   2.835   2.326
 1092TIP3    H2 3241   1.389   2.720   2.229
 1093TIP3   OH2 3242   6.093   1.612   3.464
 1093TIP3    H1 3243   6.059   1.523   3.473
 1093TIP3    H2 3244   6.164   1.604   3.400
 1094TIP3   OH2 3245   5.155   0.352   3.256
 1094TIP3    H1 3246   5.107   0.435   3.264
 1094TIP3    H2 3247   5.192   0.355   3.168
 1095TIP3   OH2 3248   0.238   3.453   3.913
 1095TIP3    H1 3249   0.307   3.476   3.975
 1095TIP3    H2 3250   0.284   3.439   3.830
 1096TIP3   OH2 3251   6.170   4.067   0.313
 1096TIP3    H1 3252   6.214   3.984   0.291
 1096TIP3    H2 3253   6.242   4.128   0.328
 1097TIP3   OH2 3254   2.624   3.266   0.876
 1097TIP3    H1 3255   2.646   3.234   0.964
 1097TIP3    H2 3256   2.549   3.213   0.849
 1098TIP3   OH2 3257   6.219   5.710   1.300
 1098TIP3    H1 3258   6.207   5.694   1.206
 1098TIP3    H2 3259   6.287   5.648   1.326
 1099TIP3   OH2 3260   0.143   0.912   3.535
 1099TIP3    H1 3261   0.234   0.889   3.519
 1099TIP3    H2 3262   0.141   1.008   3.528
 1100TIP3   OH2 3263   1.056   5.960   0.428
 1100TIP3    H1 3264   0.986   5.902   0.398
 1100TIP3    H2 3265   1.043   5.965   0.523
 1101TIP3   OH2 3266   4.492   4.710   3.588
 1101TIP3    H1 3267   4.432   4.706   3.663
 1101TIP3    H2 3268   4.494   4.621   3.554
 1102TIP3   OH2 3269   5.823   1.206   3.201
 1102TIP3    H1 3270   5.914   1.200   3.229
 1102TIP3    H2 3271   5.826   1.252   3.117
 1103TIP3   OH2 3272   4.025   2.414   3.910
 1103TIP3    H1 3273   4.001   2.446   3.822
 1103TIP3    H2 3274   4.115   2.381   3.900
 1104TIP3   OH2 3275   0.147   0.354   0.886
 1104TIP3    H1 3276   0.092   0.426   0.919
 1104TIP3    H2 3277   0.230   0.396   0.864
 1105TIP3   OH2 3278   2.096   5.058   5.438
 1105TIP3    H1 3279   2.159   5.078   5.368
 1105TIP3    H2 3280   2.046   4.983   5.404
 1106TIP3   OH2 3281   1.158   6.586   2.949
 1106TIP3    H1 3282   1.210   6.644   3.005
 1106TIP3    H2 3283   1.219   6.555   2.883
 1107TIP3   OH2 3284   1.624   5.978   1.955
 1107TIP3    H1 3285   1.604   5.928   1.875
 1107TIP3    H2 3286   1.686   6.045   1.926
 1108TIP3   OH2 3287   6.584   4.687   3.265
 1108TIP3    H1 3288   6.559   4.648   3.348
 1108TIP3    H2 3289   6.580   4.782   3.280
 1109TIP3   OH2 3290   4.072   6.201   5.645
 1109TIP3    H1 3291   4.112   6.167   5.725
 1109TIP3    H2 3292   3.980   6.218   5.670
 1110TIP3   OH2 3293   2.518   1.282   4.822
 1110TIP3    H1 3294   2.568   1.241   4.893
 1110TIP3    H2 3295   2.509   1.374   4.849
 1111TIP3   OH2 3296   0.640   6.654   0.102
 1111TIP3    H1 3297   0.633   6.647   0.007
 1111TIP3    H2 3298   0.577   6.723   0.125
 1112TIP3   OH2 3299   1.507   5.391   2.160
 1112TIP3    H1 3300   1.499   5.472   2.211
 1112TIP3    H2 3301   1.580   5.407   2.101
 1113TIP3   OH2 3302   4.669   5.010   3.485
 1113TIP3    H1 3303   4.704   4.969   3.564
 1113TIP3    H2 3304   4.742   5.010   3.423
 1114TIP3   OH2 3305   1.991   4.094   0.784
 1114TIP3    H1 3306   1.946   4.115   0.866
 1114TIP3    H2 3307   2.038   4.175   0.761
 1115TIP3   OH2 3308   5.263   5.916   4.608
 1115TIP3    H1 3309   5.228   5.969   4.679
 1115TIP3    H2 3310   5.194   5.918   4.541
 1116TIP3   OH2 3311   7.077   5.806   0.944
 1116TIP3    H1 3312   6.997   5.767   0.980
 1116TIP3    H2 3313   7.088   5.887   0.993
 1117TIP3   OH2 3314   5.680   4.218   4.501
 1117TIP3    H1 3315   5.593   4.257   4.506
 1117TIP3    H2 3316   5.736   4.287   4.466
 1118TIP3   OH2 3317   0.998   5.810   3.629
 1118TIP3    H1 3318   1.081   5.829   3.673
 1118TIP3    H2 3319   0.975   5.891   3.584
 1119TIP3   OH2 3320   2.279   3.437   2.482
 1119TIP3    H1 3321   2.192   3.440   2.522
 1119TIP3    H2 3322   2.307   3.346   2.493
 1120TIP3   OH2 3323   5.404   1.968   4.598
 1120TIP3    H1 3324   5.411   1.946   4.691
 1120TIP3    H2 3325   5.342   2.040   4.595
 1121TIP3   OH2 3326   0.472   2.927   4.268
 1121TIP3    H1 3327   0.440   2.995   4.327
 1121TIP3    H2 3328   0.394   2.877   4.245
 1122TIP3   OH2 3329   3.798   1.106   0.509
 1122TIP3    H1 3330   3.826   1.074   0.423
 1122TIP3    H2 3331   3.876   1.148   0.546
 1123TIP3   OH2 3332   6.798   0.796   5.021
 1123TIP3    H1 3333   6.832   0.731   5.082
 1123TIP3    H2 3334   6.869   0.809   4.958
 1124TIP3   OH2 3335  -0.046   4.872   0.594
 1124TIP3    H1 3336   0.021   4.842   0.533
 1124TIP3    H2 3337   0.002   4.918   0.663
 1125TIP3   OH2 3338   7.065   4.395   3.400
 1125TIP3    H1 3339   6.974   4.426   3.395
 1125TIP3    H2 3340   7.077   4.342   3.321
 1126TIP3   OH2 3341   2.874   5.458   4.839
 1126TIP3    H1 3342   2.826   5.380   4.814
 1126TIP3    H2 3343   2.963   5.427   4.858
 1127TIP3   OH2 3344   2.391   4.601   5.790
 1127TIP3    H1 3345   2.398   4.527   5.729
 1127TIP3    H2 3346   2.368   4.561   5.874
 1128TIP3   OH2 3347   4.328   6.340   0.485
 1128TIP3    H1 3348   4.309   6.294   0.403
 1128TIP3    H2 3349   4.332   6.270   0.551
 1129TIP3   OH2 3350   6.417   6.296   0.617
 1129TIP3    H1 3351   6.399   6.310   0.710
 1129TIP3    H2 3352   6.347   6.343   0.572
 1130TIP3   OH2 3353   6.145   3.641   4.474
 1130TIP3    H1 3354   6.060   3.596   4.482
 1130TIP3    H2 3355   6.151   3.696   4.552
 1131TIP3   OH2 3356   3.552   3.036   3.670
 1131TIP3    H1 3357   3.593   2.992   3.744
 1131TIP3    H2 3358   3.597   3.000   3.593
 1132TIP3   OH2 3359   6.786   4.568   1.427
 1132TIP3    H1 3360   6.790   4.472   1.434
 1132TIP3    H2 3361   6.832   4.587   1.345
 1133TIP3   OH2 3362   5.387   4.669   0.276
 1133TIP3    H1 3363   5.322   4.661   0.206
 1133TIP3    H2 3364   5.469   4.640   0.236
 1134TIP3   OH2 3365   4.927   2.211   1.718
 1134TIP3    H1 3366   5.011   2.256   1.725
 1134TIP3    H2 3367   4.881   2.233   1.799
 1135TIP3   OH2 3368   0.364   4.591   2.681
 1135TIP3    H1 3369   0.367   4.663   2.744
 1135TIP3    H2 3370   0.347   4.632   2.597
 1136TIP3   OH2 3371   6.104   3.832   2.134
 1136TIP3    H1 3372   6.144   3.826   2.221
 1136TIP3    H2 3373   6.121   3.922   2.106
 1137TIP3   OH2 3374   2.292   1.764   4.599
 1137TIP3    H1 3375   2.379   1.737   4.630
 1137TIP3    H2 3376   2.307   1.846   4.552
 1138TIP3   OH2 3377   2.536   4.460   0.838
 1138TIP3    H1 3378   2.469   4.391   0.833
 1138TIP3    H2 3379   2.536   4.499   0.750
 1139TIP3   OH2 3380   7.002   4.202   0.781
 1139TIP3    H1 3381   7.018   4.296   0.784
 1139TIP3    H2 3382   6.945   4.190   0.706
 1140TIP3   OH2 3383   5.986   2.048   5.417
 1140TIP3    H1 3384   5.942   2.037   5.333
 1140TIP3    H2 3385   6.003   1.959   5.447
 1141TIP3   OH2 3386   1.327   0.529   2.887
 1141TIP3    H1 3387   1.422   0.539   2.880
 1141TIP3    H2 3388   1.297   0.612   2.923
 1142TIP3   OH2 3389   3.384   5.768   5.096
 1142TIP3    H1 3390   3.387   5.859   5.127
 1142TIP3    H2 3391   3.322   5.725   5.154
 1143TIP3   OH2 3392   6.925   1.512   4.168
 1143TIP3    H1 3393   7.005   1.560   4.146
 1143TIP3    H2 3394   6.952   1.420   4.171
 1144TIP3   OH2 3395   5.922   3.496   4.517
 1144TIP3    H1 3396   5.893   3.426   4.575
 1144TIP3    H2 3397   5.903   3.464   4.429
 1145TIP3   OH2 3398   5.594   0.491   5.156
 1145TIP3    H1 3399   5.507   0.486   5.196
 1145TIP3    H2 3400   5.596   0.578   5.115
 1146TIP3   OH2 3401   0.152   6.228   1.710
 1146TIP3    H1 3402   0.089   6.181   1.656
 1146TIP3    H2 3403   0.128   6.204   1.800
 1147TIP3   OH2 3404   5.533   1.834   1.328
 1147TIP3    H1 3405   5.446   1.801   1.307
 1147TIP3    H2 3406   5.527   1.928   1.312
 1148TIP3   OH2 3407   4.019   5.028   4.165
 1148TIP3    H1 3408   4.075   5.099   4.131
 1148TIP3    H2 3409   4.011   4.967   4.092
 1149TIP3   OH2 3410   4.613   0.867   0.872
 1149TIP3    H1 3411   4.566   0.879   0.955
 1149TIP3    H2 3412   4.605   0.774   0.853
 1150TIP3   OH2 3413   5.204   0.067   4.025
 1150TIP3    H1 3414   5.122   0.018   4.015
 1150TIP3    H2 3415   5.200   0.135   3.957
 1151TIP3   OH2 3416   3.440   4.803   0.865
 1151TIP3    H1 3417   3.361   4.790   0.918
 1151TIP3    H2 3418   3.496   4.729   0.889
 1152TIP3   OH2 3419   2.143   3.906   4.084
 1152TIP3    H1 3420   2.128   3.839   4.150
 1152TIP3    H2 3421   2.237   3.903   4.067
 1153TIP3   OH2 3422   5.056   3.291   4.838
 1153TIP3    H1 3423   5.086   3.206   4.871
 1153TIP3    H2 3424   4.979   3.311   4.892
 1154TIP3   OH2 3425   1.835   4.022   4.596
 1154TIP3    H1 3426   1.924   3.995   4.620
 1154TIP3    H2 3427   1.828   4.112   4.629
 1155TIP3   OH2 3428   3.700   3.042   5.806
 1155TIP3    H1 3429   3.779   3.087   5.835
 1155TIP3    H2 3430   3.657   3.104   5.747
 1156TIP3   OH2 3431   2.975   0.645   3.496
 1156TIP3    H1 3432   2.947   0.725   3.541
 1156TIP3    H2 3433   3.071   0.650   3.496
 1157TIP3   OH2 3434   1.697   0.830   0.953
 1157TIP3    H1 3435   1.751   0.764   0.997
 1157TIP3    H2 3436   1.608   0.813   0.984
 1158TIP3   OH2 3437   2.526   2.022   2.761
 1158TIP3    H1 3438   2.618   2.019   2.789
 1158TIP3    H2 3439   2.477   1.982   2.832
 1159TIP3   OH2 3440   6.372   5.346   5.627
 1159TIP3    H1 3441   6.396   5.283   5.694
 1159TIP3    H2 3442   6.425   5.423   5.646
 1160TIP3   OH2 3443   1.305   4.987   0.699
 1160TIP3    H1 3444   1.347   5.056   0.750
 1160TIP3    H2 3445   1.274   4.924   0.764
 1161TIP3   OH2 3446   0.285   4.784   1.773
 1161TIP3    H1 3447   0.302   4.872   1.808
 1161TIP3    H2 3448   0.332   4.725   1.832
 1162TIP3   OH2 3449   6.696   1.591   0.822
 1162TIP3    H1 3450   6.728   1.622   0.738
 1162TIP3    H2 3451   6.656   1.668   0.863
 1163TIP3   OH2 3452   2.878   5.765   1.894
 1163TIP3    H1 3453   2.810   5.697   1.900
 1163TIP3    H2 3454   2.834   5.845   1.921
 1164TIP3   OH2 3455   0.839   0.030   2.555
 1164TIP3    H1 3456   0.761   0.084   2.571
 1164TIP3    H2 3457   0.879   0.021   2.641
 1165TIP3   OH2 3458   2.034   3.224   1.267
 1165TIP3    H1 3459   2.010   3.275   1.190
 1165TIP3    H2 3460   1.964   3.160   1.277
 1166TIP3   OH2 3461   6.947   0.346   1.042
 1166TIP3    H1 3462   6.890   0.378   0.973
 1166TIP3    H2 3463   6.959   0.421   1.100
 1167TIP3   OH2 3464   5.103   1.584   4.035
 1167TIP3    H1 3465   5.099   1.646   3.963
 1167TIP3    H2 3466   5.137   1.635   4.109
 1168TIP3   OH2 3467   7.078   1.104   4.091
 1168TIP3    H1 3468   7.037   1.107   4.177
 1168TIP3    H2 3469   7.008   1.126   4.029
 1169TIP3   OH2 3470   6.197   2.980   4.841
 1169TIP3    H1 3471   6.183   2.918   4.769
 1169TIP3    H2 3472   6.197   3.066   4.798
 1170TIP3   OH2 3473   2.270   5.200   2.772
 1170TIP3    H1 3474   2.275   5.114   2.814
 1170TIP3    H2 3475   2.362   5.228   2.765
 1171TIP3   OH2 3476   7.182   4.688   2.620
 1171TIP3    H1 3477   7.169   4.729   2.535
 1171TIP3    H2 3478   7.121   4.614   2.620
 1172TIP3   OH2 3479   2.185   6.312   1.801
 1172TIP3    H1 3480   2.138   6.326   1.883
 1172TIP3    H2 3481   2.117   6.297   1.736
 1173TIP3   OH2 3482   2.378   1.895   0.738
 1173TIP3    H1 3483   2.389   1.966   0.675
 1173TIP3    H2 3484   2.312   1.838   0.697
 1174TIP3   OH2 3485   4.346   1.770   0.543
 1174TIP3    H1 3486   4.384   1.858   0.537
 1174TIP3    H2 3487   4.377   1.725   0.464
 1175TIP3   OH2 3488   2.526   1.446   5.829
 1175TIP3    H1 3489   2.512   1.492   5.912
 1175TIP3    H2 3490   2.441   1.407   5.809
 1176TIP3   OH2 3491   3.164   2.107   1.051
 1176TIP3    H1 3492   3.082   2.096   1.003
 1176TIP3    H2 3493   3.206   2.183   1.011
 1177TIP3   OH2 3494   0.758   4.095   0.366
 1177TIP3    H1 3495   0.689   4.119   0.428
 1177TIP3    H2 3496   0.712   4.059   0.290
 1178TIP3   OH2 3497   6.324   6.227   5.169
 1178TIP3    H1 3498   6.375   6.294   5.214
 1178TIP3    H2 3499   6.264   6.277   5.113
 1179TIP3   OH2 3500   2.518   2.504   4.015
 1179TIP3    H1 3501   2.512   2.566   3.942
 1179TIP3    H2 3502   2.465   2.544   4.084
 1180TIP3   OH2 3503   0.982   5.396   0.573
 1180TIP3    H1 3504   0.895   5.406   0.611
 1180TIP3    H2 3505   1.020   5.483   0.576
 1181TIP3   OH2 3506   4.595   2.199   4.034
 1181TIP3    H1 3507   4.616   2.291   4.045
 1181TIP3    H2 3508   4.543   2.195   3.953
 1182TIP3   OH2 3509   4.565   5.624   1.762
 1182TIP3    H1 3510   4.587   5.717   1.751
 1182TIP3    H2 3511   4.611   5.599   1.842
 1183TIP3   OH2 3512   1.366   2.305   3.671
 1183TIP3    H1 3513   1.283   2.345   3.645
 1183TIP3    H2 3514   1.368   2.221   3.625
 1184TIP3   OH2 3515   1.645   4.925   0.582
 1184TIP3    H1 3516   1.569   4.971   0.546
 1184TIP3    H2 3517   1.613   4.837   0.601
 1185TIP3   OH2 3518   5.852   3.321   5.714
 1185TIP3    H1 3519   5.939   3.313   5.675
 1185TIP3    H2 3520   5.864   3.295   5.805
 1186TIP3   OH2 3521   6.267   4.461   5.293
 1186TIP3    H1 3522   6.246   4.539   5.240
 1186TIP3    H2 3523   6.183   4.418   5.306
 1187TIP3   OH2 3524   1.319   5.807   0.304
 1187TIP3    H1 3525   1.249   5.861   0.341
 1187TIP3    H2 3526   1.297   5.718   0.330
 1188TIP3   OH2 3527   3.664   0.737   0.659
 1188TIP3    H1 3528   3.736   0.684   0.693
 1188TIP3    H2 3529   3.690   0.828   0.677
 1189TIP3   OH2 3530   6.758   5.151   0.787
 1189TIP3    H1 3531   6.800   5.213   0.728
 1189TIP3    H2 3532   6.697   5.103   0.731
 1190TIP3   OH2 3533   5.941   5.693   4.960
 1190TIP3    H1 3534   5.971   5.674   4.871
 1190TIP3    H2 3535   5.846   5.692   4.955
 1191TIP3   OH2 3536   5.220   1.825   2.214
 1191TIP3    H1 3537   5.128   1.844   2.231
 1191TIP3    H2 3538   5.260   1.814   2.300
 1192TIP3   OH2 3539   1.150   4.176   0.679
 1192TIP3    H1 3540   1.192   4.262   0.677
 1192TIP3    H2 3541   1.144   4.150   0.587
 1193TIP3   OH2 3542   5.497   6.060   0.337
 1193TIP3    H1 3543   5.435   6.060   0.411
 1193TIP3    H2 3544   5.557   5.988   0.356
 1194TIP3   OH2 3545   3.726   6.485   0.256
 1194TIP3    H1 3546   3.643   6.525   0.229
 1194TIP3    H2 3547   3.716   6.472   0.350
 1195TIP3   OH2 3548   6.008   3.509   1.440
 1195TIP3    H1 3549   6.037   3.588   1.395
 1195TIP3    H2 3550   5.971   3.454   1.371
 1196TIP3   OH2 3551   6.685   4.683   1.949
 1196TIP3    H1 3552   6.653   4.640   2.028
 1196TIP3    H2 3553   6.701   4.612   1.887
 1197TIP3   OH2 3554   3.481   2.879   2.918
 1197TIP3    H1 3555   3.543   2.834   2.975
 1197TIP3    H2 3556   3.529   2.957   2.888
 1198TIP3   OH2 3557   0.368   0.855   0.054
 1198TIP3    H1 3558   0.347   0.926   0.114
 1198TIP3    H2 3559   0.464   0.851   0.054
 1199TIP3   OH2 3560   5.965   3.506   0.661
 1199TIP3    H1 3561   5.997   3.434   0.715
 1199TIP3    H2 3562   5.932   3.465   0.581
 1200TIP3   OH2 3563   7.093   6.415   2.647
 1200TIP3    H1 3564   7.092   6.441   2.739
 1200TIP3    H2 3565   7.110   6.321   2.649
 1201TIP3   OH2 3566   0.224   0.717   1.504
 1201TIP3    H1 3567   0.279   0.718   1.583
 1201TIP3    H2 3568   0.223   0.808   1.475
 1202TIP3   OH2 3569   5.536   0.305   0.243
 1202TIP3    H1 3570   5.528   0.368   0.171
 1202TIP3    H2 3571   5.472   0.237   0.222
 1203TIP3   OH2 3572   6.826   3.828   5.041
 1203TIP3    H1 3573   6.858   3.765   4.976
 1203TIP3    H2 3574   6.891   3.898   5.041
 1204TIP3   OH2 3575   7.133   3.625   2.906
 1204TIP3    H1 3576   7.199   3.567   2.947
 1204TIP3    H2 3577   7.143   3.610   2.812
 1205TIP3   OH2 3578   3.986   2.873   1.803
 1205TIP3    H1 3579   4.012   2.931   1.732
 1205TIP3    H2 3580   3.896   2.898   1.823
 1206TIP3   OH2 3581   2.873   4.905   3.495
 1206TIP3    H1 3582   2.834   4.830   3.450
 1206TIP3    H2 3583   2.948   4.930   3.440
 1207TIP3   OH2 3584   3.835   2.162   3.543
 1207TIP3    H1 3585   3.745   2.176   3.570
 1207TIP3    H2 3586   3.829   2.149   3.448
 1208TIP3   OH2 3587   5.433   1.410   0.776
 1208TIP3    H1 3588   5.465   1.391   0.864
 1208TIP3    H2 3589   5.478   1.492   0.751
 1209TIP3   OH2 3590   4.993   2.523   0.883
 1209TIP3    H1 3591   4.951   2.562   0.807
 1209TIP3    H2 3592   4.987   2.590   0.951
 1210TIP3   OH2 3593   3.062   3.288   4.040
 1210TIP3    H1 3594   2.993   3.341   4.079
 1210TIP3    H2 3595   3.140   3.344   4.043
 1211TIP3   OH2 3596   6.248   5.323   1.413
 1211TIP3    H1 3597   6.152   5.331   1.418
 1211TIP3    H2 3598   6.268   5.252   1.474
 1212TIP3   OH2 3599   3.553   5.985   2.789
 1212TIP3    H1 3600   3.617   6.047   2.823
 1212TIP3    H2 3601   3.576   5.976   2.696
 1213TIP3   OH2 3602   1.372   0.654   1.192
 1213TIP3    H1 3603   1.371   0.713   1.117
 1213TIP3    H2 3604   1.412   0.573   1.158
 1214TIP3   OH2 3605   1.525   3.976   0.455
 1214TIP3    H1 3606   1.603   3.975   0.510
 1214TIP3    H2 3607   1.541   3.909   0.389
 1215TIP3   OH2 3608   5.867   4.974   2.412
 1215TIP3    H1 3609   5.876   5.062   2.376
 1215TIP3    H2 3610   5.808   4.929   2.351
 1216TIP3   OH2 3611   1.944   3.216   0.782
 1216TIP3    H1 3612   2.012   3.191   0.720
 1216TIP3    H2 3613   1.908   3.132   0.813
 1217TIP3   OH2 3614   0.604   6.832   2.936
 1217TIP3    H1 3615   0.509   6.828   2.925
 1217TIP3    H2 3616   0.638   6.765   2.876
 1218TIP3   OH2 3617   1.959   1.739   3.616
 1218TIP3    H1 3618   1.908   1.816   3.640
 1218TIP3    H2 3619   1.897   1.680   3.573
 1219TIP3   OH2 3620   4.532   4.090   5.466
 1219TIP3    H1 3621   4.526   4.185   5.481
 1219TIP3    H2 3622   4.517   4.052   5.553
 1220TIP3   OH2 3623   3.687   1.641   2.369
 1220TIP3    H1 3624   3.742   1.573   2.408
 1220TIP3    H2 3625   3.744   1.687   2.308
 1221TIP3   OH2 3626   5.815   3.095   1.185
 1221TIP3    H1 3627   5.723   3.079   1.164
 1221TIP3    H2 3628   5.862   3.022   1.146
 1222TIP3   OH2 3629   1.783   2.287   2.619
 1222TIP3    H1 3630   1.701   2.239   2.610
 1222TIP3    H2 3631   1.781   2.322   2.708
 1223TIP3   OH2 3632   6.153   3.947   4.820
 1223TIP3    H1 3633   6.198   3.994   4.750
 1223TIP3    H2 3634   6.185   3.857   4.812
 1224TIP3   OH2 3635   3.247   5.024   2.208
 1224TIP3    H1 3636   3.226   4.974   2.130
 1224TIP3    H2 3637   3.258   4.959   2.277
 1225TIP3   OH2 3638   0.892   5.619   4.787
 1225TIP3    H1 3639   0.849   5.573   4.860
 1225TIP3    H2 3640   0.861   5.709   4.796
 1226TIP3   OH2 3641   6.546   5.231   2.525
 1226TIP3    H1 3642   6.560   5.218   2.619
 1226TIP3    H2 3643   6.452   5.220   2.513
 1227TIP3   OH2 3644   4.797   6.395   1.830
 1227TIP3    H1 3645   4.749   6.464   1.784
 1227TIP3    H2 3646   4.856   6.442   1.888
 1228TIP3   OH2 3647   3.695   6.344   3.485
 1228TIP3    H1 3648   3.660   6.262   3.520
 1228TIP3    H2 3649   3.766   6.318   3.427
 1229TIP3   OH2 3650   7.034   3.774   4.842
 1229TIP3    H1 3651   7.102   3.754   4.778
 1229TIP3    H2 3652   7.016   3.867   4.831
 1230TIP3   OH2 3653   4.178   4.806   0.669
 1230TIP3    H1 3654   4.132   4.742   0.723
 1230TIP3    H2 3655   4.130   4.807   0.586
 1231TIP3   OH2 3656   6.363   1.076   4.294
 1231TIP3    H1 3657   6.451   1.114   4.292
 1231TIP3    H2 3658   6.318   1.117   4.221
 1232TIP3   OH2 3659   6.101   0.118   2.109
 1232TIP3    H1 3660   6.073   0.203   2.073
 1232TIP3    H2 3661   6.191   0.133   2.136
 1233TIP3   OH2 3662   1.361   3.743   4.675
 1233TIP3    H1 3663   1.351   3.673   4.609
 1233TIP3    H2 3664   1.447   3.780   4.656
 1234TIP3   OH2 3665   7.234   1.776   4.210
 1234TIP3    H1 3666   7.229   1.706   4.145
 1234TIP3    H2 3667   7.143   1.802   4.225
 1235TIP3   OH2 3668   0.598   1.146   3.824
 1235TIP3    H1 3669   0.528   1.134   3.760
 1235TIP3    H2 3670   0.617   1.058   3.856
 1236TIP3   OH2 3671   2.705   3.299   0.152
 1236TIP3    H1 3672   2.693   3.243   0.229
 1236TIP3    H2 3673   2.770   3.363   0.179
 1237TIP3   OH2 3674   0.754   6.647   2.384
 1237TIP3    H1 3675   0.831   6.610   2.427
 1237TIP3    H2 3676   0.693   6.574   2.377
 1238TIP3   OH2 3677   2.642   5.231   0.947
 1238TIP3    H1 3678   2.594   5.149   0.958
 1238TIP3    H2 3679   2.652   5.240   0.852
 1239TIP3   OH2 3680   5.358   4.200   1.237
 1239TIP3    H1 3681   5.276   4.176   1.281
 1239TIP3    H2 3682   5.425   4.153   1.286
 1240TIP3   OH2 3683   5.536   4.437   1.582
 1240TIP3    H1 3684   5.528   4.504   1.515
 1240TIP3    H2 3685   5.508   4.480   1.663
 1241TIP3   OH2 3686   0.290   2.782   0.418
 1241TIP3    H1 3687   0.277   2.865   0.372
 1241TIP3    H2 3688   0.361   2.800   0.480
 1242TIP3   OH2 3689   1.720   5.599   1.793
 1242TIP3    H1 3690   1.661   5.570   1.724
 1242TIP3    H2 3691   1.775   5.666   1.752
 1243TIP3   OH2 3692   2.528   1.333   2.049
 1243TIP3    H1 3693   2.583   1.345   1.972
 1243TIP3    H2 3694   2.512   1.422   2.082
 1244TIP3   OH2 3695   6.134   1.076   1.143
 1244TIP3    H1 3696   6.157   1.025   1.065
 1244TIP3    H2 3697   6.042   1.057   1.158
 1245TIP3   OH2 3698   0.921   0.549   5.253
 1245TIP3    H1 3699   0.937   0.641   5.235
 1245TIP3    H2 3700   0.969   0.502   5.185
 1246TIP3   OH2 3701   2.320   2.680   2.291
 1246TIP3    H1 3702   2.334   2.768   2.325
 1246TIP3    H2 3703   2.225   2.672   2.283
 1247TIP3   OH2 3704   5.449   5.438   2.173
 1247TIP3    H1 3705   5.475   5.363   2.226
 1247TIP3    H2 3706   5.449   5.406   2.083
 1248TIP3   OH2 3707   0.213   6.585   5.822
 1248TIP3    H1 3708   0.276   6.559   5.754
 1248TIP3    H2 3709   0.191   6.504   5.867
 1249TIP3   OH2 3710   4.665   1.759   1.521
 1249TIP3    H1 3711   4.602   1.694   1.489
 1249TIP3    H2 3712   4.639   1.777   1.611
 1250TIP3   OH2 3713   6.707   6.802   0.438
 1250TIP3    H1 3714   6.749   6.797   0.352
 1250TIP3    H2 3715   6.617   6.773   0.421
 1251TIP3   OH2 3716   6.505   0.745   1.536
 1251TIP3    H1 3717   6.429   0.697   1.568
 1251TIP3    H2 3718   6.580   0.688   1.555
 1252TIP3   OH2 3719   3.501   0.709   5.732
 1252TIP3    H1 3720   3.574   0.721   5.671
 1252TIP3    H2 3721   3.423   0.714   5.677
 1253TIP3   OH2 3722   6.451   3.923   0.283
 1253TIP3    H1 3723   6.509   3.883   0.348
 1253TIP3    H2 3724   6.492   3.902   0.198
 1254TIP3   OH2 3725   3.450   3.204   2.144
 1254TIP3    H1 3726   3.529   3.161   2.110
 1254TIP3    H2 3727   3.467   3.297   2.135
 1255TIP3   OH2 3728   5.925   3.509   0.354
 1255TIP3    H1 3729   5.860   3.577   0.369
 1255TIP3    H2 3730   6.005   3.557   0.331
 1256TIP3   OH2 3731   1.573   6.315   0.842
 1256TIP3    H1 3732   1.606   6.394   0.799
 1256TIP3    H2 3733   1.599   6.243   0.784
 1257TIP3   OH2 3734   7.015   3.146   4.729
 1257TIP3    H1 3735   7.038   3.236   4.708
 1257TIP3    H2 3736   7.053   3.131   4.815
 1258TIP3   OH2 3737   6.340   6.139   2.388
 1258TIP3    H1 3738   6.250   6.112   2.406
 1258TIP3    H2 3739   6.366   6.188   2.466
 1259TIP3   OH2 3740   7.162   2.894   4.009
 1259TIP3    H1 3741   7.067   2.900   4.020
 1259TIP3    H2 3742   7.196   2.968   4.060
 1260TIP3   OH2 3743   6.566   6.080   2.584
 1260TIP3    H1 3744   6.501   6.071   2.653
 1260TIP3    H2 3745   6.571   6.174   2.567
 1261TIP3   OH2 3746   5.258   1.854   1.154
 1261TIP3    H1 3747   5.171   1.825   1.127
 1261TIP3    H2 3748   5.271   1.937   1.108
 1262TIP3   OH2 3749   4.662   1.206   0.466
 1262TIP3    H1 3750   4.719   1.157   0.407
 1262TIP3    H2 3751   4.593   1.144   0.491
 1263TIP3   OH2 3752   3.369   6.320   0.132
 1263TIP3    H1 3753   3.308   6.320   0.058
 1263TIP3    H2 3754   3.344   6.397   0.183
 1264TIP3   OH2 3755   0.694   1.669   0.895
 1264TIP3    H1 3756   0.708   1.575   0.911
 1264TIP3    H2 3757   0.606   1.686   0.931
 1265TIP3   OH2 3758   2.119   3.392   2.762
 1265TIP3    H1 3759   2.038   3.440   2.779
 1265TIP3    H2 3760   2.133   3.340   2.841
 1266TIP3   OH2 3761   6.320   6.460   1.125
 1266TIP3    H1 3762   6.256   6.410   1.175
 1266TIP3    H2 3763   6.293   6.551   1.135
 1267TIP3   OH2 3764   6.998   5.891   2.046
 1267TIP3    H1 3765   7.033   5.981   2.051
 1267TIP3    H2 3766   6.917   5.894   2.095
 1268TIP3   OH2 3767   0.877   2.642   3.913
 1268TIP3    H1 3768   0.870   2.599   3.998
 1268TIP3    H2 3769   0.812   2.596   3.859
 1269TIP3   OH2 3770   2.317   0.139   4.865
 1269TIP3    H1 3771   2.288   0.225   4.834
 1269TIP3    H2 3772   2.357   0.157   4.951
 1270TIP3   OH2 3773   0.171   1.411   1.033
 1270TIP3    H1 3774   0.219   1.342   0.986
 1270TIP3    H2 3775   0.193   1.397   1.125
 1271TIP3   OH2 3776   3.531   3.086   0.860
 1271TIP3    H1 3777   3.618   3.052   0.879
 1271TIP3    H2 3778   3.506   3.044   0.778
 1272TIP3   OH2 3779   2.391   0.032   4.383
 1272TIP3    H1 3780   2.349  -0.034   4.327
 1272TIP3    H2 3781   2.331   0.106   4.383
 1273TIP3   OH2 3782   1.446   3.320   3.703
 1273TIP3    H1 3783   1.489   3.276   3.775
 1273TIP3    H2 3784   1.446   3.413   3.728
 1274TIP3   OH2 3785   7.069   0.531   4.887
 1274TIP3    H1 3786   7.014   0.548   4.964
 1274TIP3    H2 3787   7.134   0.467   4.917
 1275TIP3   OH2 3788   4.109   1.777   4.675
 1275TIP3    H1 3789   4.076   1.860   4.641
 1275TIP3    H2 3790   4.051   1.756   4.748
 1276TIP3   OH2 3791   4.775   0.490   2.667
 1276TIP3    H1 3792   4.704   0.534   2.621
 1276TIP3    H2 3793   4.748   0.490   2.759
 1277TIP3   OH2 3794   4.161   3.639   1.334
 1277TIP3    H1 3795   4.084   3.604   1.379
 1277TIP3    H2 3796   4.182   3.573   1.268
 1278TIP3   OH2 3797   2.318   6.134   4.048
 1278TIP3    H1 3798   2.288   6.128   3.957
 1278TIP3    H2 3799   2.401   6.086   4.049
 1279TIP3   OH2 3800   6.097   0.619   2.484
 1279TIP3    H1 3801   6.097   0.566   2.565
 1279TIP3    H2 3802   6.110   0.555   2.414
 1280TIP3   OH2 3803   2.446   2.267   4.908
 1280TIP3    H1 3804   2.464   2.205   4.837
 1280TIP3    H2 3805   2.351   2.264   4.919
 1281TIP3   OH2 3806   2.620   6.646   3.689
 1281TIP3    H1 3807   2.705   6.664   3.728
 1281TIP3    H2 3808   2.639   6.628   3.597
 1282TIP3   OH2 3809   3.040   1.679   4.393
 1282TIP3    H1 3810   3.039   1.619   4.467
 1282TIP3    H2 3811   3.096   1.752   4.420
 1283TIP3   OH2 3812   0.792   6.165   1.286
 1283TIP3    H1 3813   0.794   6.178   1.191
 1283TIP3    H2 3814   0.726   6.097   1.300
 1284TIP3   OH2 3815   1.735   4.343   3.534
 1284TIP3    H1 3816   1.748   4.249   3.538
 1284TIP3    H2 3817   1.783   4.371   3.456
 1285TIP3   OH2 3818   5.206   2.265   1.653
 1285TIP3    H1 3819   5.245   2.262   1.566
 1285TIP3    H2 3820   5.249   2.195   1.701
 1286TIP3   OH2 3821   2.702   5.463   3.603
 1286TIP3    H1 3822   2.676   5.374   3.624
 1286TIP3    H2 3823   2.716   5.462   3.508
 1287TIP3   OH2 3824   4.170   2.990   4.126
 1287TIP3    H1 3825   4.219   2.911   4.150
 1287TIP3    H2 3826   4.155   3.036   4.209
 1288TIP3   OH2 3827   6.593   3.781   1.648
 1288TIP3    H1 3828   6.657   3.727   1.602
 1288TIP3    H2 3829   6.590   3.863   1.598
 1289TIP3   OH2 3830   1.579   1.178   1.195
 1289TIP3    H1 3831   1.486   1.163   1.183
 1289TIP3    H2 3832   1.615   1.178   1.106
 1290TIP3   OH2 3833   6.082   0.923   3.770
 1290TIP3    H1 3834   6.145   0.900   3.702
 1290TIP3    H2 3835   6.032   0.842   3.786
 1291TIP3   OH2 3836   2.757   6.638   0.252
 1291TIP3    H1 3837   2.737   6.576   0.182
 1291TIP3    H2 3838   2.691   6.707   0.242
 1292TIP3   OH2 3839   1.652   0.869   3.200
 1292TIP3    H1 3840   1.583   0.917   3.245
 1292TIP3    H2 3841   1.663   0.914   3.116
 1293TIP3   OH2 3842   1.290   6.118   0.939
 1293TIP3    H1 3843   1.299   6.054   1.009
 1293TIP3    H2 3844   1.255   6.196   0.981
 1294TIP3   OH2 3845   4.266   6.432   3.548
 1294TIP3    H1 3846   4.221   6.504   3.505
 1294TIP3    H2 3847   4.207   6.357   3.538
 1295TIP3   OH2 3848   6.341   4.549   3.782
 1295TIP3    H1 3849   6.344   4.480   3.715
 1295TIP3    H2 3850   6.433   4.571   3.797
 1296TIP3   OH2 3851   6.521   5.236   0.629
 1296TIP3    H1 3852   6.484   5.239   0.718
 1296TIP3    H2 3853   6.541   5.144   0.615
 1297TIP3   OH2 3854   4.133   6.141   0.416
 1297TIP3    H1 3855   4.059   6.161   0.474
 1297TIP3    H2 3856   4.127   6.046   0.402
 1298TIP3   OH2 3857   5.437   3.718   5.486
 1298TIP3    H1 3858   5.436   3.657   5.560
 1298TIP3    H2 3859   5.383   3.675   5.420
 1299TIP3   OH2 3860   1.295   2.091   0.096
 1299TIP3    H1 3861   1.289   2.073   0.190
 1299TIP3    H2 3862   1.207   2.118   0.071
 1300TIP3   OH2 3863   4.101   0.466   1.007
 1300TIP3    H1 3864   4.172   0.447   0.945
 1300TIP3    H2 3865   4.055   0.383   1.017
 1301TIP3   OH2 3866   3.112   5.743   4.198
 1301TIP3    H1 3867   3.063   5.720   4.277
 1301TIP3    H2 3868   3.175   5.810   4.227
 1302TIP3   OH2 3869   2.396   2.817   0.388
 1302TIP3    H1 3870   2.486   2.818   0.355
 1302TIP3    H2 3871   2.403   2.851   0.478
 1303TIP3   OH2 3872   0.259   1.262   0.719
 1303TIP3    H1 3873   0.350   1.291   0.721
 1303TIP3    H2 3874   0.210   1.338   0.687
 1304TIP3   OH2 3875   0.428   5.187   0.552
 1304TIP3    H1 3876   0.428   5.212   0.645
 1304TIP3    H2 3877   0.500   5.126   0.543
 1305TIP3   OH2 3878   7.231   1.655   5.259
 1305TIP3    H1 3879   7.196   1.744   5.263
 1305TIP3    H2 3880   7.157   1.601   5.233
 1306TIP3   OH2 3881   4.018   1.657   4.076
 1306TIP3    H1 3882   3.994   1.743   4.112
 1306TIP3    H2 3883   3.983   1.594   4.138
 1307TIP3   OH2 3884   3.414   5.273   4.265
 1307TIP3    H1 3885   3.489   5.297   4.319
 1307TIP3    H2 3886   3.411   5.339   4.196
 1308TIP3   OH2 3887   4.422   1.786   0.854
 1308TIP3    H1 3888   4.507   1.819   0.882
 1308TIP3    H2 3889   4.396   1.843   0.782
 1309TIP3   OH2 3890   4.084   5.344   1.514
 1309TIP3    H1 3891   4.035   5.409   1.463
 1309TIP3    H2 3892   4.019   5.277   1.535
 1310TIP3   OH2 3893   6.428   3.823   2.031
 1310TIP3    H1 3894   6.358   3.778   2.078
 1310TIP3    H2 3895   6.456   3.761   1.963
 1311TIP3   OH2 3896   6.600   4.664   0.261
 1311TIP3    H1 3897   6.510   4.695   0.252
 1311TIP3    H2 3898   6.593   4.569   0.261
 1312TIP3   OH2 3899   0.378   2.815   0.871
 1312TIP3    H1 3900   0.413   2.730   0.844
 1312TIP3    H2 3901   0.347   2.854   0.789
 1313TIP3   OH2 3902   4.224   1.765   5.686
 1313TIP3    H1 3903   4.213   1.787   5.594
 1313TIP3    H2 3904   4.222   1.669   5.689
 1314TIP3   OH2 3905   2.528   0.352   3.441
 1314TIP3    H1 3906   2.543   0.410   3.516
 1314TIP3    H2 3907   2.587   0.386   3.373
 1315TIP3   OH2 3908   4.667   0.793   1.540
 1315TIP3    H1 3909   4.741   0.816   1.485
 1315TIP3    H2 3910   4.638   0.708   1.506
 1316TIP3   OH2 3911   1.560   4.297   1.718
 1316TIP3    H1 3912   1.471   4.311   1.751
 1316TIP3    H2 3913   1.559   4.207   1.685
 1317TIP3   OH2 3914   2.908   6.183   0.983
 1317TIP3    H1 3915   2.844   6.234   0.933
 1317TIP3    H2 3916   2.993   6.216   0.955
 1318TIP3   OH2 3917   6.878   5.983   4.002
 1318TIP3    H1 3918   6.841   5.982   4.090
 1318TIP3    H2 3919   6.838   5.908   3.959
 1319TIP3   OH2 3920   5.069   3.872   1.413
 1319TIP3    H1 3921   4.989   3.924   1.420
 1319TIP3    H2 3922   5.084   3.839   1.502
 1320TIP3   OH2 3923   3.636   1.249   1.301
 1320TIP3    H1 3924   3.570   1.202   1.353
 1320TIP3    H2 3925   3.634   1.206   1.215
 1321TIP3   OH2 3926   4.801   0.355   3.168
 1321TIP3    H1 3927   4.755   0.306   3.237
 1321TIP3    H2 3928   4.880   0.304   3.151
 1322TIP3   OH2 3929   1.167   0.495   0.054
 1322TIP3    H1 3930   1.216   0.505   0.135
 1322TIP3    H2 3931   1.159   0.400   0.042
 1323TIP3   OH2 3932   4.874   5.357   2.735
 1323TIP3    H1 3933   4.888   5.269   2.700
 1323TIP3    H2 3934   4.926   5.359   2.816
 1324TIP3   OH2 3935   2.408   6.501   3.765
 1324TIP3    H1 3936   2.461   6.559   3.710
 1324TIP3    H2 3937   2.470   6.468   3.830
 1325TIP3   OH2 3938   0.265   1.503   0.064
 1325TIP3    H1 3939   0.262   1.545   0.150
 1325TIP3    H2 3940   0.326   1.430   0.075
 1326TIP3   OH2 3941   4.079   0.696  -0.003
 1326TIP3    H1 3942   4.027   0.617   0.013
 1326TIP3    H2 3943   4.121   0.713   0.081
 1327TIP3   OH2 3944   1.868   0.910   5.396
 1327TIP3    H1 3945   1.826   0.848   5.337
 1327TIP3    H2 3946   1.847   0.996   5.360
 1328TIP3   OH2 3947   5.028   3.250   3.267
 1328TIP3    H1 3948   5.050   3.161   3.240
 1328TIP3    H2 3949   5.074   3.306   3.204
 1329TIP3   OH2 3950   1.689   0.204   5.049
 1329TIP3    H1 3951   1.597   0.181   5.064
 1329TIP3    H2 3952   1.728   0.206   5.136
 1330TIP3   OH2 3953   7.175   0.593   0.139
 1330TIP3    H1 3954   7.174   0.518   0.080
 1330TIP3    H2 3955   7.176   0.555   0.227
 1331TIP3   OH2 3956   1.400   2.618   0.528
 1331TIP3    H1 3957   1.486   2.613   0.486
 1331TIP3    H2 3958   1.345   2.664   0.465
 1332TIP3   OH2 3959   4.872   6.618   2.475
 1332TIP3    H1 3960   4.853   6.707   2.445
 1332TIP3    H2 3961   4.874   6.625   2.571
 1333TIP3   OH2 3962   1.131   6.724   0.767
 1333TIP3    H1 3963   1.167   6.644   0.731
 1333TIP3    H2 3964   1.155   6.792   0.704
 1334TIP3   OH2 3965   1.640   2.983   4.750
 1334TIP3    H1 3966   1.718   2.972   4.695
 1334TIP3    H2 3967   1.566   2.979   4.688
 1335TIP3   OH2 3968   5.665   4.534   3.479
 1335TIP3    H1 3969   5.758   4.537   3.503
 1335TIP3    H2 3970   5.663   4.561   3.387
 1336TIP3   OH2 3971   3.450   4.590   4.239
 1336TIP3    H1 3972   3.361   4.624   4.250
 1336TIP3    H2 3973   3.452   4.510   4.290
 1337TIP3   OH2 3974   7.149   4.228   2.616
 1337TIP3    H1 3975   7.172   4.136   2.607
 1337TIP3    H2 3976   7.192   4.256   2.697
 1338TIP3   OH2 3977   2.333   3.357   2.028
 1338TIP3    H1 3978   2.263   3.390   1.972
 1338TIP3    H2 3979   2.327   3.410   2.107
 1339TIP3   OH2 3980   1.463   5.319   4.027
 1339TIP3    H1 3981   1.537   5.289   3.974
 1339TIP3    H2 3982   1.499   5.325   4.116
 1340TIP3   OH2 3983   5.610   6.629   1.544
 1340TIP3    H1 3984   5.592   6.706   1.599
 1340TIP3    H2 3985   5.699   6.603   1.568
 1341TIP3   OH2 3986   5.735   0.596   0.376
 1341TIP3    H1 3987   5.644   0.621   0.358
 1341TIP3    H2 3988   5.749   0.516   0.325
 1342TIP3   OH2 3989   2.709   0.355   4.087
 1342TIP3    H1 3990   2.740   0.357   4.178
 1342TIP3    H2 3991   2.629   0.302   4.091
 1343TIP3   OH2 3992   2.684   6.644   1.228
 1343TIP3    H1 3993   2.732   6.710   1.179
 1343TIP3    H2 3994   2.592   6.661   1.207
 1344TIP3   OH2 3995   4.064   3.164   0.162
 1344TIP3    H1 3996   4.000   3.099   0.134
 1344TIP3    H2 3997   4.015   3.224   0.218
 1345TIP3   OH2 3998   0.631   3.491   2.524
 1345TIP3    H1 3999   0.567   3.562   2.532
 1345TIP3    H2 4000   0.701   3.528   2.471
 1346TIP3   OH2 4001   2.230   1.325   5.375
 1346TIP3    H1 4002   2.245   1.415   5.344
 1346TIP3    H2 4003   2.234   1.331   5.470
 1347TIP3   OH2 4004   3.833   4.518   5.482
 1347TIP3    H1 4005   3.846   4.423   5.475
 1347TIP3    H2 4006   3.754   4.528   5.534
 1348TIP3   OH2 4007   0.026   3.293   3.834
 1348TIP3    H1 4008   0.095   3.354   3.862
 1348TIP3    H2 4009  -0.047   3.310   3.892
 1349TIP3   OH2 4010   2.507   0.051   3.024
 1349TIP3    H1 4011   2.492  -0.044   3.032
 1349TIP3    H2 4012   2.474   0.074   2.937
 1350TIP3   OH2 4013   2.313   3.682   4.711
 1350TIP3    H1 4014   2.395   3.730   4.717
 1350TIP3    H2 4015   2.299   3.648   4.800
 1351TIP3   OH2 4016   6.217   0.920   0.323
 1351TIP3    H1 4017   6.193   0.990   0.262
 1351TIP3    H2 4018   6.165   0.938   0.402
 1352TIP3   OH2 4019   5.359   4.019   5.712
 1352TIP3    H1 4020   5.362   4.114   5.703
 1352TIP3    H2 4021   5.438   3.998   5.762
 1353TIP3   OH2 4022   1.077   4.856   0.041
 1353TIP3    H1 4023   1.031   4.918   0.097
 1353TIP3    H2 4024   1.162   4.896   0.025
 1354TIP3   OH2 4025   6.319   0.322   0.063
 1354TIP3    H1 4026   6.330   0.405   0.110
 1354TIP3    H2 4027   6.399   0.274   0.081
 1355TIP3   OH2 4028   4.134   3.366   2.186
 1355TIP3    H1 4029   4.133   3.454   2.148
 1355TIP3    H2 4030   4.224   3.352   2.215
 1356TIP3   OH2 4031   1.479   5.072   3.350
 1356TIP3    H1 4032   1.554   5.060   3.407
 1356TIP3    H2 4033   1.412   5.111   3.406
 1357TIP3   OH2 4034   7.015   1.786   4.411
 1357TIP3    H1 4035   7.057   1.700   4.412
 1357TIP3    H2 4036   6.929   1.771   4.450
 1358TIP3   OH2 4037   2.269   3.138   4.660
 1358TIP3    H1 4038   2.300   3.192   4.732
 1358TIP3    H2 4039   2.327   3.159   4.587
 1359TIP3   OH2 4040   3.190   0.854   3.794
 1359TIP3    H1 4041   3.242   0.775   3.807
 1359TIP3    H2 4042   3.244   0.925   3.830
 1360TIP3   OH2 4043   0.343   6.452   2.836
 1360TIP3    H1 4044   0.407   6.424   2.902
 1360TIP3    H2 4045   0.306   6.370   2.802
 1361TIP3   OH2 4046   4.175   2.280   3.209
 1361TIP3    H1 4047   4.188   2.348   3.143
 1361TIP3    H2 4048   4.175   2.328   3.292
 1362TIP3   OH2 4049   2.386   5.156   5.584
 1362TIP3    H1 4050   2.306   5.140   5.633
 1362TIP3    H2 4051   2.400   5.076   5.534
 1363TIP3   OH2 4052   6.060   1.825   3.215
 1363TIP3    H1 4053   5.968   1.815   3.187
 1363TIP3    H2 4054   6.098   1.738   3.203
 1364TIP3   OH2 4055   1.275   6.712   0.066
 1364TIP3    H1 4056   1.185   6.689   0.092
 1364TIP3    H2 4057   1.312   6.755   0.143
 1365TIP3   OH2 4058   0.823   0.225   0.974
 1365TIP3    H1 4059   0.814   0.294   1.040
 1365TIP3    H2 4060   0.779   0.260   0.897
 1366TIP3   OH2 4061   2.135   4.499   1.668
 1366TIP3    H1 4062   2.183   4.433   1.618
 1366TIP3    H2 4063   2.187   4.579   1.660
 1367TIP3   OH2 4064   2.904   6.405   1.191
 1367TIP3    H1 4065   2.856   6.324   1.206
 1367TIP3    H2 4066   2.984   6.396   1.243
 1368TIP3   OH2 4067   5.793   3.714   5.743
 1368TIP3    H1 4068   5.838   3.645   5.695
 1368TIP3    H2 4069   5.767   3.778   5.677
 1369TIP3   OH2 4070   3.988   4.873   2.101
 1369TIP3    H1 4071   4.079   4.843   2.101
 1369TIP3    H2 4072   3.950   4.833   2.180
 1370TIP3   OH2 4073   5.466   5.090   2.863
 1370TIP3    H1 4074   5.387   5.079   2.916
 1370TIP3    H2 4075   5.489   5.182   2.873
 1371TIP3   OH2 4076   5.829   3.236   0.783
 1371TIP3    H1 4077   5.803   3.224   0.692
 1371TIP3    H2 4078   5.746   3.239   0.832
 1372TIP3   OH2 4079   4.356   2.617   2.278
 1372TIP3    H1 4080   4.303   2.619   2.357
 1372TIP3    H2 4081   4.438   2.658   2.303
 1373TIP3   OH2 4082   0.284   1.629   4.152
 1373TIP3    H1 4083   0.250   1.711   4.187
 1373TIP3    H2 4084   0.365   1.653   4.109
 1374TIP3   OH2 4085   5.775   3.356   5.191
 1374TIP3    H1 4086   5.756   3.316   5.276
 1374TIP3    H2 4087   5.689   3.373   5.153
 1375TIP3   OH2 4088   6.835   2.606   2.381
 1375TIP3    H1 4089   6.822   2.694   2.419
 1375TIP3    H2 4090   6.929   2.601   2.366
 1376TIP3   OH2 4091   4.877   5.875   0.864
 1376TIP3    H1 4092   4.873   5.814   0.938
 1376TIP3    H2 4093   4.806   5.937   0.881
 1377TIP3   OH2 4094   2.673   5.127   2.442
 1377TIP3    H1 4095   2.581   5.145   2.420
 1377TIP3    H2 4096   2.694   5.192   2.510
 1378TIP3   OH2 4097   0.205   0.603   0.583
 1378TIP3    H1 4098   0.280   0.568   0.632
 1378TIP3    H2 4099   0.136   0.538   0.595
 1379TIP3   OH2 4100   4.117   2.260   5.101
 1379TIP3    H1 4101   4.176   2.187   5.079
 1379TIP3    H2 4102   4.029   2.226   5.084
 1380TIP3   OH2 4103   0.062   5.046   1.057
 1380TIP3    H1 4104   0.156   5.061   1.055
 1380TIP3    H2 4105   0.053   4.954   1.080
 1381TIP3   OH2 4106   4.847   2.207   4.728
 1381TIP3    H1 4107   4.780   2.236   4.790
 1381TIP3    H2 4108   4.898   2.142   4.776
 1382TIP3   OH2 4109   4.826   1.764   2.109
 1382TIP3    H1 4110   4.839   1.687   2.053
 1382TIP3    H2 4111   4.802   1.834   2.049
 1383TIP3   OH2 4112   1.539   5.063   3.087
 1383TIP3    H1 4113   1.490   5.056   3.170
 1383TIP3    H2 4114   1.627   5.032   3.108
 1384TIP3   OH2 4115   3.764   5.821   5.158
 1384TIP3    H1 4116   3.834   5.819   5.092
 1384TIP3    H2 4117   3.701   5.884   5.124
 1385TIP3   OH2 4118   2.279   2.785   1.913
 1385TIP3    H1 4119   2.252   2.877   1.903
 1385TIP3    H2 4120   2.200   2.740   1.943
 1386TIP3   OH2 4121   5.678   6.093   4.453
 1386TIP3    H1 4122   5.657   6.165   4.394
 1386TIP3    H2 4123   5.712   6.136   4.532
 1387TIP3   OH2 4124   4.320   5.537   1.614
 1387TIP3    H1 4125   4.303   5.623   1.578
 1387TIP3    H2 4126   4.395   5.549   1.672
 1388TIP3   OH2 4127   0.193   5.976   2.713
 1388TIP3    H1 4128   0.285   5.949   2.720
 1388TIP3    H2 4129   0.144   5.898   2.740
 1389TIP3   OH2 4130   2.680   2.896   1.400
 1389TIP3    H1 4131   2.649   2.816   1.357
 1389TIP3    H2 4132   2.734   2.865   1.473
 1390TIP3   OH2 4133   6.199   6.658   0.238
 1390TIP3    H1 4134   6.131   6.593   0.257
 1390TIP3    H2 4135   6.154   6.742   0.243
 1391TIP3   OH2 4136   3.743   4.711   5.253
 1391TIP3    H1 4137   3.723   4.711   5.160
 1391TIP3    H2 4138   3.661   4.735   5.295
 1392TIP3   OH2 4139   5.908   2.319   4.804
 1392TIP3    H1 4140   5.893   2.386   4.738
 1392TIP3    H2 4141   5.989   2.276   4.777
 1393TIP3   OH2 4142   0.800   3.893   0.565
 1393TIP3    H1 4143   0.706   3.899   0.583
 1393TIP3    H2 4144   0.834   3.980   0.585
 1394TIP3   OH2 4145   2.552   5.456   3.317
 1394TIP3    H1 4146   2.636   5.411   3.310
 1394TIP3    H2 4147   2.493   5.405   3.261
 1395TIP3   OH2 4148   4.721   3.075   1.448
 1395TIP3    H1 4149   4.771   3.156   1.445
 1395TIP3    H2 4150   4.733   3.037   1.361
 1396TIP3   OH2 4151   5.187   4.999   1.729
 1396TIP3    H1 4152   5.184   5.070   1.665
 1396TIP3    H2 4153   5.137   5.031   1.803
 1397TIP3   OH2 4154   6.872   1.022   1.549
 1397TIP3    H1 4155   6.861   0.966   1.472
 1397TIP3    H2 4156   6.865   0.962   1.623
 1398TIP3   OH2 4157   6.922   3.415   0.182
 1398TIP3    H1 4158   6.995   3.368   0.141
 1398TIP3    H2 4159   6.844   3.378   0.140
 1399TIP3   OH2 4160   6.931   2.416   0.703
 1399TIP3    H1 4161   6.893   2.446   0.786
 1399TIP3    H2 4162   6.859   2.370   0.659
 1400TIP3   OH2 4163   5.569   4.743   3.250
 1400TIP3    H1 4164   5.629   4.799   3.200
 1400TIP3    H2 4165   5.482   4.771   3.223
 1401TIP3   OH2 4166   7.075   4.736   1.437
 1401TIP3    H1 4167   7.049   4.661   1.490
 1401TIP3    H2 4168   7.033   4.722   1.353
 1402TIP3   OH2 4169   2.843   0.968   2.285
 1402TIP3    H1 4170   2.821   1.061   2.294
 1402TIP3    H2 4171   2.788   0.937   2.214
 1403TIP3   OH2 4172   2.981   6.532   4.157
 1403TIP3    H1 4173   2.993   6.627   4.155
 1403TIP3    H2 4174   3.018   6.504   4.240
 1404TIP3   OH2 4175   6.610   1.383   3.798
 1404TIP3    H1 4176   6.653   1.453   3.848
 1404TIP3    H2 4177   6.523   1.375   3.837
 1405TIP3   OH2 4178   1.624   5.985   2.799
 1405TIP3    H1 4179   1.599   6.050   2.735
 1405TIP3    H2 4180   1.626   5.902   2.751
 1406TIP3   OH2 4181   6.272   1.792   2.377
 1406TIP3    H1 4182   6.316   1.825   2.299
 1406TIP3    H2 4183   6.303   1.849   2.448
 1407TIP3   OH2 4184   0.563   4.099   1.337
 1407TIP3    H1 4185   0.627   4.130   1.274
 1407TIP3    H2 4186   0.551   4.172   1.397
 1408TIP3   OH2 4187   6.300   3.129   5.826
 1408TIP3    H1 4188   6.364   3.167   5.885
 1408TIP3    H2 4189   6.219   3.176   5.845
 1409TIP3   OH2 4190   1.911   4.692   3.510
 1409TIP3    H1 4191   1.829   4.681   3.462
 1409TIP3    H2 4192   1.979   4.675   3.444
 1410TIP3   OH2 4193   4.462   4.522   2.139
 1410TIP3    H1 4194   4.479   4.511   2.046
 1410TIP3    H2 4195   4.478   4.435   2.176
 1411TIP3   OH2 4196   4.003   2.321   4.493
 1411TIP3    H1 4197   3.979   2.330   4.586
 1411TIP3    H2 4198   3.924   2.343   4.445
 1412TIP3   OH2 4199   1.602   2.363   2.301
 1412TIP3    H1 4200   1.514   2.384   2.331
 1412TIP3    H2 4201   1.601   2.385   2.207
 1413TIP3   OH2 4202   2.853   0.060   3.487
 1413TIP3    H1 4203   2.795   0.083   3.560
 1413TIP3    H2 4204   2.811  -0.016   3.446
 1414TIP3   OH2 4205   1.110   6.616   5.511
 1414TIP3    H1 4206   1.063   6.546   5.466
 1414TIP3    H2 4207   1.122   6.584   5.600
 1415TIP3   OH2 4208   5.764   2.182   2.230
 1415TIP3    H1 4209   5.722   2.162   2.314
 1415TIP3    H2 4210   5.837   2.120   2.224
 1416TIP3   OH2 4211   4.257   4.521   3.872
 1416TIP3    H1 4212   4.205   4.570   3.936
 1416TIP3    H2 4213   4.202   4.518   3.794
 1417TIP3   OH2 4214   0.860   0.737   5.719
 1417TIP3    H1 4215   0.835   0.726   5.628
 1417TIP3    H2 4216   0.865   0.647   5.753
 1418TIP3   OH2 4217   3.519   5.899   5.378
 1418TIP3    H1 4218   3.495   5.806   5.384
 1418TIP3    H2 4219   3.615   5.899   5.385
 1419TIP3   OH2 4220   4.246   5.034   0.539
 1419TIP3    H1 4221   4.208   4.972   0.602
 1419TIP3    H2 4222   4.278   4.978   0.468
 1420TIP3   OH2 4223   5.784   0.804   5.235
 1420TIP3    H1 4224   5.864   0.814   5.286
 1420TIP3    H2 4225   5.773   0.889   5.191
 1421TIP3   OH2 4226   2.911   5.902   1.005
 1421TIP3    H1 4227   3.006   5.886   1.001
 1421TIP3    H2 4228   2.901   5.991   0.972
 1422TIP3   OH2 4229   7.193   4.875   3.599
 1422TIP3    H1 4230   7.262   4.818   3.565
 1422TIP3    H2 4231   7.189   4.854   3.692
 1423TIP3   OH2 4232   0.401   4.951   4.011
 1423TIP3    H1 4233   0.439   4.897   3.941
 1423TIP3    H2 4234   0.452   5.032   4.008
 1424TIP3   OH2 4235   0.333   2.568   1.844
 1424TIP3    H1 4236   0.256   2.607   1.885
 1424TIP3    H2 4237   0.377   2.521   1.915
 1425TIP3   OH2 4238   5.390   3.391   1.911
 1425TIP3    H1 4239   5.314   3.334   1.923
 1425TIP3    H2 4240   5.360   3.459   1.850
 1426TIP3   OH2 4241   0.707   5.330   2.668
 1426TIP3    H1 4242   0.744   5.391   2.733
 1426TIP3    H2 4243   0.731   5.243   2.700
 1427TIP3   OH2 4244   6.422   0.305   5.237
 1427TIP3    H1 4245   6.336   0.329   5.269
 1427TIP3    H2 4246   6.407   0.227   5.183
 1428TIP3   OH2 4247   3.208   3.567   3.162
 1428TIP3    H1 4248   3.276   3.597   3.101
 1428TIP3    H2 4249   3.126   3.586   3.117
 1429TIP3   OH2 4250   4.002   0.469   5.817
 1429TIP3    H1 4251   4.071   0.493   5.878
 1429TIP3    H2 4252   4.046   0.418   5.749
 1430TIP3   OH2 4253   1.972   4.987   4.905
 1430TIP3    H1 4254   1.890   5.008   4.859
 1430TIP3    H2 4255   1.972   5.045   4.981
 1431TIP3   OH2 4256   6.105   2.571   0.951
 1431TIP3    H1 4257   6.065   2.642   0.900
 1431TIP3    H2 4258   6.121   2.610   1.037
 1432TIP3   OH2 4259   4.786   1.784   1.275
 1432TIP3    H1 4260   4.745   1.801   1.360
 1432TIP3    H2 4261   4.856   1.722   1.294
 1433TIP3   OH2 4262   0.070   3.233   1.931
 1433TIP3    H1 4263   0.011   3.303   1.902
 1433TIP3    H2 4264   0.056   3.162   1.868
 1434TIP3   OH2 4265   4.188   3.384   4.598
 1434TIP3    H1 4266   4.208   3.422   4.683
 1434TIP3    H2 4267   4.141   3.453   4.551
 1435TIP3   OH2 4268   3.329   0.186   5.530
 1435TIP3    H1 4269   3.331   0.281   5.542
 1435TIP3    H2 4270   3.410   0.155   5.571
 1436TIP3   OH2 4271   2.610   2.677   1.277
 1436TIP3    H1 4272   2.612   2.708   1.187
 1436TIP3    H2 4273   2.667   2.600   1.278
 1437TIP3   OH2 4274   4.442   2.507   1.346
 1437TIP3    H1 4275   4.359   2.544   1.317
 1437TIP3    H2 4276   4.509   2.565   1.309
 1438TIP3   OH2 4277   0.885   4.248   5.275
 1438TIP3    H1 4278   0.888   4.315   5.343
 1438TIP3    H2 4279   0.903   4.166   5.321
 1439TIP3   OH2 4280   3.244   1.790   3.503
 1439TIP3    H1 4281   3.308   1.719   3.492
 1439TIP3    H2 4282   3.189   1.785   3.425
 1440TIP3   OH2 4283   5.254   5.348   3.249
 1440TIP3    H1 4284   5.223   5.387   3.331
 1440TIP3    H2 4285   5.282   5.260   3.273
 1441TIP3   OH2 4286   0.269   5.289   1.445
 1441TIP3    H1 4287   0.326   5.261   1.373
 1441TIP3    H2 4288   0.180   5.278   1.411
 1442TIP3   OH2 4289   6.101   1.994   5.787
 1442TIP3    H1 4290   6.013   1.973   5.818
 1442TIP3    H2 4291   6.131   1.914   5.744
 1443TIP3   OH2 4292   3.856   1.225   1.490
 1443TIP3    H1 4293   3.766   1.254   1.473
 1443TIP3    H2 4294   3.902   1.239   1.407
 1444TIP3   OH2 4295   7.080   5.702   2.678
 1444TIP3    H1 4296   7.020   5.762   2.723
 1444TIP3    H2 4297   7.096   5.744   2.593
 1445TIP3   OH2 4298   3.239   5.884   3.778
 1445TIP3    H1 4299   3.309   5.881   3.842
 1445TIP3    H2 4300   3.251   5.805   3.725
 1446TIP3   OH2 4301   6.480   2.226   0.695
 1446TIP3    H1 4302   6.403   2.223   0.638
 1446TIP3    H2 4303   6.477   2.312   0.736
 1447TIP3   OH2 4304   2.209   3.207   0.295
 1447TIP3    H1 4305   2.274   3.277   0.301
 1447TIP3    H2 4306   2.195   3.196   0.201
 1448TIP3   OH2 4307   7.007   1.031   0.443
 1448TIP3    H1 4308   7.054   1.099   0.395
 1448TIP3    H2 4309   6.961   0.980   0.376
 1449TIP3   OH2 4310   2.385   1.409   2.747
 1449TIP3    H1 4311   2.398   1.334   2.805
 1449TIP3    H2 4312   2.301   1.446   2.774
 1450TIP3   OH2 4313   7.077   1.847   2.484
 1450TIP3    H1 4314   7.095   1.868   2.576
 1450TIP3    H2 4315   7.079   1.752   2.480
 1451TIP3   OH2 4316   1.251   4.924   3.281
 1451TIP3    H1 4317   1.214   4.982   3.346
 1451TIP3    H2 4318   1.344   4.949   3.276
 1452TIP3   OH2 4319   6.916   5.917   1.646
 1452TIP3    H1 4320   6.923   5.974   1.570
 1452TIP3    H2 4321   6.830   5.876   1.638
 1453TIP3   OH2 4322   0.362   0.199   2.382
 1453TIP3    H1 4323   0.355   0.277   2.327
 1453TIP3    H2 4324   0.441   0.213   2.434
 1454TIP3   OH2 4325   5.248   5.048   4.813
 1454TIP3    H1 4326   5.180   5.036   4.879
 1454TIP3    H2 4327   5.263   4.960   4.778
 1455TIP3   OH2 4328   5.130   4.198   1.539
 1455TIP3    H1 4329   5.208   4.144   1.548
 1455TIP3    H2 4330   5.162   4.288   1.547
 1456TIP3   OH2 4331   5.329   0.904   2.736
 1456TIP3    H1 4332   5.379   0.908   2.654
 1456TIP3    H2 4333   5.332   0.994   2.769
 1457TIP3   OH2 4334   5.743   6.111   4.776
 1457TIP3    H1 4335   5.809   6.165   4.733
 1457TIP3    H2 4336   5.761   6.022   4.747
 1458TIP3   OH2 4337   7.074   5.714   4.727
 1458TIP3    H1 4338   7.113   5.643   4.676
 1458TIP3    H2 4339   7.092   5.793   4.676
 1459TIP3   OH2 4340   6.392   2.063   4.183
 1459TIP3    H1 4341   6.304   2.096   4.199
 1459TIP3    H2 4342   6.386   2.021   4.097
 1460TIP3   OH2 4343   6.372   3.777   0.583
 1460TIP3    H1 4344   6.403   3.714   0.517
 1460TIP3    H2 4345   6.360   3.725   0.662
 1461TIP3   OH2 4346   0.934   0.925   4.780
 1461TIP3    H1 4347   0.838   0.923   4.774
 1461TIP3    H2 4348   0.955   1.019   4.786
 1462TIP3   OH2 4349   4.617   2.458   2.911
 1462TIP3    H1 4350   4.542   2.476   2.855
 1462TIP3    H2 4351   4.583   2.469   3.000
 1463TIP3   OH2 4352   5.529   0.301   4.170
 1463TIP3    H1 4353   5.571   0.219   4.144
 1463TIP3    H2 4354   5.528   0.353   4.089
 1464TIP3   OH2 4355   0.262   3.416   1.209
 1464TIP3    H1 4356   0.175   3.381   1.228
 1464TIP3    H2 4357   0.306   3.419   1.294
 1465TIP3   OH2 4358   2.538   1.742   5.232
 1465TIP3    H1 4359   2.547   1.835   5.249
 1465TIP3    H2 4360   2.450   1.719   5.262
 1466TIP3   OH2 4361   4.783   1.764   3.963
 1466TIP3    H1 4362   4.793   1.720   4.047
 1466TIP3    H2 4363   4.872   1.790   3.939
 1467TIP3   OH2 4364   2.222   1.259   1.988
 1467TIP3    H1 4365   2.172   1.334   2.020
 1467TIP3    H2 4366   2.310   1.295   1.972
 1468TIP3   OH2 4367   4.638   3.219   2.374
 1468TIP3    H1 4368   4.663   3.186   2.288
 1468TIP3    H2 4369   4.704   3.285   2.395
 1469TIP3   OH2 4370   4.152   6.450   4.073
 1469TIP3    H1 4371   4.188   6.375   4.121
 1469TIP3    H2 4372   4.171   6.431   3.981
 1470TIP3   OH2 4373   4.221   4.791   5.600
 1470TIP3    H1 4374   4.225   4.717   5.661
 1470TIP3    H2 4375   4.211   4.750   5.513
 1471TIP3   OH2 4376   5.106   4.105   1.162
 1471TIP3    H1 4377   5.041   4.100   1.232
 1471TIP3    H2 4378   5.110   4.015   1.128
 1472TIP3   OH2 4379   0.727   6.249   5.332
 1472TIP3    H1 4380   0.758   6.203   5.409
 1472TIP3    H2 4381   0.638   6.276   5.353
 1473TIP3   OH2 4382   5.100   4.911   2.167
 1473TIP3    H1 4383   5.054   4.842   2.214
 1473TIP3    H2 4384   5.036   4.944   2.103
 1474TIP3   OH2 4385   1.773   1.628   0.071
 1474TIP3    H1 4386   1.723   1.609   0.150
 1474TIP3    H2 4387   1.736   1.711   0.039
 1475TIP3   OH2 4388   1.129   1.445   4.511
 1475TIP3    H1 4389   1.069   1.497   4.564
 1475TIP3    H2 4390   1.076   1.412   4.439
 1476TIP3   OH2 4391   2.228   3.730   5.222
 1476TIP3    H1 4392   2.191   3.652   5.264
 1476TIP3    H2 4393   2.153   3.775   5.184
 1477TIP3   OH2 4394   2.623   2.622   3.563
 1477TIP3    H1 4395   2.680   2.670   3.502
 1477TIP3    H2 4396   2.537   2.621   3.521
 1478TIP3   OH2 4397   5.096   6.345   1.896
 1478TIP3    H1 4398   5.086   6.438   1.918
 1478TIP3    H2 4399   5.190   6.335   1.879
 1479TIP3   OH2 4400   4.301   0.318   3.624
 1479TIP3    H1 4401   4.334   0.306   3.535
 1479TIP3    H2 4402   4.209   0.290   3.619
 1480TIP3   OH2 4403   3.571   6.563   0.837
 1480TIP3    H1 4404   3.526   6.543   0.755
 1480TIP3    H2 4405   3.644   6.501   0.839
 1481TIP3   OH2 4406   3.615   6.836   0.572
 1481TIP3    H1 4407   3.568   6.837   0.489
 1481TIP3    H2 4408   3.559   6.783   0.630
 1482TIP3   OH2 4409   0.992   4.235   3.108
 1482TIP3    H1 4410   1.004   4.328   3.090
 1482TIP3    H2 4411   1.019   4.192   3.027
 1483TIP3   OH2 4412   2.329   0.056   0.018
 1483TIP3    H1 4413   2.337  -0.039   0.027
 1483TIP3    H2 4414   2.282   0.068  -0.065
 1484TIP3   OH2 4415   2.505   5.602   5.155
 1484TIP3    H1 4416   2.521   5.682   5.204
 1484TIP3    H2 4417   2.565   5.607   5.080
 1485TIP3   OH2 4418   5.656   4.880   4.537
 1485TIP3    H1 4419   5.689   4.813   4.596
 1485TIP3    H2 4420   5.655   4.960   4.589
 1486TIP3   OH2 4421   0.793   5.319   2.993
 1486TIP3    H1 4422   0.830   5.284   3.074
 1486TIP3    H2 4423   0.700   5.296   2.997
 1487TIP3   OH2 4424   4.358   3.913   4.313
 1487TIP3    H1 4425   4.308   3.832   4.304
 1487TIP3    H2 4426   4.327   3.952   4.394
 1488TIP3   OH2 4427   5.812   1.728   0.145
 1488TIP3    H1 4428   5.816   1.788   0.220
 1488TIP3    H2 4429   5.892   1.676   0.151
 1489TIP3   OH2 4430   4.396   2.843   2.939
 1489TIP3    H1 4431   4.487   2.819   2.952
 1489TIP3    H2 4432   4.399   2.925   2.891
 1490TIP3   OH2 4433   0.639   3.184   4.375
 1490TIP3    H1 4434   0.710   3.242   4.404
 1490TIP3    H2 4435   0.565   3.243   4.361
 1491TIP3   OH2 4436   5.479   4.138   2.281
 1491TIP3    H1 4437   5.469   4.139   2.376
 1491TIP3    H2 4438   5.401   4.092   2.249
 1492TIP3   OH2 4439   1.462   3.278   5.371
 1492TIP3    H1 4440   1.377   3.317   5.352
 1492TIP3    H2 4441   1.486   3.314   5.457
 1493TIP3   OH2 4442   2.086   4.342   1.932
 1493TIP3    H1 4443   2.107   4.279   1.863
 1493TIP3    H2 4444   2.068   4.423   1.885
 1494TIP3   OH2 4445   6.314   3.753   5.298
 1494TIP3    H1 4446   6.356   3.803   5.227
 1494TIP3    H2 4447   6.325   3.808   5.376
 1495TIP3   OH2 4448   2.092   0.769   0.252
 1495TIP3    H1 4449   2.096   0.680   0.217
 1495TIP3    H2 4450   2.002   0.779   0.283
 1496TIP3   OH2 4451   5.606   1.094   4.490
 1496TIP3    H1 4452   5.668   1.143   4.436
 1496TIP3    H2 4453   5.655   1.019   4.522
 1497TIP3   OH2 4454   1.955   2.382   0.428
 1497TIP3    H1 4455   1.942   2.446   0.498
 1497TIP3    H2 4456   2.031   2.414   0.380
 1498TIP3   OH2 4457   6.769   2.303   4.801
 1498TIP3    H1 4458   6.695   2.356   4.772
 1498TIP3    H2 4459   6.839   2.324   4.740
 1499TIP3   OH2 4460   2.359   1.590   1.460
 1499TIP3    H1 4461   2.443   1.575   1.504
 1499TIP3    H2 4462   2.314   1.654   1.515
 1500TIP3   OH2 4463   0.626   3.243   0.195
 1500TIP3    H1 4464   0.685   3.302   0.149
 1500TIP3    H2 4465   0.611   3.286   0.280
 1501TIP3   OH2 4466   0.145   0.613   5.628
 1501TIP3    H1 4467   0.110   0.526   5.609
 1501TIP3    H2 4468   0.224   0.620   5.574
 1502TIP3   OH2 4469   1.704   1.015   4.358
 1502TIP3    H1 4470   1.615   1.028   4.389
 1502TIP3    H2 4471   1.712   1.074   4.283
 1503TIP3   OH2 4472   1.634   6.315   2.370
 1503TIP3    H1 4473   1.696   6.275   2.309
 1503TIP3    H2 4474   1.688   6.369   2.428
 1504TIP3   OH2 4475   6.374   3.602   4.130
 1504TIP3    H1 4476   6.409   3.690   4.143
 1504TIP3    H2 4477   6.429   3.545   4.183
 1505TIP3   OH2 4478   3.764   4.270   3.666
 1505TIP3    H1 4479   3.743   4.353   3.623
 1505TIP3    H2 4480   3.857   4.276   3.685
 1506TIP3   OH2 4481   6.651   0.968   4.882
 1506TIP3    H1 4482   6.678   1.043   4.935
 1506TIP3    H2 4483   6.680   0.891   4.931
 1507TIP3   OH2 4484   2.980   3.771   1.457
 1507TIP3    H1 4485   3.041   3.757   1.529
 1507TIP3    H2 4486   2.903   3.719   1.480
 1508TIP3   OH2 4487   5.161   1.199   1.062
 1508TIP3    H1 4488   5.181   1.160   0.976
 1508TIP3    H2 4489   5.144   1.291   1.043
 1509TIP3   OH2 4490   5.420   0.708   2.890
 1509TIP3    H1 4491   5.387   0.771   2.826
 1509TIP3    H2 4492   5.412   0.754   2.974
 1510TIP3   OH2 4493   6.467   6.401   5.329
 1510TIP3    H1 4494   6.553   6.423   5.294
 1510TIP3    H2 4495   6.484   6.333   5.394
 1511TIP3   OH2 4496   2.022   2.076   0.397
 1511TIP3    H1 4497   1.963   2.041   0.330
 1511TIP3    H2 4498   1.999   2.169   0.402
 1512TIP3   OH2 4499   5.405   3.791   2.424
 1512TIP3    H1 4500   5.381   3.728   2.356
 1512TIP3    H2 4501   5.386   3.877   2.386
 1513TIP3   OH2 4502   6.631   1.391   2.204
 1513TIP3    H1 4503   6.568   1.442   2.154
 1513TIP3    H2 4504   6.658   1.450   2.274
 1514TIP3   OH2 4505   1.941   4.785   1.082
 1514TIP3    H1 4506   1.868   4.723   1.094
 1514TIP3    H2 4507   2.004   4.760   1.149
 1515TIP3   OH2 4508   1.123   0.446   2.527
 1515TIP3    H1 4509   1.122   0.373   2.589
 1515TIP3    H2 4510   1.183   0.419   2.458
 1516TIP3   OH2 4511   5.628   2.019   2.399
 1516TIP3    H1 4512   5.598   1.928   2.388
 1516TIP3    H2 4513   5.655   2.024   2.491
 1517TIP3   OH2 4514   6.378   4.590   3.070
 1517TIP3    H1 4515   6.289   4.575   3.038
 1517TIP3    H2 4516   6.378   4.681   3.100
 1518TIP3   OH2 4517   3.530   4.682   3.865
 1518TIP3    H1 4518   3.593   4.611   3.855
 1518TIP3    H2 4519   3.582   4.757   3.895
 1519TIP3   OH2 4520   0.475   4.455   0.933
 1519TIP3    H1 4521   0.501   4.377   0.981
 1519TIP3    H2 4522   0.462   4.425   0.843
 1520TIP3   OH2 4523   1.813   6.160   3.207
 1520TIP3    H1 4524   1.741   6.188   3.264
 1520TIP3    H2 4525   1.772   6.097   3.147
 1521TIP3   OH2 4526   0.936   5.494   3.841
 1521TIP3    H1 4527   0.891   5.519   3.761
 1521TIP3    H2 4528   0.900   5.408   3.864
 1522TIP3   OH2 4529   4.164   5.976   4.540
 1522TIP3    H1 4530   4.173   5.985   4.634
 1522TIP3    H2 4531   4.135   5.886   4.527
 1523TIP3   OH2 4532   1.787   2.377   4.196
 1523TIP3    H1 4533   1.852   2.307   4.200
 1523TIP3    H2 4534   1.713   2.344   4.246
 1524TIP3   OH2 4535   3.002   2.827   5.028
 1524TIP3    H1 4536   2.983   2.870   4.945
 1524TIP3    H2 4537   2.948   2.874   5.092
 1525TIP3   OH2 4538   4.637   0.517   1.711
 1525TIP3    H1 4539   4.652   0.566   1.792
 1525TIP3    H2 4540   4.542   0.525   1.695
 1526TIP3   OH2 4541   6.156   1.372   0.405
 1526TIP3    H1 4542   6.160   1.450   0.461
 1526TIP3    H2 4543   6.213   1.309   0.448
 1527TIP3   OH2 4544   0.028   5.227   5.614
 1527TIP3    H1 4545   0.024   5.318   5.584
 1527TIP3    H2 4546   0.002   5.231   5.706
 1528TIP3   OH2 4547   6.377   0.302   4.864
 1528TIP3    H1 4548   6.387   0.219   4.912
 1528TIP3    H2 4549   6.456   0.308   4.810
 1529TIP3   OH2 4550   2.965   5.466   0.841
 1529TIP3    H1 4551   2.890   5.502   0.794
 1529TIP3    H2 4552   2.969   5.517   0.923
 1530TIP3   OH2 4553   0.177   0.156   4.691
 1530TIP3    H1 4554   0.224   0.179   4.772
 1530TIP3    H2 4555   0.117   0.229   4.677
 1531TIP3   OH2 4556   1.601   4.902   0.918
 1531TIP3    H1 4557   1.636   4.976   0.868
 1531TIP3    H2 4558   1.651   4.903   0.999
 1532TIP3   OH2 4559   4.920   2.752   5.297
 1532TIP3    H1 4560   4.998   2.723   5.344
 1532TIP3    H2 4561   4.895   2.676   5.244
 1533TIP3   OH2 4562   6.768   2.424   2.874
 1533TIP3    H1 4563   6.851   2.471   2.884
 1533TIP3    H2 4564   6.705   2.493   2.850
 1534TIP3   OH2 4565   6.494   0.599   2.491
 1534TIP3    H1 4566   6.438   0.623   2.417
 1534TIP3    H2 4567   6.434   0.584   2.564
 1535TIP3   OH2 4568   7.027   2.050   1.521
 1535TIP3    H1 4569   7.016   1.964   1.482
 1535TIP3    H2 4570   7.103   2.042   1.578
 1536TIP3   OH2 4571   3.844   5.425   4.230
 1536TIP3    H1 4572   3.803   5.338   4.230
 1536TIP3    H2 4573   3.880   5.435   4.318
 1537TIP3   OH2 4574   6.369   0.718   2.274
 1537TIP3    H1 4575   6.439   0.782   2.262
 1537TIP3    H2 4576   6.326   0.713   2.188
 1538TIP3   OH2 4577   1.175   0.796   4.866
 1538TIP3    H1 4578   1.237   0.829   4.800
 1538TIP3    H2 4579   1.091   0.832   4.840
 1539TIP3   OH2 4580   2.146   5.651   1.087
 1539TIP3    H1 4581   2.217   5.624   1.029
 1539TIP3    H2 4582   2.162   5.745   1.100
 1540TIP3   OH2 4583   6.414   1.608   1.307
 1540TIP3    H1 4584   6.342   1.576   1.252
 1540TIP3    H2 4585   6.399   1.568   1.392
 1541TIP3   OH2 4586   5.072   1.932   5.760
 1541TIP3    H1 4587   4.981   1.940   5.732
 1541TIP3    H2 4588   5.068   1.913   5.854
 1542TIP3   OH2 4589   3.387   6.527   0.320
 1542TIP3    H1 4590   3.414   6.570   0.239
 1542TIP3    H2 4591   3.333   6.592   0.365
 1543TIP3   OH2 4592   2.512   5.436   1.107
 1543TIP3    H1 4593   2.567   5.379   1.052
 1543TIP3    H2 4594   2.574   5.478   1.167
 1544TIP3   OH2 4595   0.956   2.103   1.909
 1544TIP3    H1 4596   0.985   2.065   1.826
 1544TIP3    H2 4597   0.959   2.030   1.971
 1545TIP3   OH2 4598   3.408   6.248   5.804
 1545TIP3    H1 4599   3.412   6.210   5.716
 1545TIP3    H2 4600   3.315   6.265   5.819
 1546TIP3   OH2 4601   6.012   4.487   0.478
 1546TIP3    H1 4602   6.029   4.546   0.551
 1546TIP3    H2 4603   6.085   4.424   0.481
 1547TIP3   OH2 4604   6.943   5.569   3.703
 1547TIP3    H1 4605   6.973   5.547   3.790
 1547TIP3    H2 4606   6.860   5.614   3.717
 1548TIP3   OH2 4607   4.890   6.478   2.225
 1548TIP3    H1 4608   4.896   6.526   2.307
 1548TIP3    H2 4609   4.924   6.391   2.245
 1549TIP3   OH2 4610   6.116   1.809   4.995
 1549TIP3    H1 4611   6.157   1.809   5.082
 1549TIP3    H2 4612   6.024   1.789   5.012
 1550TIP3   OH2 4613   5.905   5.162   0.326
 1550TIP3    H1 4614   5.827   5.116   0.296
 1550TIP3    H2 4615   5.872   5.232   0.382
 1551TIP3   OH2 4616   4.131   2.704   1.497
 1551TIP3    H1 4617   4.097   2.693   1.408
 1551TIP3    H2 4618   4.079   2.643   1.549
 1552TIP3   OH2 4619   2.151   5.317   2.977
 1552TIP3    H1 4620   2.057   5.321   2.960
 1552TIP3    H2 4621   2.190   5.295   2.892
 1553TIP3   OH2 4622   4.340   2.354   2.919
 1553TIP3    H1 4623   4.359   2.400   3.001
 1553TIP3    H2 4624   4.418   2.301   2.902
 1554TIP3   OH2 4625   5.148   0.023   3.381
 1554TIP3    H1 4626   5.080  -0.017   3.327
 1554TIP3    H2 4627   5.101   0.085   3.437
 1555TIP3   OH2 4628   4.884   4.264   0.848
 1555TIP3    H1 4629   4.886   4.291   0.756
 1555TIP3    H2 4630   4.852   4.342   0.895
 1556TIP3   OH2 4631   4.586   3.912   1.363
 1556TIP3    H1 4632   4.510   3.866   1.327
 1556TIP3    H2 4633   4.607   3.978   1.296
 1557TIP3   OH2 4634   1.775   4.929   1.780
 1557TIP3    H1 4635   1.702   4.987   1.799
 1557TIP3    H2 4636   1.850   4.970   1.822
 1558TIP3   OH2 4637   4.685   3.566   1.199
 1558TIP3    H1 4638   4.719   3.652   1.175
 1558TIP3    H2 4639   4.735   3.542   1.277
 1559TIP3   OH2 4640   5.286   6.642   5.200
 1559TIP3    H1 4641   5.352   6.694   5.245
 1559TIP3    H2 4642   5.327   6.617   5.117
 1560TIP3   OH2 4643   5.508   5.111   1.366
 1560TIP3    H1 4644   5.603   5.098   1.365
 1560TIP3    H2 4645   5.494   5.190   1.313
 1561TIP3   OH2 4646   0.533   2.603   0.818
 1561TIP3    H1 4647   0.608   2.631   0.869
 1561TIP3    H2 4648   0.522   2.510   0.840
 1562TIP3   OH2 4649   1.517   2.630   1.022
 1562TIP3    H1 4650   1.447   2.599   0.964
 1562TIP3    H2 4651   1.584   2.562   1.017
 1563TIP3   OH2 4652   2.811   5.087   1.301
 1563TIP3    H1 4653   2.717   5.071   1.302
 1563TIP3    H2 4654   2.822   5.169   1.349
 1564TIP3   OH2 4655   6.381   1.975   0.767
 1564TIP3    H1 4656   6.420   2.055   0.731
 1564TIP3    H2 4657   6.287   1.987   0.754
 1565TIP3   OH2 4658   1.868   5.515   2.715
 1565TIP3    H1 4659   1.858   5.538   2.622
 1565TIP3    H2 4660   1.903   5.594   2.756
 1566TIP3   OH2 4661   6.352   5.202   5.242
 1566TIP3    H1 4662   6.416   5.244   5.300
 1566TIP3    H2 4663   6.404   5.141   5.189
 1567TIP3   OH2 4664   4.076   2.929   3.029
 1567TIP3    H1 4665   4.136   3.000   3.051
 1567TIP3    H2 4666   4.050   2.892   3.113
 1568TIP3   OH2 4667   2.544   3.389   4.131
 1568TIP3    H1 4668   2.524   3.299   4.157
 1568TIP3    H2 4669   2.465   3.439   4.154
 1569TIP3   OH2 4670   2.643   6.287   2.832
 1569TIP3    H1 4671   2.700   6.216   2.862
 1569TIP3    H2 4672   2.658   6.293   2.738
 1570TIP3   OH2 4673   5.164   1.987   2.542
 1570TIP3    H1 4674   5.244   1.952   2.582
 1570TIP3    H2 4675   5.154   1.937   2.461
 1571TIP3   OH2 4676   0.797   4.460   2.880
 1571TIP3    H1 4677   0.805   4.436   2.973
 1571TIP3    H2 4678   0.823   4.553   2.878
 1572TIP3   OH2 4679   1.829   0.770   4.328
 1572TIP3    H1 4680   1.791   0.856   4.347
 1572TIP3    H2 4681   1.768   0.708   4.367
 1573TIP3   OH2 4682   7.156   0.071   1.940
 1573TIP3    H1 4683   7.132   0.137   2.004
 1573TIP3    H2 4684   7.154  -0.012   1.988
 1574TIP3   OH2 4685   6.358   0.259   4.203
 1574TIP3    H1 4686   6.400   0.223   4.125
 1574TIP3    H2 4687   6.268   0.227   4.198
 1575TIP3   OH2 4688   2.165   2.731   0.639
 1575TIP3    H1 4689   2.144   2.803   0.698
 1575TIP3    H2 4690   2.212   2.668   0.694
 1576TIP3   OH2 4691   0.296   5.918   4.010
 1576TIP3    H1 4692   0.321   5.990   4.067
 1576TIP3    H2 4693   0.343   5.935   3.928
 1577TIP3   OH2 4694   1.012   1.573   2.959
 1577TIP3    H1 4695   1.029   1.646   2.899
 1577TIP3    H2 4696   0.982   1.614   3.039
 1578TIP3   OH2 4697   5.298   3.077   1.352
 1578TIP3    H1 4698   5.256   3.136   1.414
 1578TIP3    H2 4699   5.233   3.067   1.282
 1579TIP3   OH2 4700   4.398   0.775   4.089
 1579TIP3    H1 4701   4.311   0.796   4.054
 1579TIP3    H2 4702   4.389   0.687   4.126
 1580TIP3   OH2 4703   5.216   5.295   1.594
 1580TIP3    H1 4704   5.201   5.217   1.540
 1580TIP3    H2 4705   5.311   5.308   1.591
 1581TIP3   OH2 4706   5.572   1.896   5.277
 1581TIP3    H1 4707   5.525   1.814   5.290
 1581TIP3    H2 4708   5.530   1.958   5.337
 1582TIP3   OH2 4709   3.339   3.077   3.276
 1582TIP3    H1 4710   3.329   2.982   3.274
 1582TIP3    H2 4711   3.342   3.103   3.184
 1583TIP3   OH2 4712  -0.001   4.378   1.057
 1583TIP3    H1 4713   0.056   4.378   1.134
 1583TIP3    H2 4714  -0.072   4.318   1.079
 1584TIP3   OH2 4715   6.421   0.378   3.884
 1584TIP3    H1 4716   6.373   0.441   3.938
 1584TIP3    H2 4717   6.510   0.378   3.920
 1585TIP3   OH2 4718   0.262   5.226   2.714
 1585TIP3    H1 4719   0.250   5.316   2.682
 1585TIP3    H2 4720   0.340   5.194   2.668
 1586TIP3   OH2 4721   6.827   5.244   2.365
 1586TIP3    H1 4722   6.757   5.309   2.355
 1586TIP3    H2 4723   6.787   5.162   2.338
 1587TIP3   OH2 4724   5.899   1.180   0.994
 1587TIP3    H1 4725   5.826   1.235   1.021
 1587TIP3    H2 4726   5.969   1.200   1.056
 1588TIP3   OH2 4727   7.075   5.084   2.147
 1588TIP3    H1 4728   7.049   5.160   2.199
 1588TIP3    H2 4729   7.163   5.106   2.116
 1589TIP3   OH2 4730   1.750   0.796   1.283
 1589TIP3    H1 4731   1.832   0.784   1.236
 1589TIP3    H2 4732   1.745   0.890   1.300
 1590TIP3   OH2 4733   0.595   4.151   0.901
 1590TIP3    H1 4734   0.674   4.097   0.894
 1590TIP3    H2 4735   0.550   4.118   0.978
 1591TIP3   OH2 4736   0.602   0.019   2.880
 1591TIP3    H1 4737   0.581   0.051   2.793
 1591TIP3    H2 4738   0.572   0.088   2.939
 1592TIP3   OH2 4739   6.535   3.807   4.966
 1592TIP3    H1 4740   6.547   3.787   4.873
 1592TIP3    H2 4741   6.623   3.821   5.000
 1593TIP3   OH2 4742   4.123   6.500   0.353
 1593TIP3    H1 4743   4.198   6.455   0.392
 1593TIP3    H2 4744   4.094   6.561   0.421
 1594TIP3   OH2 4745   0.085   0.829   0.729
 1594TIP3    H1 4746   0.128   0.751   0.694
 1594TIP3    H2 4747   0.001   0.833   0.683
 1595TIP3   OH2 4748   4.945   1.511   1.509
 1595TIP3    H1 4749   4.964   1.551   1.594
 1595TIP3    H2 4750   4.990   1.566   1.446
 1596TIP3   OH2 4751   6.149   1.203   5.465
 1596TIP3    H1 4752   6.089   1.243   5.402
 1596TIP3    H2 4753   6.236   1.229   5.436
 1597TIP3   OH2 4754   3.638   2.602   5.080
 1597TIP3    H1 4755   3.572   2.533   5.075
 1597TIP3    H2 4756   3.597   2.671   5.132
 1598TIP3   OH2 4757   2.481   6.218   5.018
 1598TIP3    H1 4758   2.556   6.224   4.958
 1598TIP3    H2 4759   2.426   6.293   4.995
 1599TIP3   OH2 4760   0.034   4.845   1.644
 1599TIP3    H1 4761   0.127   4.833   1.666
 1599TIP3    H2 4762  -0.003   4.757   1.646
 1600TIP3   OH2 4763   1.336   1.480   5.724
 1600TIP3    H1 4764   1.242   1.492   5.738
 1600TIP3    H2 4765   1.342   1.426   5.645
 1601TIP3   OH2 4766   1.629   2.321   3.137
 1601TIP3    H1 4767   1.656   2.348   3.224
 1601TIP3    H2 4768   1.542   2.359   3.126
 1602TIP3   OH2 4769   1.562   1.795   5.877
 1602TIP3    H1 4770   1.632   1.854   5.850
 1602TIP3    H2 4771   1.497   1.801   5.807
 1603TIP3   OH2 4772   5.368   4.295   5.697
 1603TIP3    H1 4773   5.401   4.348   5.769
 1603TIP3    H2 4774   5.278   4.323   5.685
 1604TIP3   OH2 4775   4.793   5.726   0.284
 1604TIP3    H1 4776   4.884   5.708   0.261
 1604TIP3    H2 4777   4.791   5.821   0.299
 1605TIP3   OH2 4778   0.163   5.921   5.088
 1605TIP3    H1 4779   0.103   5.867   5.036
 1605TIP3    H2 4780   0.245   5.920   5.038
 1606TIP3   OH2 4781   4.925   4.594   2.176
 1606TIP3    H1 4782   4.977   4.551   2.109
 1606TIP3    H2 4783   4.835   4.588   2.144
 1607TIP3   OH2 4784   0.353   4.925   2.087
 1607TIP3    H1 4785   0.433   4.872   2.087
 1607TIP3    H2 4786   0.357   4.973   2.004
 1608TIP3   OH2 4787   5.578   2.943   4.479
 1608TIP3    H1 4788   5.528   2.972   4.555
 1608TIP3    H2 4789   5.511   2.919   4.415
 1609TIP3   OH2 4790   4.925   5.569   4.633
 1609TIP3    H1 4791   4.948   5.481   4.603
 1609TIP3    H2 4792   4.837   5.583   4.600
 1610TIP3   OH2 4793   1.208   5.924   2.328
 1610TIP3    H1 4794   1.298   5.914   2.296
 1610TIP3    H2 4795   1.209   5.884   2.415
 1611TIP3   OH2 4796   6.119   3.504   4.092
 1611TIP3    H1 4797   6.131   3.420   4.136
 1611TIP3    H2 4798   6.203   3.549   4.101
 1612TIP3   OH2 4799   6.889   3.402   4.304
 1612TIP3    H1 4800   6.827   3.337   4.336
 1612TIP3    H2 4801   6.917   3.368   4.219
 1613TIP3   OH2 4802   0.409   0.721   2.069
 1613TIP3    H1 4803   0.495   0.746   2.034
 1613TIP3    H2 4804   0.381   0.648   2.014
 1614TIP3   OH2 4805   5.883   0.851   0.019
 1614TIP3    H1 4806   5.969   0.810   0.028
 1614TIP3    H2 4807   5.896   0.921  -0.045
 1615TIP3   OH2 4808   6.398   6.482   3.572
 1615TIP3    H1 4809   6.463   6.541   3.610
 1615TIP3    H2 4810   6.413   6.488   3.478
 1616TIP3   OH2 4811   3.256   4.787   5.765
 1616TIP3    H1 4812   3.292   4.700   5.751
 1616TIP3    H2 4813   3.162   4.778   5.748
 1617TIP3   OH2 4814   4.304   0.006   3.887
 1617TIP3    H1 4815   4.349   0.053   3.957
 1617TIP3    H2 4816   4.373  -0.043   3.842
 1618TIP3   OH2 4817   3.780   0.721   1.248
 1618TIP3    H1 4818   3.764   0.798   1.193
 1618TIP3    H2 4819   3.751   0.647   1.195
 1619TIP3   OH2 4820   1.214   6.559   2.120
 1619TIP3    H1 4821   1.222   6.655   2.121
 1619TIP3    H2 4822   1.253   6.531   2.203
 1620TIP3   OH2 4823   1.012   0.332   5.056
 1620TIP3    H1 4824   1.057   0.250   5.032
 1620TIP3    H2 4825   0.937   0.335   4.997
 1621TIP3   OH2 4826   3.289   6.738   4.968
 1621TIP3    H1 4827   3.225   6.806   4.989
 1621TIP3    H2 4828   3.237   6.665   4.935
 1622TIP3   OH2 4829   3.247   1.478   2.686
 1622TIP3    H1 4830   3.207   1.561   2.713
 1622TIP3    H2 4831   3.219   1.415   2.752
 1623TIP3   OH2 4832   5.516   6.367   0.398
 1623TIP3    H1 4833   5.580   6.302   0.368
 1623TIP3    H2 4834   5.506   6.349   0.491
 1624TIP3   OH2 4835   1.932   6.782   3.563
 1624TIP3    H1 4836   1.987   6.733   3.501
 1624TIP3    H2 4837   1.992   6.807   3.633
 1625TIP3   OH2 4838   5.015   2.637   0.596
 1625TIP3    H1 4839   4.924   2.607   0.602
 1625TIP3    H2 4840   5.039   2.621   0.505
 1626TIP3   OH2 4841   2.518   1.241   0.904
 1626TIP3    H1 4842   2.470   1.173   0.950
 1626TIP3    H2 4843   2.545   1.201   0.822
 1627TIP3   OH2 4844   3.469   4.230   1.243
 1627TIP3    H1 4845   3.509   4.158   1.194
 1627TIP3    H2 4846   3.473   4.203   1.334
 1628TIP3   OH2 4847   3.462   4.035   3.997
 1628TIP3    H1 4848   3.416   4.055   3.915
 1628TIP3    H2 4849   3.531   3.974   3.971
 1629TIP3   OH2 4850   6.993   2.535   2.703
 1629TIP3    H1 4851   6.915   2.496   2.664
 1629TIP3    H2 4852   7.041   2.461   2.739
 1630TIP3   OH2 4853   4.906   2.461   3.948
 1630TIP3    H1 4854   4.865   2.390   3.899
 1630TIP3    H2 4855   4.859   2.464   4.031
 1631TIP3   OH2 4856   5.316   3.989   1.624
 1631TIP3    H1 4857   5.355   3.955   1.544
 1631TIP3    H2 4858   5.251   3.923   1.648
 1632TIP3   OH2 4859   5.846   1.291   2.928
 1632TIP3    H1 4860   5.810   1.337   2.852
 1632TIP3    H2 4861   5.931   1.259   2.899
 1633TIP3   OH2 4862   2.897   6.462   2.139
 1633TIP3    H1 4863   2.932   6.551   2.136
 1633TIP3    H2 4864   2.974   6.406   2.145
 1634TIP3   OH2 4865   1.382   2.925   5.695
 1634TIP3    H1 4866   1.444   2.996   5.713
 1634TIP3    H2 4867   1.308   2.942   5.753
 1635TIP3   OH2 4868   3.435   0.333   2.713
 1635TIP3    H1 4869   3.481   0.381   2.644
 1635TIP3    H2 4870   3.346   0.322   2.678
 1636TIP3   OH2 4871   5.709   1.807   4.235
 1636TIP3    H1 4872   5.697   1.877   4.299
 1636TIP3    H2 4873   5.802   1.809   4.214
 1637TIP3   OH2 4874   3.684   4.786   1.902
 1637TIP3    H1 4875   3.772   4.757   1.927
 1637TIP3    H2 4876   3.639   4.801   1.985
 1638TIP3   OH2 4877   1.853   1.576   0.722
 1638TIP3    H1 4878   1.787   1.527   0.673
 1638TIP3    H2 4879   1.862   1.659   0.674
 1639TIP3   OH2 4880   1.987   0.685   2.678
 1639TIP3    H1 4881   2.063   0.683   2.737
 1639TIP3    H2 4882   2.023   0.663   2.592
 1640TIP3   OH2 4883   3.191   1.537   2.186
 1640TIP3    H1 4884   3.193   1.474   2.114
 1640TIP3    H2 4885   3.238   1.492   2.257
 1641TIP3   OH2 4886   2.311   4.024   0.057
 1641TIP3    H1 4887   2.249   3.956   0.031
 1641TIP3    H2 4888   2.394   3.977   0.072
 1642TIP3   OH2 4889   3.756   3.435   0.178
 1642TIP3    H1 4890   3.810   3.391   0.244
 1642TIP3    H2 4891   3.726   3.515   0.221
 1643TIP3   OH2 4892   6.796   0.594   4.772
 1643TIP3    H1 4893   6.841   0.648   4.707
 1643TIP3    H2 4894   6.802   0.645   4.853
 1644TIP3   OH2 4895   1.694   2.204   4.924
 1644TIP3    H1 4896   1.704   2.276   4.986
 1644TIP3    H2 4897   1.769   2.148   4.939
 1645TIP3   OH2 4898   2.018   4.880   3.194
 1645TIP3    H1 4899   2.061   4.803   3.232
 1645TIP3    H2 4900   2.027   4.948   3.262
 1646TIP3   OH2 4901   2.836   1.092   5.236
 1646TIP3    H1 4902   2.797   1.027   5.294
 1646TIP3    H2 4903   2.810   1.176   5.272
 1647TIP3   OH2 4904   6.256   6.788   2.538
 1647TIP3    H1 4905   6.224   6.721   2.478
 1647TIP3    H2 4906   6.332   6.826   2.493
 1648TIP3   OH2 4907   4.363   2.242   5.467
 1648TIP3    H1 4908   4.302   2.299   5.514
 1648TIP3    H2 4909   4.373   2.284   5.381
 1649TIP3   OH2 4910   6.302   2.529   1.686
 1649TIP3    H1 4911   6.333   2.498   1.771
 1649TIP3    H2 4912   6.271   2.618   1.703
 1650TIP3   OH2 4913   2.414   4.746   3.279
 1650TIP3    H1 4914   2.505   4.772   3.264
 1650TIP3    H2 4915   2.398   4.677   3.216
 1651TIP3   OH2 4916   6.176   3.577   2.534
 1651TIP3    H1 4917   6.265   3.556   2.508
 1651TIP3    H2 4918   6.131   3.493   2.539
 1652TIP3   OH2 4919   3.746   2.692   0.534
 1652TIP3    H1 4920   3.655   2.669   0.514
 1652TIP3    H2 4921   3.773   2.627   0.599
 1653TIP3   OH2 4922   1.869   0.586   3.751
 1653TIP3    H1 4923   1.941   0.566   3.691
 1653TIP3    H2 4924   1.912   0.621   3.829
 1654TIP3   OH2 4925   0.024   6.343   4.443
 1654TIP3    H1 4926  -0.050   6.293   4.478
 1654TIP3    H2 4927   0.000   6.361   4.352
 1655TIP3   OH2 4928   5.685   4.349   2.940
 1655TIP3    H1 4929   5.647   4.275   2.989
 1655TIP3    H2 4930   5.628   4.359   2.864
 1656TIP3   OH2 4931   3.670   0.065   3.464
 1656TIP3    H1 4932   3.678  -0.024   3.432
 1656TIP3    H2 4933   3.577   0.085   3.458
 1657TIP3   OH2 4934   2.114   6.717   4.841
 1657TIP3    H1 4935   2.113   6.805   4.878
 1657TIP3    H2 4936   2.031   6.678   4.866
 1658TIP3   OH2 4937   1.726   3.059   3.733
 1658TIP3    H1 4938   1.658   3.082   3.796
 1658TIP3    H2 4939   1.690   3.087   3.648
 1659TIP3   OH2 4940   3.797   1.536   0.296
 1659TIP3    H1 4941   3.771   1.578   0.214
 1659TIP3    H2 4942   3.780   1.602   0.363
 1660TIP3   OH2 4943   2.605   4.100   2.296
 1660TIP3    H1 4944   2.637   4.146   2.374
 1660TIP3    H2 4945   2.561   4.168   2.245
 1661TIP3   OH2 4946   0.683   3.151   1.737
 1661TIP3    H1 4947   0.592   3.123   1.732
 1661TIP3    H2 4948   0.679   3.245   1.721
 1662TIP3   OH2 4949   4.826   2.518   5.792
 1662TIP3    H1 4950   4.838   2.588   5.857
 1662TIP3    H2 4951   4.796   2.564   5.714
 1663TIP3   OH2 4952   5.707   6.733   1.283
 1663TIP3    H1 4953   5.659   6.809   1.316
 1663TIP3    H2 4954   5.654   6.658   1.310
 1664TIP3   OH2 4955   4.224   3.957   1.912
 1664TIP3    H1 4956   4.206   4.045   1.879
 1664TIP3    H2 4957   4.223   3.966   2.007
 1665TIP3   OH2 4958   4.891   3.380   2.403
 1665TIP3    H1 4959   4.861   3.466   2.431
 1665TIP3    H2 4960   4.982   3.376   2.433
 1666TIP3   OH2 4961   2.636   2.830   2.897
 1666TIP3    H1 4962   2.561   2.804   2.951
 1666TIP3    H2 4963   2.652   2.755   2.840
 1667TIP3   OH2 4964   1.173   4.850   0.926
 1667TIP3    H1 4965   1.129   4.905   0.990
 1667TIP3    H2 4966   1.116   4.851   0.850
 1668TIP3   OH2 4967   5.765   6.621   3.484
 1668TIP3    H1 4968   5.670   6.633   3.478
 1668TIP3    H2 4969   5.778   6.578   3.568
 1669TIP3   OH2 4970   4.170   2.178   2.602
 1669TIP3    H1 4971   4.189   2.131   2.520
 1669TIP3    H2 4972   4.212   2.264   2.590
 1670TIP3   OH2 4973   5.099   0.568   4.203
 1670TIP3    H1 4974   5.194   0.569   4.208
 1670TIP3    H2 4975   5.070   0.529   4.285
 1671TIP3   OH2 4976   6.950   4.113   3.500
 1671TIP3    H1 4977   6.923   4.174   3.569
 1671TIP3    H2 4978   7.002   4.167   3.439
 1672TIP3   OH2 4979   0.971   3.953   0.293
 1672TIP3    H1 4980   1.052   3.950   0.345
 1672TIP3    H2 4981   0.908   3.999   0.348
 1673TIP3   OH2 4982   2.851   4.313   1.277
 1673TIP3    H1 4983   2.861   4.222   1.304
 1673TIP3    H2 4984   2.764   4.339   1.310
 1674TIP3   OH2 4985   0.911   3.368   5.404
 1674TIP3    H1 4986   0.868   3.291   5.368
 1674TIP3    H2 4987   0.864   3.386   5.486
 1675TIP3   OH2 4988   5.056   6.518   5.075
 1675TIP3    H1 4989   5.137   6.516   5.125
 1675TIP3    H2 4990   4.992   6.475   5.131
 1676TIP3   OH2 4991   1.632   3.443   2.307
 1676TIP3    H1 4992   1.726   3.433   2.289
 1676TIP3    H2 4993   1.589   3.387   2.243
 1677TIP3   OH2 4994   4.440   1.411   5.083
 1677TIP3    H1 4995   4.406   1.493   5.119
 1677TIP3    H2 4996   4.362   1.363   5.054
 1678TIP3   OH2 4997   3.309   2.574   5.321
 1678TIP3    H1 4998   3.269   2.511   5.382
 1678TIP3    H2 4999   3.249   2.577   5.247
 1679TIP3   OH2 5000   2.696   4.001   4.053
 1679TIP3    H1 5001   2.706   4.054   3.974
 1679TIP3    H2 5002   2.756   3.928   4.041
 1680TIP3   OH2 5003   0.938   3.000   4.371
 1680TIP3    H1 5004   1.013   3.059   4.380
 1680TIP3    H2 5005   0.889   3.010   4.453
 1681TIP3   OH2 5006   6.628   0.776   2.711
 1681TIP3    H1 5007   6.539   0.771   2.747
 1681TIP3    H2 5008   6.616   0.802   2.620
 1682TIP3   OH2 5009   0.802   2.021   0.165
 1682TIP3    H1 5010   0.832   2.108   0.139
 1682TIP3    H2 5011   0.707   2.030   0.172
 1683TIP3   OH2 5012   6.052   2.758   5.491
 1683TIP3    H1 5013   6.094   2.839   5.462
 1683TIP3    H2 5014   6.091   2.690   5.436
 1684TIP3   OH2 5015   1.076   0.074   4.991
 1684TIP3    H1 5016   1.013   0.041   5.055
 1684TIP3    H2 5017   1.077   0.008   4.922
 1685TIP3   OH2 5018   5.195   2.666   3.219
 1685TIP3    H1 5019   5.202   2.660   3.124
 1685TIP3    H2 5020   5.103   2.650   3.238
 1686TIP3   OH2 5021   0.503   1.507   2.210
 1686TIP3    H1 5022   0.536   1.594   2.230
 1686TIP3    H2 5023   0.581   1.451   2.209
 1687TIP3   OH2 5024   1.838   5.181   2.973
 1687TIP3    H1 5025   1.825   5.202   3.066
 1687TIP3    H2 5026   1.796   5.096   2.961
 1688TIP3   OH2 5027   4.362   2.543   2.012
 1688TIP3    H1 5028   4.301   2.604   1.971
 1688TIP3    H2 5029   4.391   2.588   2.091
 1689TIP3   OH2 5030   2.517   2.424   1.753
 1689TIP3    H1 5031   2.500   2.470   1.836
 1689TIP3    H2 5032   2.465   2.471   1.689
 1690TIP3   OH2 5033   3.546   0.752   2.591
 1690TIP3    H1 5034   3.521   0.738   2.682
 1690TIP3    H2 5035   3.465   0.739   2.541
 1691TIP3   OH2 5036   1.152   4.326   3.955
 1691TIP3    H1 5037   1.066   4.363   3.977
 1691TIP3    H2 5038   1.208   4.353   4.027
 1692TIP3   OH2 5039   2.507   6.427   5.913
 1692TIP3    H1 5040   2.469   6.369   5.846
 1692TIP3    H2 5041   2.601   6.409   5.909
 1693TIP3   OH2 5042   4.167   5.990   1.342
 1693TIP3    H1 5043   4.118   6.044   1.280
 1693TIP3    H2 5044   4.246   6.041   1.361
 1694TIP3   OH2 5045   5.851   3.080   1.827
 1694TIP3    H1 5046   5.884   3.165   1.854
 1694TIP3    H2 5047   5.914   3.049   1.762
 1695TIP3   OH2 5048   3.715   6.659   3.337
 1695TIP3    H1 5049   3.680   6.746   3.353
 1695TIP3    H2 5050   3.775   6.643   3.410
 1696TIP3   OH2 5051   1.124   5.497   4.861
 1696TIP3    H1 5052   1.049   5.521   4.807
 1696TIP3    H2 5053   1.106   5.539   4.946
 1697TIP3   OH2 5054   4.679   5.999   4.349
 1697TIP3    H1 5055   4.622   5.969   4.279
 1697TIP3    H2 5056   4.765   6.007   4.308
 1698TIP3   OH2 5057   6.514   5.315   2.911
 1698TIP3    H1 5058   6.604   5.286   2.894
 1698TIP3    H2 5059   6.521   5.409   2.925
 1699TIP3   OH2 5060   2.588   5.347   5.646
 1699TIP3    H1 5061   2.667   5.319   5.599
 1699TIP3    H2 5062   2.516   5.304   5.601
 1700TIP3   OH2 5063   2.494   4.971   0.972
 1700TIP3    H1 5064   2.511   4.897   1.030
 1700TIP3    H2 5065   2.398   4.976   0.968
 1701TIP3   OH2 5066   2.948   3.771   1.986
 1701TIP3    H1 5067   2.938   3.819   1.903
 1701TIP3    H2 5068   2.876   3.802   2.040
 1702TIP3   OH2 5069   1.757   4.349   0.569
 1702TIP3    H1 5070   1.673   4.333   0.525
 1702TIP3    H2 5071   1.822   4.305   0.515
 1703TIP3   OH2 5072   0.202   5.771   0.525
 1703TIP3    H1 5073   0.112   5.754   0.553
 1703TIP3    H2 5074   0.231   5.844   0.580
 1704TIP3   OH2 5075   5.866   1.538   4.627
 1704TIP3    H1 5076   5.885   1.446   4.612
 1704TIP3    H2 5077   5.811   1.563   4.553
 1705TIP3   OH2 5078   4.519   3.180   0.625
 1705TIP3    H1 5079   4.597   3.234   0.614
 1705TIP3    H2 5080   4.539   3.099   0.579
 1706TIP3   OH2 5081   4.180   2.720   5.689
 1706TIP3    H1 5082   4.215   2.781   5.625
 1706TIP3    H2 5083   4.086   2.717   5.671
 1707TIP3   OH2 5084   2.228   4.416   5.427
 1707TIP3    H1 5085   2.151   4.459   5.465
 1707TIP3    H2 5086   2.292   4.413   5.499
 1708TIP3   OH2 5087   5.378   0.186   0.433
 1708TIP3    H1 5088   5.446   0.136   0.478
 1708TIP3    H2 5089   5.362   0.137   0.352
 1709TIP3   OH2 5090   4.775   3.498   3.950
 1709TIP3    H1 5091   4.862   3.535   3.934
 1709TIP3    H2 5092   4.776   3.476   4.043
 1710TIP3   OH2 5093   2.767   2.921   0.633
 1710TIP3    H1 5094   2.850   2.876   0.652
 1710TIP3    H2 5095   2.783   3.012   0.656
 1711TIP3   OH2 5096   6.033   3.013   2.939
 1711TIP3    H1 5097   6.060   2.926   2.913
 1711TIP3    H2 5098   6.113   3.053   2.975
 1712TIP3   OH2 5099   4.075   1.502   2.804
 1712TIP3    H1 5100   4.120   1.585   2.820
 1712TIP3    H2 5101   3.988   1.514   2.842
 1713TIP3   OH2 5102   2.548   5.530   0.459
 1713TIP3    H1 5103   2.558   5.625   0.461
 1713TIP3    H2 5104   2.453   5.516   0.455
 1714TIP3   OH2 5105   2.375   2.635   3.453
 1714TIP3    H1 5106   2.382   2.547   3.417
 1714TIP3    H2 5107   2.388   2.693   3.378
 1715TIP3   OH2 5108   3.171   2.021   3.179
 1715TIP3    H1 5109   3.114   2.037   3.255
 1715TIP3    H2 5110   3.207   2.107   3.158
 1716TIP3   OH2 5111   2.309   1.414   4.004
 1716TIP3    H1 5112   2.390   1.400   3.956
 1716TIP3    H2 5113   2.289   1.507   3.991
 1717TIP3   OH2 5114   7.192   1.768   1.993
 1717TIP3    H1 5115   7.214   1.856   1.961
 1717TIP3    H2 5116   7.121   1.739   1.935
 1718TIP3   OH2 5117   5.703   3.450   1.548
 1718TIP3    H1 5118   5.708   3.439   1.643
 1718TIP3    H2 5119   5.759   3.381   1.512
 1719TIP3   OH2 5120   4.532   6.009   0.369
 1719TIP3    H1 5121   4.453   6.051   0.335
 1719TIP3    H2 5122   4.566   5.958   0.295
 1720TIP3   OH2 5123   3.744   2.631   0.120
 1720TIP3    H1 5124   3.792   2.687   0.058
 1720TIP3    H2 5125   3.693   2.572   0.065
 1721TIP3   OH2 5126   3.161   5.499   1.330
 1721TIP3    H1 5127   3.226   5.543   1.275
 1721TIP3    H2 5128   3.203   5.418   1.358
 1722TIP3   OH2 5129   7.095   2.781   3.340
 1722TIP3    H1 5130   7.045   2.863   3.335
 1722TIP3    H2 5131   7.079   2.749   3.429
 1723TIP3   OH2 5132   4.142   4.536   3.612
 1723TIP3    H1 5133   4.159   4.622   3.573
 1723TIP3    H2 5134   4.102   4.485   3.541
 1724TIP3   OH2 5135   4.875   1.642   4.195
 1724TIP3    H1 5136   4.949   1.697   4.221
 1724TIP3    H2 5137   4.855   1.591   4.274
 1725TIP3   OH2 5138   6.178   1.569   3.093
 1725TIP3    H1 5139   6.216   1.488   3.058
 1725TIP3    H2 5140   6.252   1.628   3.104
 1726TIP3   OH2 5141   1.809   6.074   5.003
 1726TIP3    H1 5142   1.766   6.107   4.925
 1726TIP3    H2 5143   1.761   5.994   5.025
 1727TIP3   OH2 5144   4.084   0.004   0.769
 1727TIP3    H1 5145   4.084   0.044   0.681
 1727TIP3    H2 5146   4.107   0.077   0.827
 1728TIP3   OH2 5147   6.603   3.785   4.676
 1728TIP3    H1 5148   6.517   3.786   4.633
 1728TIP3    H2 5149   6.666   3.791   4.604
 1729TIP3   OH2 5150   6.882   0.880   2.769
 1729TIP3    H1 5151   6.945   0.811   2.746
 1729TIP3    H2 5152   6.798   0.849   2.736
 1730TIP3   OH2 5153   1.078   5.943   2.061
 1730TIP3    H1 5154   1.005   6.005   2.061
 1730TIP3    H2 5155   1.100   5.931   2.153
 1731TIP3   OH2 5156   4.362   1.255   0.205
 1731TIP3    H1 5157   4.297   1.311   0.163
 1731TIP3    H2 5158   4.330   1.244   0.294
 1732TIP3   OH2 5159   4.833   2.262   0.576
 1732TIP3    H1 5160   4.900   2.280   0.510
 1732TIP3    H2 5161   4.767   2.330   0.562
 1733TIP3   OH2 5162   3.427   6.086   0.425
 1733TIP3    H1 5163   3.446   6.000   0.389
 1733TIP3    H2 5164   3.379   6.131   0.356
 1734TIP3   OH2 5165   5.989   2.842   3.877
 1734TIP3    H1 5166   5.993   2.802   3.964
 1734TIP3    H2 5167   6.013   2.934   3.893
 1735TIP3   OH2 5168   6.835   3.652   3.574
 1735TIP3    H1 5169   6.906   3.711   3.548
 1735TIP3    H2 5170   6.756   3.697   3.546
 1736TIP3   OH2 5171   6.064   6.636   4.966
 1736TIP3    H1 5172   5.970   6.623   4.953
 1736TIP3    H2 5173   6.070   6.696   5.040
 1737TIP3   OH2 5174   0.160   6.293   2.735
 1737TIP3    H1 5175   0.169   6.201   2.761
 1737TIP3    H2 5176   0.126   6.289   2.646
 1738TIP3   OH2 5177   4.272   5.513   5.554
 1738TIP3    H1 5178   4.203   5.483   5.495
 1738TIP3    H2 5179   4.338   5.551   5.496
 1739TIP3   OH2 5180   4.130   2.398   1.211
 1739TIP3    H1 5181   4.204   2.352   1.171
 1739TIP3    H2 5182   4.056   2.339   1.200
 1740TIP3   OH2 5183   1.218   0.391   3.909
 1740TIP3    H1 5184   1.291   0.429   3.957
 1740TIP3    H2 5185   1.257   0.356   3.829
 1741TIP3   OH2 5186   2.657   5.904   3.560
 1741TIP3    H1 5187   2.563   5.919   3.560
 1741TIP3    H2 5188   2.681   5.898   3.652
 1742TIP3   OH2 5189   1.510   2.416   4.023
 1742TIP3    H1 5190   1.506   2.324   4.049
 1742TIP3    H2 5191   1.538   2.414   3.931
 1743TIP3   OH2 5192   1.687   4.694   1.144
 1743TIP3    H1 5193   1.728   4.676   1.229
 1743TIP3    H2 5194   1.597   4.719   1.166
 1744TIP3   OH2 5195   1.266   4.212   0.166
 1744TIP3    H1 5196   1.213   4.237   0.090
 1744TIP3    H2 5197   1.356   4.232   0.140
 1745TIP3   OH2 5198   2.910   5.264   1.045
 1745TIP3    H1 5199   2.843   5.200   1.022
 1745TIP3    H2 5200   2.864   5.348   1.045
 1746TIP3   OH2 5201   2.148   4.853   0.642
 1746TIP3    H1 5202   2.078   4.832   0.580
 1746TIP3    H2 5203   2.226   4.863   0.588
 1747TIP3   OH2 5204   1.384   4.475   2.907
 1747TIP3    H1 5205   1.465   4.451   2.861
 1747TIP3    H2 5206   1.407   4.473   2.999
 1748TIP3   OH2 5207   5.277   0.181   2.665
 1748TIP3    H1 5208   5.229   0.263   2.669
 1748TIP3    H2 5209   5.369   0.206   2.681
 1749TIP3   OH2 5210   1.849   4.418   3.313
 1749TIP3    H1 5211   1.939   4.422   3.281
 1749TIP3    H2 5212   1.802   4.368   3.246
 1750TIP3   OH2 5213   1.516   5.961   0.885
 1750TIP3    H1 5214   1.493   5.881   0.838
 1750TIP3    H2 5215   1.445   6.022   0.865
 1751TIP3   OH2 5216   1.779   2.765   1.399
 1751TIP3    H1 5217   1.687   2.759   1.427
 1751TIP3    H2 5218   1.827   2.710   1.460
 1752TIP3   OH2 5219   2.493   0.057   0.993
 1752TIP3    H1 5220   2.527   0.140   1.026
 1752TIP3    H2 5221   2.462   0.010   1.070
 1753TIP3   OH2 5222   2.124   1.571   4.796
 1753TIP3    H1 5223   2.174   1.574   4.877
 1753TIP3    H2 5224   2.063   1.498   4.807
 1754TIP3   OH2 5225   1.024   0.190   0.114
 1754TIP3    H1 5226   0.967   0.238   0.174
 1754TIP3    H2 5227   1.016   0.099   0.141
 1755TIP3   OH2 5228   5.092   0.781   0.956
 1755TIP3    H1 5229   5.159   0.737   1.008
 1755TIP3    H2 5230   5.110   0.753   0.866
 1756TIP3   OH2 5231   6.258   4.887   0.973
 1756TIP3    H1 5232   6.217   4.800   0.976
 1756TIP3    H2 5233   6.347   4.872   1.006
 1757TIP3   OH2 5234   2.709   5.075   1.975
 1757TIP3    H1 5235   2.775   5.013   1.944
 1757TIP3    H2 5236   2.737   5.099   2.063
 1758TIP3   OH2 5237   4.160   3.043   0.441
 1758TIP3    H1 5238   4.191   3.133   0.441
 1758TIP3    H2 5239   4.139   3.024   0.349
 1759TIP3   OH2 5240   6.475   6.729   1.503
 1759TIP3    H1 5241   6.383   6.709   1.521
 1759TIP3    H2 5242   6.524   6.684   1.572
 1760TIP3   OH2 5243   0.469   5.386   3.386
 1760TIP3    H1 5244   0.450   5.314   3.445
 1760TIP3    H2 5245   0.386   5.406   3.344
 1761TIP3   OH2 5246  -0.011   5.217   4.003
 1761TIP3    H1 5247   0.015   5.195   4.092
 1761TIP3    H2 5248   0.065   5.261   3.965
 1762TIP3   OH2 5249   6.535   3.219   5.642
 1762TIP3    H1 5250   6.451   3.242   5.681
 1762TIP3    H2 5251   6.513   3.182   5.557
 1763TIP3   OH2 5252   1.200   4.646   0.610
 1763TIP3    H1 5253   1.241   4.561   0.591
 1763TIP3    H2 5254   1.265   4.694   0.660
 1764TIP3   OH2 5255   2.652   6.275   4.662
 1764TIP3    H1 5256   2.641   6.180   4.673
 1764TIP3    H2 5257   2.703   6.283   4.582
 1765TIP3   OH2 5258   0.964   5.449   4.395
 1765TIP3    H1 5259   0.965   5.434   4.300
 1765TIP3    H2 5260   1.031   5.515   4.409
 1766TIP3   OH2 5261   6.022   2.520   3.968
 1766TIP3    H1 5262   6.099   2.475   4.003
 1766TIP3    H2 5263   6.048   2.545   3.879
 1767TIP3   OH2 5264   5.043   5.196   3.850
 1767TIP3    H1 5265   4.961   5.148   3.841
 1767TIP3    H2 5266   5.035   5.270   3.790
 1768TIP3   OH2 5267   2.437   0.030   1.936
 1768TIP3    H1 5268   2.481   0.110   1.965
 1768TIP3    H2 5269   2.503  -0.039   1.947
 1769TIP3   OH2 5270   6.143   5.880   3.950
 1769TIP3    H1 5271   6.066   5.916   3.905
 1769TIP3    H2 5272   6.166   5.946   4.015
 1770TIP3   OH2 5273   5.813   2.903   0.501
 1770TIP3    H1 5274   5.749   2.955   0.551
 1770TIP3    H2 5275   5.786   2.812   0.516
 1771TIP3   OH2 5276   0.739   1.883   1.215
 1771TIP3    H1 5277   0.797   1.847   1.148
 1771TIP3    H2 5278   0.682   1.943   1.166
 1772TIP3   OH2 5279   7.182   0.212   1.701
 1772TIP3    H1 5280   7.104   0.267   1.709
 1772TIP3    H2 5281   7.187   0.165   1.784
 1773TIP3   OH2 5282   4.912   0.429   3.945
 1773TIP3    H1 5283   4.943   0.512   3.908
 1773TIP3    H2 5284   4.965   0.363   3.902
 1774TIP3   OH2 5285   4.925   5.469   5.520
 1774TIP3    H1 5286   4.915   5.406   5.448
 1774TIP3    H2 5287   4.872   5.544   5.493
 1775TIP3   OH2 5288   5.102   6.346   0.451
 1775TIP3    H1 5289   5.154   6.422   0.426
 1775TIP3    H2 5290   5.012   6.374   0.441
 1776TIP3   OH2 5291   6.847   2.226   0.965
 1776TIP3    H1 5292   6.829   2.181   1.048
 1776TIP3    H2 5293   6.790   2.303   0.968
 1777TIP3   OH2 5294   5.944   4.155   0.435
 1777TIP3    H1 5295   5.993   4.203   0.501
 1777TIP3    H2 5296   6.011   4.111   0.383
 1778TIP3   OH2 5297   3.032   0.430   5.377
 1778TIP3    H1 5298   3.096   0.376   5.331
 1778TIP3    H2 5299   2.956   0.372   5.387
 1779TIP3   OH2 5300   4.484   3.863   3.434
 1779TIP3    H1 5301   4.466   3.806   3.510
 1779TIP3    H2 5302   4.403   3.860   3.383
 1780TIP3   OH2 5303   0.607   5.026   5.196
 1780TIP3    H1 5304   0.589   5.064   5.282
 1780TIP3    H2 5305   0.541   5.063   5.138
 1781TIP3   OH2 5306   6.515   3.623   1.852
 1781TIP3    H1 5307   6.579   3.552   1.846
 1781TIP3    H2 5308   6.528   3.674   1.772
 1782TIP3   OH2 5309   4.593   4.342   1.133
 1782TIP3    H1 5310   4.505   4.369   1.159
 1782TIP3    H2 5311   4.638   4.424   1.111
 1783TIP3   OH2 5312   3.583   1.045   4.121
 1783TIP3    H1 5313   3.660   1.102   4.129
 1783TIP3    H2 5314   3.513   1.105   4.094
 1784TIP3   OH2 5315   6.049   3.654   1.061
 1784TIP3    H1 5316   6.022   3.701   0.982
 1784TIP3    H2 5317   5.991   3.687   1.130
 1785TIP3   OH2 5318   2.485   6.072   4.694
 1785TIP3    H1 5319   2.402   6.120   4.696
 1785TIP3    H2 5320   2.484   6.019   4.774
 1786TIP3   OH2 5321   4.003   2.634   4.108
 1786TIP3    H1 5322   3.923   2.687   4.110
 1786TIP3    H2 5323   3.980   2.558   4.054
 1787TIP3   OH2 5324   6.423   3.522   5.464
 1787TIP3    H1 5325   6.416   3.606   5.419
 1787TIP3    H2 5326   6.348   3.471   5.433
 1788TIP3   OH2 5327   6.484   5.444   3.456
 1788TIP3    H1 5328   6.496   5.380   3.385
 1788TIP3    H2 5329   6.412   5.409   3.508
 1789TIP3   OH2 5330   2.947   6.426   3.268
 1789TIP3    H1 5331   3.038   6.452   3.251
 1789TIP3    H2 5332   2.904   6.437   3.183
 1790TIP3   OH2 5333   5.492   6.665   2.385
 1790TIP3    H1 5334   5.400   6.690   2.373
 1790TIP3    H2 5335   5.506   6.666   2.479
 1791TIP3   OH2 5336   1.034   6.021   2.946
 1791TIP3    H1 5337   0.997   5.936   2.972
 1791TIP3    H2 5338   1.099   5.999   2.879
 1792TIP3   OH2 5339   6.400   5.687   3.481
 1792TIP3    H1 5340   6.391   5.710   3.389
 1792TIP3    H2 5341   6.432   5.596   3.480
 1793TIP3   OH2 5342   2.946   1.964   0.009
 1793TIP3    H1 5343   2.993   2.010   0.079
 1793TIP3    H2 5344   2.916   2.034  -0.049
 1794TIP3   OH2 5345   1.604   1.873   4.567
 1794TIP3    H1 5346   1.655   1.932   4.511
 1794TIP3    H2 5347   1.574   1.803   4.508
 1795TIP3   OH2 5348   5.341   0.693   3.374
 1795TIP3    H1 5349   5.281   0.761   3.405
 1795TIP3    H2 5350   5.398   0.675   3.449
 1796TIP3   OH2 5351   5.529   2.812   3.165
 1796TIP3    H1 5352   5.532   2.720   3.192
 1796TIP3    H2 5353   5.454   2.849   3.211
 1797TIP3   OH2 5354   5.249   5.874   1.984
 1797TIP3    H1 5355   5.197   5.830   2.051
 1797TIP3    H2 5356   5.185   5.903   1.919
 1798TIP3   OH2 5357   4.101   1.479   1.218
 1798TIP3    H1 5358   4.177   1.438   1.258
 1798TIP3    H2 5359   4.133   1.563   1.186
 1799TIP3   OH2 5360   4.150   0.866   4.373
 1799TIP3    H1 5361   4.160   0.776   4.406
 1799TIP3    H2 5362   4.239   0.898   4.362
 1800TIP3   OH2 5363   5.354   2.843   3.373
 1800TIP3    H1 5364   5.277   2.792   3.346
 1800TIP3    H2 5365   5.333   2.871   3.463
 1801TIP3   OH2 5366   3.969   3.175   5.024
 1801TIP3    H1 5367   3.886   3.147   4.987
 1801TIP3    H2 5368   4.011   3.225   4.954
 1802TIP3   OH2 5369   4.889   4.418   0.185
 1802TIP3    H1 5370   4.970   4.397   0.232
 1802TIP3    H2 5371   4.827   4.352   0.215
 1803TIP3   OH2 5372   2.772   4.840   2.397
 1803TIP3    H1 5373   2.865   4.827   2.413
 1803TIP3    H2 5374   2.752   4.923   2.438
 1804TIP3   OH2 5375   0.382   5.929   4.936
 1804TIP3    H1 5376   0.404   5.945   5.028
 1804TIP3    H2 5377   0.384   6.016   4.895
 1805TIP3   OH2 5378   5.615   4.957   0.598
 1805TIP3    H1 5379   5.520   4.950   0.602
 1805TIP3    H2 5380   5.634   5.042   0.637
 1806TIP3   OH2 5381   7.089   6.151   2.968
 1806TIP3    H1 5382   7.015   6.175   3.024
 1806TIP3    H2 5383   7.162   6.140   3.029
 1807TIP3   OH2 5384   0.190   4.169   0.405
 1807TIP3    H1 5385   0.102   4.132   0.417
 1807TIP3    H2 5386   0.205   4.221   0.483
 1808TIP3   OH2 5387   6.183   5.704   3.132
 1808TIP3    H1 5388   6.106   5.686   3.185
 1808TIP3    H2 5389   6.227   5.620   3.125
 1809TIP3   OH2 5390   6.636   5.034   1.371
 1809TIP3    H1 5391   6.704   4.990   1.422
 1809TIP3    H2 5392   6.656   5.128   1.381
 1810TIP3   OH2 5393   0.202   1.731   4.435
 1810TIP3    H1 5394   0.220   1.650   4.483
 1810TIP3    H2 5395   0.132   1.707   4.374
 1811TIP3   OH2 5396   5.003   1.102   0.689
 1811TIP3    H1 5397   4.949   1.029   0.719
 1811TIP3    H2 5398   5.064   1.063   0.626
 1812TIP3   OH2 5399   6.556   6.366   2.077
 1812TIP3    H1 5400   6.631   6.347   2.134
 1812TIP3    H2 5401   6.480   6.363   2.135
 1813TIP3   OH2 5402   4.272   5.648   3.124
 1813TIP3    H1 5403   4.350   5.596   3.146
 1813TIP3    H2 5404   4.225   5.656   3.206
 1814TIP3   OH2 5405   0.959   3.570   2.589
 1814TIP3    H1 5406   1.023   3.518   2.541
 1814TIP3    H2 5407   0.967   3.541   2.679
 1815TIP3   OH2 5408   6.038   3.204   5.521
 1815TIP3    H1 5409   6.065   3.131   5.578
 1815TIP3    H2 5410   6.009   3.161   5.440
 1816TIP3   OH2 5411   1.274   4.609   1.038
 1816TIP3    H1 5412   1.247   4.603   1.130
 1816TIP3    H2 5413   1.222   4.681   1.002
 1817TIP3   OH2 5414   4.154   5.257   5.108
 1817TIP3    H1 5415   4.236   5.253   5.059
 1817TIP3    H2 5416   4.177   5.303   5.189
 1818TIP3   OH2 5417   6.698   5.803   1.254
 1818TIP3    H1 5418   6.794   5.811   1.257
 1818TIP3    H2 5419   6.671   5.869   1.191
 1819TIP3   OH2 5420   6.878   2.541   5.816
 1819TIP3    H1 5421   6.794   2.495   5.812
 1819TIP3    H2 5422   6.944   2.472   5.823
 1820TIP3   OH2 5423   5.912   3.548   3.108
 1820TIP3    H1 5424   5.930   3.455   3.100
 1820TIP3    H2 5425   5.822   3.558   3.077
 1821TIP3   OH2 5426   1.437   1.647   1.501
 1821TIP3    H1 5427   1.345   1.630   1.478
 1821TIP3    H2 5428   1.464   1.570   1.550
 1822TIP3   OH2 5429   5.465   1.225   2.264
 1822TIP3    H1 5430   5.528   1.181   2.207
 1822TIP3    H2 5431   5.492   1.317   2.264
 1823TIP3   OH2 5432   3.143   5.885   2.396
 1823TIP3    H1 5433   3.126   5.813   2.456
 1823TIP3    H2 5434   3.174   5.957   2.452
 1824TIP3   OH2 5435   2.229   3.093   2.143
 1824TIP3    H1 5436   2.204   3.177   2.103
 1824TIP3    H2 5437   2.317   3.109   2.178
 1825TIP3   OH2 5438   4.366   5.441   3.472
 1825TIP3    H1 5439   4.419   5.438   3.552
 1825TIP3    H2 5440   4.346   5.350   3.452
 1826TIP3   OH2 5441   2.977   1.443   0.275
 1826TIP3    H1 5442   2.899   1.484   0.312
 1826TIP3    H2 5443   2.998   1.496   0.198
 1827TIP3   OH2 5444   4.061   0.963   3.643
 1827TIP3    H1 5445   4.064   0.894   3.576
 1827TIP3    H2 5446   3.981   1.012   3.623
 1828TIP3   OH2 5447   0.589   0.758   5.630
 1828TIP3    H1 5448   0.642   0.700   5.576
 1828TIP3    H2 5449   0.613   0.735   5.720
 1829TIP3   OH2 5450   0.696   4.141   2.300
 1829TIP3    H1 5451   0.780   4.100   2.279
 1829TIP3    H2 5452   0.644   4.071   2.340
 1830TIP3   OH2 5453   2.002   3.083   5.844
 1830TIP3    H1 5454   1.928   3.056   5.791
 1830TIP3    H2 5455   2.057   3.005   5.851
 1831TIP3   OH2 5456   4.529   5.326   1.965
 1831TIP3    H1 5457   4.597   5.264   1.940
 1831TIP3    H2 5458   4.575   5.410   1.973
 1832TIP3   OH2 5459   1.913   5.220   1.804
 1832TIP3    H1 5460   1.849   5.250   1.739
 1832TIP3    H2 5461   1.991   5.199   1.752
 1833TIP3   OH2 5462   3.746   3.028   4.592
 1833TIP3    H1 5463   3.718   2.980   4.515
 1833TIP3    H2 5464   3.842   3.021   4.592
 1834TIP3   OH2 5465   2.886   0.350   5.146
 1834TIP3    H1 5466   2.960   0.386   5.196
 1834TIP3    H2 5467   2.875   0.262   5.181
 1835TIP3   OH2 5468   4.603   6.789   0.295
 1835TIP3    H1 5469   4.511   6.797   0.317
 1835TIP3    H2 5470   4.611   6.700   0.260
 1836TIP3   OH2 5471   6.791   0.234   5.003
 1836TIP3    H1 5472   6.821   0.274   4.921
 1836TIP3    H2 5473   6.747   0.305   5.050
 1837TIP3   OH2 5474   5.976   1.766   2.172
 1837TIP3    H1 5475   6.007   1.695   2.115
 1837TIP3    H2 5476   5.957   1.724   2.256
 1838TIP3   OH2 5477   7.157   3.398   4.395
 1838TIP3    H1 5478   7.066   3.395   4.368
 1838TIP3    H2 5479   7.199   3.325   4.350
 1839TIP3   OH2 5480   3.715   3.866   4.920
 1839TIP3    H1 5481   3.766   3.891   4.843
 1839TIP3    H2 5482   3.776   3.876   4.993
 1840TIP3   OH2 5483   2.101   5.082   2.521
 1840TIP3    H1 5484   2.068   5.134   2.594
 1840TIP3    H2 5485   2.030   5.083   2.457
 1841TIP3   OH2 5486   6.260   5.320   4.795
 1841TIP3    H1 5487   6.340   5.371   4.780
 1841TIP3    H2 5488   6.222   5.358   4.874
 1842TIP3   OH2 5489   6.444   6.310   4.053
 1842TIP3    H1 5490   6.434   6.267   3.968
 1842TIP3    H2 5491   6.477   6.242   4.111
 1843TIP3   OH2 5492   2.493   5.781   4.225
 1843TIP3    H1 5493   2.479   5.711   4.288
 1843TIP3    H2 5494   2.520   5.856   4.278
 1844TIP3   OH2 5495   4.867   1.569   0.287
 1844TIP3    H1 5496   4.774   1.566   0.309
 1844TIP3    H2 5497   4.883   1.659   0.262
 1845TIP3   OH2 5498   5.992   4.313   1.765
 1845TIP3    H1 5499   5.940   4.392   1.747
 1845TIP3    H2 5500   6.078   4.347   1.789
 1846TIP3   OH2 5501   6.014   1.409   1.760
 1846TIP3    H1 5502   5.951   1.337   1.763
 1846TIP3    H2 5503   6.099   1.366   1.755
 1847TIP3   OH2 5504   0.311   5.732   0.028
 1847TIP3    H1 5505   0.329   5.651   0.075
 1847TIP3    H2 5506   0.220   5.724  -0.001
 1848TIP3   OH2 5507   4.877   2.218   0.178
 1848TIP3    H1 5508   4.940   2.252   0.242
 1848TIP3    H2 5509   4.880   2.124   0.190
 1849TIP3   OH2 5510   3.690   3.608   4.119
 1849TIP3    H1 5511   3.637   3.654   4.054
 1849TIP3    H2 5512   3.628   3.548   4.161
 1850TIP3   OH2 5513   1.485   5.943   2.404
 1850TIP3    H1 5514   1.447   6.023   2.440
 1850TIP3    H2 5515   1.571   5.970   2.371
 1851TIP3   OH2 5516   2.419   4.784   2.530
 1851TIP3    H1 5517   2.466   4.842   2.471
 1851TIP3    H2 5518   2.487   4.727   2.568
 1852TIP3   OH2 5519   3.936   0.408   5.422
 1852TIP3    H1 5520   3.993   0.484   5.417
 1852TIP3    H2 5521   3.985   0.343   5.473
 1853TIP3   OH2 5522   0.710   2.490   0.275
 1853TIP3    H1 5523   0.662   2.412   0.305
 1853TIP3    H2 5524   0.758   2.519   0.353
 1854TIP3   OH2 5525   3.892   6.765   1.029
 1854TIP3    H1 5526   3.833   6.838   1.011
 1854TIP3    H2 5527   3.979   6.804   1.034
 1855TIP3   OH2 5528   0.801   0.884   0.501
 1855TIP3    H1 5529   0.827   0.794   0.522
 1855TIP3    H2 5530   0.774   0.921   0.585
 1856TIP3   OH2 5531   0.337   2.697   1.419
 1856TIP3    H1 5532   0.355   2.680   1.327
 1856TIP3    H2 5533   0.356   2.614   1.463
 1857TIP3   OH2 5534   5.480   6.198   3.498
 1857TIP3    H1 5535   5.523   6.279   3.524
 1857TIP3    H2 5536   5.435   6.219   3.416
 1858TIP3   OH2 5537   2.730   5.487   1.671
 1858TIP3    H1 5538   2.721   5.560   1.610
 1858TIP3    H2 5539   2.783   5.423   1.624
 1859TIP3   OH2 5540   3.400   4.734   0.581
 1859TIP3    H1 5541   3.373   4.776   0.663
 1859TIP3    H2 5542   3.347   4.654   0.576
 1860TIP3   OH2 5543   2.919   1.948   5.422
 1860TIP3    H1 5544   2.890   2.010   5.490
 1860TIP3    H2 5545   2.966   2.002   5.359
 1861TIP3   OH2 5546   0.309   3.965   0.743
 1861TIP3    H1 5547   0.381   3.907   0.716
 1861TIP3    H2 5548   0.235   3.907   0.759
 1862TIP3   OH2 5549   0.716   4.563   1.485
 1862TIP3    H1 5550   0.639   4.587   1.537
 1862TIP3    H2 5551   0.782   4.539   1.550
 1863TIP3   OH2 5552   1.980   5.617   1.299
 1863TIP3    H1 5553   2.053   5.623   1.237
 1863TIP3    H2 5554   1.958   5.708   1.319
 1864TIP3   OH2 5555   1.303   4.086   3.169
 1864TIP3    H1 5556   1.349   4.122   3.093
 1864TIP3    H2 5557   1.228   4.040   3.132
 1865TIP3   OH2 5558   4.657   4.935   0.741
 1865TIP3    H1 5559   4.651   5.013   0.795
 1865TIP3    H2 5560   4.742   4.897   0.763
 1866TIP3   OH2 5561   0.402   4.220   4.537
 1866TIP3    H1 5562   0.426   4.261   4.454
 1866TIP3    H2 5563   0.356   4.290   4.585
 1867TIP3   OH2 5564   5.819   3.813   3.283
 1867TIP3    H1 5565   5.752   3.868   3.324
 1867TIP3    H2 5566   5.770   3.741   3.243
 1868TIP3   OH2 5567   5.807   5.821   0.624
 1868TIP3    H1 5568   5.740   5.753   0.635
 1868TIP3    H2 5569   5.824   5.852   0.713
 1869TIP3   OH2 5570   4.073   0.290   3.052
 1869TIP3    H1 5571   4.033   0.336   3.125
 1869TIP3    H2 5572   4.166   0.312   3.058
 1870TIP3   OH2 5573   2.893   2.369   0.270
 1870TIP3    H1 5574   2.918   2.431   0.202
 1870TIP3    H2 5575   2.945   2.291   0.252
 1871TIP3   OH2 5576   1.656   3.154   3.498
 1871TIP3    H1 5577   1.718   3.224   3.479
 1871TIP3    H2 5578   1.571   3.192   3.479
 1872TIP3   OH2 5579   1.974   3.528   3.608
 1872TIP3    H1 5580   1.992   3.528   3.702
 1872TIP3    H2 5581   2.054   3.559   3.567
 1873TIP3   OH2 5582   6.666   3.403   3.167
 1873TIP3    H1 5583   6.760   3.415   3.180
 1873TIP3    H2 5584   6.641   3.473   3.106
 1874TIP3   OH2 5585   2.631   1.850   3.219
 1874TIP3    H1 5586   2.551   1.820   3.177
 1874TIP3    H2 5587   2.622   1.823   3.311
 1875TIP3   OH2 5588   5.053   6.464   4.814
 1875TIP3    H1 5589   4.959   6.449   4.803
 1875TIP3    H2 5590   5.060   6.517   4.893
 1876TIP3   OH2 5591   0.704   2.904   3.854
 1876TIP3    H1 5592   0.697   2.912   3.949
 1876TIP3    H2 5593   0.737   2.815   3.840
 1877TIP3   OH2 5594   2.094   6.044   4.936
 1877TIP3    H1 5595   2.002   6.038   4.964
 1877TIP3    H2 5596   2.114   5.957   4.902
 1878TIP3   OH2 5597   5.883   1.199   1.975
 1878TIP3    H1 5598   5.940   1.141   2.025
 1878TIP3    H2 5599   5.900   1.177   1.883
 1879TIP3   OH2 5600   1.641   2.799   4.311
 1879TIP3    H1 5601   1.720   2.745   4.306
 1879TIP3    H2 5602   1.569   2.738   4.296
 1880TIP3   OH2 5603   7.204   2.337   3.902
 1880TIP3    H1 5604   7.172   2.426   3.917
 1880TIP3    H2 5605   7.162   2.310   3.820
 1881TIP3   OH2 5606   2.275   5.124   5.232
 1881TIP3    H1 5607   2.357   5.073   5.233
 1881TIP3    H2 5608   2.294   5.199   5.176
 1882TIP3   OH2 5609   3.142   6.228   2.969
 1882TIP3    H1 5610   3.079   6.191   2.907
 1882TIP3    H2 5611   3.126   6.322   2.968
 1883TIP3   OH2 5612   4.377   3.707   1.746
 1883TIP3    H1 5613   4.453   3.737   1.696
 1883TIP3    H2 5614   4.362   3.617   1.715
 1884TIP3   OH2 5615   3.904   3.791   3.886
 1884TIP3    H1 5616   3.837   3.733   3.849
 1884TIP3    H2 5617   3.859   3.875   3.897
 1885TIP3   OH2 5618   4.047   4.543   4.523
 1885TIP3    H1 5619   3.976   4.482   4.504
 1885TIP3    H2 5620   4.024   4.623   4.475
 1886TIP3   OH2 5621   6.712   4.658   3.798
 1886TIP3    H1 5622   6.647   4.719   3.835
 1886TIP3    H2 5623   6.725   4.593   3.867
 1887TIP3   OH2 5624   5.456   2.125   1.317
 1887TIP3    H1 5625   5.365   2.151   1.331
 1887TIP3    H2 5626   5.494   2.197   1.267
 1888TIP3   OH2 5627   4.162   3.051   3.829
 1888TIP3    H1 5628   4.175   3.008   3.913
 1888TIP3    H2 5629   4.183   3.143   3.845
 1889TIP3   OH2 5630   5.913   3.026   3.445
 1889TIP3    H1 5631   6.005   3.034   3.419
 1889TIP3    H2 5632   5.886   2.940   3.412
 1890TIP3   OH2 5633   3.824   5.703   1.901
 1890TIP3    H1 5634   3.797   5.642   1.970
 1890TIP3    H2 5635   3.884   5.763   1.945
 1891TIP3   OH2 5636   4.446   0.202   0.148
 1891TIP3    H1 5637   4.526   0.211   0.097
 1891TIP3    H2 5638   4.384   0.263   0.107
 1892TIP3   OH2 5639   4.103   5.578   5.050
 1892TIP3    H1 5640   4.099   5.485   5.071
 1892TIP3    H2 5641   4.160   5.583   4.973
 1893TIP3   OH2 5642   4.217   1.234   0.832
 1893TIP3    H1 5643   4.163   1.304   0.797
 1893TIP3    H2 5644   4.278   1.278   0.891
 1894TIP3   OH2 5645   0.620   2.306   2.612
 1894TIP3    H1 5646   0.537   2.338   2.577
 1894TIP3    H2 5647   0.630   2.352   2.696
 1895TIP3   OH2 5648   0.340   3.085   5.055
 1895TIP3    H1 5649   0.329   3.063   4.962
 1895TIP3    H2 5650   0.421   3.041   5.081
 1896TIP3   OH2 5651   4.294   6.762   1.701
 1896TIP3    H1 5652   4.380   6.804   1.705
 1896TIP3    H2 5653   4.296   6.698   1.772
 1897TIP3   OH2 5654   5.868   3.800   4.471
 1897TIP3    H1 5655   5.884   3.826   4.562
 1897TIP3    H2 5656   5.868   3.882   4.422
 1898TIP3   OH2 5657   1.109   6.399   5.692
 1898TIP3    H1 5658   1.019   6.366   5.694
 1898TIP3    H2 5659   1.154   6.342   5.630
 1899TIP3   OH2 5660   2.371   6.726   4.303
 1899TIP3    H1 5661   2.298   6.672   4.274
 1899TIP3    H2 5662   2.330   6.800   4.348
 1900TIP3   OH2 5663   5.077   4.310   5.671
 1900TIP3    H1 5664   5.129   4.261   5.608
 1900TIP3    H2 5665   5.043   4.244   5.731
 1901TIP3   OH2 5666   3.303   2.196   3.980
 1901TIP3    H1 5667   3.277   2.287   3.994
 1901TIP3    H2 5668   3.376   2.201   3.918
 1902TIP3   OH2 5669   2.662   1.108   2.041
 1902TIP3    H1 5670   2.592   1.172   2.053
 1902TIP3    H2 5671   2.741   1.160   2.027
 1903TIP3   OH2 5672   1.548   0.471   1.757
 1903TIP3    H1 5673   1.510   0.558   1.742
 1903TIP3    H2 5674   1.472   0.414   1.773
 1904TIP3   OH2 5675   0.389   4.534   1.612
 1904TIP3    H1 5676   0.304   4.576   1.625
 1904TIP3    H2 5677   0.430   4.536   1.698
 1905TIP3   OH2 5678   4.769   6.528   3.319
 1905TIP3    H1 5679   4.830   6.457   3.342
 1905TIP3    H2 5680   4.683   6.496   3.347
 1906TIP3   OH2 5681   1.341   1.940   1.866
 1906TIP3    H1 5682   1.396   1.874   1.823
 1906TIP3    H2 5683   1.257   1.936   1.820
 1907TIP3   OH2 5684   6.724   0.971   4.294
 1907TIP3    H1 5685   6.674   0.904   4.247
 1907TIP3    H2 5686   6.713   0.949   4.386
 1908TIP3   OH2 5687   0.563   3.152   2.552
 1908TIP3    H1 5688   0.468   3.141   2.546
 1908TIP3    H2 5689   0.599   3.074   2.510
 1909TIP3   OH2 5690   6.618   5.543   3.160
 1909TIP3    H1 5691   6.609   5.497   3.244
 1909TIP3    H2 5692   6.712   5.537   3.140
 1910TIP3   OH2 5693   1.416   6.684   0.828
 1910TIP3    H1 5694   1.408   6.736   0.907
 1910TIP3    H2 5695   1.440   6.747   0.760
 1911TIP3   OH2 5696   7.082   0.893   3.133
 1911TIP3    H1 5697   7.164   0.892   3.083
 1911TIP3    H2 5698   7.110   0.892   3.224
 1912TIP3   OH2 5699   7.150   5.528   5.862
 1912TIP3    H1 5700   7.169   5.560   5.951
 1912TIP3    H2 5701   7.149   5.433   5.871
 1913TIP3   OH2 5702   5.932   2.830   5.001
 1913TIP3    H1 5703   5.895   2.918   5.006
 1913TIP3    H2 5704   5.920   2.794   5.089
 1914TIP3   OH2 5705   1.225   5.745   4.777
 1914TIP3    H1 5706   1.145   5.776   4.734
 1914TIP3    H2 5707   1.207   5.652   4.795
 1915TIP3   OH2 5708   6.617   1.710   3.479
 1915TIP3    H1 5709   6.555   1.653   3.525
 1915TIP3    H2 5710   6.583   1.717   3.390
 1916TIP3   OH2 5711   0.141   5.438   2.625
 1916TIP3    H1 5712   0.049   5.416   2.640
 1916TIP3    H2 5713   0.144   5.471   2.535
 1917TIP3   OH2 5714   1.297   6.137   2.995
 1917TIP3    H1 5715   1.226   6.112   3.054
 1917TIP3    H2 5716   1.360   6.066   3.002
 1918TIP3   OH2 5717   4.977   2.958   4.011
 1918TIP3    H1 5718   4.990   2.882   3.955
 1918TIP3    H2 5719   4.897   2.999   3.978
 1919TIP3   OH2 5720   1.625   3.675   1.551
 1919TIP3    H1 5721   1.689   3.687   1.620
 1919TIP3    H2 5722   1.556   3.738   1.570
 1920TIP3   OH2 5723   1.609   4.715   1.816
 1920TIP3    H1 5724   1.633   4.657   1.889
 1920TIP3    H2 5725   1.673   4.785   1.819
 1921TIP3   OH2 5726   0.244   6.816   5.438
 1921TIP3    H1 5727   0.181   6.750   5.465
 1921TIP3    H2 5728   0.317   6.767   5.401
 1922TIP3   OH2 5729   1.353   2.120   5.614
 1922TIP3    H1 5730   1.407   2.155   5.543
 1922TIP3    H2 5731   1.279   2.078   5.570
 1923TIP3   OH2 5732   6.554   4.961   3.324
 1923TIP3    H1 5733   6.477   5.018   3.318
 1923TIP3    H2 5734   6.620   5.014   3.368
 1924TIP3   OH2 5735   5.688   1.549   0.779
 1924TIP3    H1 5736   5.759   1.506   0.730
 1924TIP3    H2 5737   5.716   1.640   0.786
 1925TIP3   OH2 5738   3.651   0.742   3.226
 1925TIP3    H1 5739   3.650   0.651   3.256
 1925TIP3    H2 5740   3.594   0.788   3.287
 1926TIP3   OH2 5741   6.233   6.310   2.198
 1926TIP3    H1 5742   6.218   6.222   2.165
 1926TIP3    H2 5743   6.257   6.298   2.290
 1927TIP3   OH2 5744   3.469   6.673   3.630
 1927TIP3    H1 5745   3.505   6.587   3.612
 1927TIP3    H2 5746   3.415   6.693   3.554
 1928TIP3   OH2 5747   5.404   0.070   4.661
 1928TIP3    H1 5748   5.419   0.145   4.603
 1928TIP3    H2 5749   5.326   0.028   4.625
 1929TIP3   OH2 5750   0.891   5.422   0.946
 1929TIP3    H1 5751   0.797   5.404   0.958
 1929TIP3    H2 5752   0.928   5.339   0.919
 1930TIP3   OH2 5753   3.354   3.259   3.630
 1930TIP3    H1 5754   3.374   3.305   3.549
 1930TIP3    H2 5755   3.420   3.191   3.637
 1931TIP3   OH2 5756   4.120   2.474   2.837
 1931TIP3    H1 5757   4.146   2.566   2.834
 1931TIP3    H2 5758   4.203   2.426   2.847
 1932TIP3   OH2 5759   4.273   5.329   1.101
 1932TIP3    H1 5760   4.182   5.302   1.094
 1932TIP3    H2 5761   4.277   5.414   1.058
 1933TIP3   OH2 5762   7.175   5.350   3.088
 1933TIP3    H1 5763   7.206   5.438   3.068
 1933TIP3    H2 5764   7.128   5.359   3.171
 1934TIP3   OH2 5765   2.568   3.222   1.298
 1934TIP3    H1 5766   2.540   3.312   1.316
 1934TIP3    H2 5767   2.496   3.167   1.331
 1935TIP3   OH2 5768   7.267   5.688   1.666
 1935TIP3    H1 5769   7.191   5.706   1.612
 1935TIP3    H2 5770   7.231   5.656   1.749
 1936TIP3   OH2 5771   6.652   5.337   1.377
 1936TIP3    H1 5772   6.589   5.408   1.367
 1936TIP3    H2 5773   6.693   5.329   1.291
 1937TIP3   OH2 5774   0.402   6.567   3.673
 1937TIP3    H1 5775   0.454   6.573   3.594
 1937TIP3    H2 5776   0.326   6.623   3.657
 1938TIP3   OH2 5777   3.556   6.527   1.627
 1938TIP3    H1 5778   3.580   6.492   1.713
 1938TIP3    H2 5779   3.469   6.563   1.638
 1939TIP3   OH2 5780   1.435   0.669   2.425
 1939TIP3    H1 5781   1.435   0.750   2.476
 1939TIP3    H2 5782   1.459   0.601   2.489
 1940TIP3   OH2 5783   4.502   3.971   0.792
 1940TIP3    H1 5784   4.524   3.897   0.849
 1940TIP3    H2 5785   4.492   4.045   0.852
 1941TIP3   OH2 5786   1.060   5.464   1.925
 1941TIP3    H1 5787   1.150   5.434   1.935
 1941TIP3    H2 5788   1.012   5.422   1.997
 1942TIP3   OH2 5789   0.127   0.935   1.098
 1942TIP3    H1 5790   0.187   0.870   1.061
 1942TIP3    H2 5791   0.171   0.965   1.178
 1943TIP3   OH2 5792   2.348   3.531   2.233
 1943TIP3    H1 5793   2.434   3.573   2.240
 1943TIP3    H2 5794   2.320   3.519   2.324
 1944TIP3   OH2 5795   1.575   4.291   0.199
 1944TIP3    H1 5796   1.639   4.228   0.165
 1944TIP3    H2 5797   1.577   4.363   0.136
 1945TIP3   OH2 5798   6.853   5.281   1.175
 1945TIP3    H1 5799   6.930   5.225   1.185
 1945TIP3    H2 5800   6.875   5.341   1.104
 1946TIP3   OH2 5801   6.529   6.118   1.610
 1946TIP3    H1 5802   6.490   6.102   1.523
 1946TIP3    H2 5803   6.536   6.031   1.649
 1947TIP3   OH2 5804   0.773   1.335   2.964
 1947TIP3    H1 5805   0.868   1.332   2.954
 1947TIP3    H2 5806   0.739   1.330   2.875
 1948TIP3   OH2 5807   5.133   5.555   4.189
 1948TIP3    H1 5808   5.202   5.552   4.254
 1948TIP3    H2 5809   5.131   5.467   4.151
 1949TIP3   OH2 5810   5.722   6.400   5.274
 1949TIP3    H1 5811   5.747   6.382   5.183
 1949TIP3    H2 5812   5.717   6.313   5.315
 1950TIP3   OH2 5813   4.045   6.204   3.552
 1950TIP3    H1 5814   4.002   6.234   3.633
 1950TIP3    H2 5815   3.975   6.205   3.486
 1951TIP3   OH2 5816   2.809   2.866   5.244
 1951TIP3    H1 5817   2.738   2.883   5.182
 1951TIP3    H2 5818   2.766   2.829   5.321
 1952TIP3   OH2 5819   6.792   2.858   3.124
 1952TIP3    H1 5820   6.826   2.798   3.058
 1952TIP3    H2 5821   6.737   2.919   3.075
 1953TIP3   OH2 5822   4.332   4.466   0.603
 1953TIP3    H1 5823   4.336   4.399   0.672
 1953TIP3    H2 5824   4.242   4.499   0.607
 1954TIP3   OH2 5825   6.821   5.552   4.957
 1954TIP3    H1 5826   6.787   5.490   4.893
 1954TIP3    H2 5827   6.748   5.566   5.018
 1955TIP3   OH2 5828   6.863   2.264   2.612
 1955TIP3    H1 5829   6.819   2.179   2.612
 1955TIP3    H2 5830   6.954   2.244   2.630
 1956TIP3   OH2 5831   2.625   3.108   1.579
 1956TIP3    H1 5832   2.640   3.042   1.511
 1956TIP3    H2 5833   2.577   3.061   1.647
 1957TIP3   OH2 5834   4.066   4.431   0.914
 1957TIP3    H1 5835   4.130   4.376   0.959
 1957TIP3    H2 5836   3.999   4.450   0.980
 1958TIP3   OH2 5837   1.455   6.191   2.084
 1958TIP3    H1 5838   1.419   6.185   1.995
 1958TIP3    H2 5839   1.541   6.149   2.077
 1959TIP3   OH2 5840   5.077   5.549   2.427
 1959TIP3    H1 5841   5.107   5.482   2.488
 1959TIP3    H2 5842   5.033   5.501   2.358
 1960TIP3   OH2 5843   2.914   5.315   4.275
 1960TIP3    H1 5844   2.931   5.378   4.345
 1960TIP3    H2 5845   2.826   5.336   4.245
 1961TIP3   OH2 5846   5.718   0.641   1.799
 1961TIP3    H1 5847   5.624   0.627   1.807
 1961TIP3    H2 5848   5.738   0.615   1.709
 1962TIP3   OH2 5849   2.688   3.241   5.198
 1962TIP3    H1 5850   2.597   3.211   5.195
 1962TIP3    H2 5851   2.685   3.321   5.250
 1963TIP3   OH2 5852   4.616   0.211   1.368
 1963TIP3    H1 5853   4.653   0.124   1.353
 1963TIP3    H2 5854   4.641   0.232   1.458
 1964TIP3   OH2 5855   3.878   0.573   2.374
 1964TIP3    H1 5856   3.800   0.619   2.342
 1964TIP3    H2 5857   3.867   0.571   2.469
 1965TIP3   OH2 5858   0.679   4.061   4.994
 1965TIP3    H1 5859   0.592   4.089   5.026
 1965TIP3    H2 5860   0.725   4.034   5.074
 1966TIP3   OH2 5861   1.060   0.858   0.132
 1966TIP3    H1 5862   1.092   0.907   0.208
 1966TIP3    H2 5863   1.034   0.773   0.169
 1967TIP3   OH2 5864   1.269   4.737   4.234
 1967TIP3    H1 5865   1.229   4.742   4.321
 1967TIP3    H2 5866   1.304   4.648   4.228
 1968TIP3   OH2 5867   6.866   6.146   0.395
 1968TIP3    H1 5868   6.955   6.138   0.360
 1968TIP3    H2 5869   6.848   6.059   0.433
 1969TIP3   OH2 5870   1.466   4.765   1.330
 1969TIP3    H1 5871   1.457   4.804   1.417
 1969TIP3    H2 5872   1.391   4.706   1.322
 1970TIP3   OH2 5873   4.221   0.301   4.825
 1970TIP3    H1 5874   4.231   0.277   4.733
 1970TIP3    H2 5875   4.128   0.289   4.844
 1971TIP3   OH2 5876   4.223   3.842   0.043
 1971TIP3    H1 5877   4.154   3.850   0.109
 1971TIP3    H2 5878   4.283   3.776   0.079
 1972TIP3   OH2 5879   2.907   1.506   5.394
 1972TIP3    H1 5880   2.867   1.419   5.396
 1972TIP3    H2 5881   2.987   1.494   5.344
 1973TIP3   OH2 5882   3.441   0.772   2.013
 1973TIP3    H1 5883   3.475   0.860   1.993
 1973TIP3    H2 5884   3.394   0.746   1.934
 1974TIP3   OH2 5885   0.303   6.511   4.097
 1974TIP3    H1 5886   0.363   6.445   4.132
 1974TIP3    H2 5887   0.217   6.485   4.131
 1975TIP3   OH2 5888   1.821   4.057   3.552
 1975TIP3    H1 5889   1.800   3.986   3.491
 1975TIP3    H2 5890   1.917   4.061   3.551
 1976TIP3   OH2 5891   2.985   0.597   4.093
 1976TIP3    H1 5892   2.950   0.676   4.052
 1976TIP3    H2 5893   3.031   0.629   4.172
 1977TIP3   OH2 5894   3.293   3.857   0.342
 1977TIP3    H1 5895   3.304   3.916   0.416
 1977TIP3    H2 5896   3.237   3.786   0.375
 1978TIP3   OH2 5897   3.430   4.188   5.408
 1978TIP3    H1 5898   3.395   4.130   5.340
 1978TIP3    H2 5899   3.518   4.154   5.426
 1979TIP3   OH2 5900   6.918   0.198   0.158
 1979TIP3    H1 5901   6.962   0.117   0.184
 1979TIP3    H2 5902   6.895   0.241   0.240
 1980TIP3   OH2 5903   2.734   2.215   0.423
 1980TIP3    H1 5904   2.776   2.279   0.366
 1980TIP3    H2 5905   2.693   2.153   0.363
 1981TIP3   OH2 5906   7.102   4.966   2.769
 1981TIP3    H1 5907   7.156   5.045   2.775
 1981TIP3    H2 5908   7.162   4.895   2.789
 1982TIP3   OH2 5909   3.132   0.181   3.937
 1982TIP3    H1 5910   3.075   0.258   3.931
 1982TIP3    H2 5911   3.074   0.108   3.915
 1983TIP3   OH2 5912   1.850   2.396   2.126
 1983TIP3    H1 5913   1.846   2.491   2.135
 1983TIP3    H2 5914   1.778   2.374   2.067
 1984TIP3   OH2 5915   4.836   5.123   2.602
 1984TIP3    H1 5916   4.905   5.103   2.539
 1984TIP3    H2 5917   4.761   5.150   2.549
 1985TIP3   OH2 5918   5.415   1.884   4.214
 1985TIP3    H1 5919   5.335   1.856   4.259
 1985TIP3    H2 5920   5.473   1.808   4.218
 1986TIP3   OH2 5921   1.028   5.716   3.205
 1986TIP3    H1 5922   1.117   5.684   3.223
 1986TIP3    H2 5923   0.972   5.666   3.264
 1987TIP3   OH2 5924   1.356   4.683   4.911
 1987TIP3    H1 5925   1.436   4.726   4.879
 1987TIP3    H2 5926   1.388   4.608   4.962
 1988TIP3   OH2 5927   1.524   4.244   0.467
 1988TIP3    H1 5928   1.509   4.150   0.473
 1988TIP3    H2 5929   1.531   4.261   0.373
 1989TIP3   OH2 5930   6.121   4.729   4.722
 1989TIP3    H1 5931   6.145   4.677   4.798
 1989TIP3    H2 5932   6.076   4.805   4.757
 1990TIP3   OH2 5933   5.716   2.841   5.345
 1990TIP3    H1 5934   5.806   2.825   5.376
 1990TIP3    H2 5935   5.661   2.790   5.403
 1991TIP3   OH2 5936   5.015   4.900   3.534
 1991TIP3    H1 5937   4.972   4.904   3.449
 1991TIP3    H2 5938   5.036   4.991   3.554
 1992TIP3   OH2 5939   6.351   1.426   1.506
 1992TIP3    H1 5940   6.442   1.419   1.535
 1992TIP3    H2 5941   6.320   1.335   1.502
 1993TIP3   OH2 5942   6.220   2.668   0.569
 1993TIP3    H1 5943   6.265   2.592   0.607
 1993TIP3    H2 5944   6.168   2.703   0.642
 1994TIP3   OH2 5945   5.619   6.279   3.797
 1994TIP3    H1 5946   5.548   6.243   3.849
 1994TIP3    H2 5947   5.586   6.364   3.766
 1995TIP3   OH2 5948   6.370   0.112   0.511
 1995TIP3    H1 5949   6.338   0.111   0.421
 1995TIP3    H2 5950   6.378   0.020   0.535
 1996TIP3   OH2 5951   0.675   5.017   3.126
 1996TIP3    H1 5952   0.705   5.019   3.217
 1996TIP3    H2 5953   0.716   4.939   3.089
 1997TIP3   OH2 5954   5.508   4.721   3.655
 1997TIP3    H1 5955   5.567   4.792   3.630
 1997TIP3    H2 5956   5.540   4.644   3.608
 1998TIP3   OH2 5957   3.221   5.772   2.767
 1998TIP3    H1 5958   3.128   5.768   2.793
 1998TIP3    H2 5959   3.250   5.858   2.797
 1999TIP3   OH2 5960   5.470   6.048   5.278
 1999TIP3    H1 5961   5.550   6.000   5.261
 1999TIP3    H2 5962   5.401   5.981   5.279
 2000TIP3   OH2 5963   0.429   4.052   5.844
 2000TIP3    H1 5964   0.417   4.104   5.923
 2000TIP3    H2 5965   0.341   4.042   5.808
 2001TIP3   OH2 5966   0.726   0.510   2.323
 2001TIP3    H1 5967   0.788   0.497   2.395
 2001TIP3    H2 5968   0.646   0.541   2.366
 2002TIP3   OH2 5969   2.068   3.624   0.864
 2002TIP3    H1 5970   2.096   3.565   0.933
 2002TIP3    H2 5971   2.019   3.569   0.803
 2003TIP3   OH2 5972   4.050   5.660   0.728
 2003TIP3    H1 5973   4.139   5.649   0.696
 2003TIP3    H2 5974   3.998   5.600   0.674
 2004TIP3   OH2 5975   1.843   1.543   4.123
 2004TIP3    H1 5976   1.909   1.566   4.057
 2004TIP3    H2 5977   1.803   1.462   4.090
 2005TIP3   OH2 5978   1.502   0.885   3.614
 2005TIP3    H1 5979   1.581   0.913   3.659
 2005TIP3    H2 5980   1.498   0.791   3.627
 2006TIP3   OH2 5981   0.217   0.097   3.665
 2006TIP3    H1 5982   0.152   0.068   3.601
 2006TIP3    H2 5983   0.171   0.092   3.749
 2007TIP3   OH2 5984   6.116   0.081   4.166
 2007TIP3    H1 5985   6.175   0.048   4.098
 2007TIP3    H2 5986   6.032   0.038   4.148
 2008TIP3   OH2 5987   1.363   1.398   5.214
 2008TIP3    H1 5988   1.337   1.473   5.160
 2008TIP3    H2 5989   1.456   1.413   5.231
 2009TIP3   OH2 5990   3.087   1.411   5.668
 2009TIP3    H1 5991   3.098   1.485   5.728
 2009TIP3    H2 5992   3.002   1.426   5.628
 2010TIP3   OH2 5993   1.052   3.712   3.825
 2010TIP3    H1 5994   0.966   3.744   3.798
 2010TIP3    H2 5995   1.047   3.703   3.920
 2011TIP3   OH2 5996   0.251   6.289   0.043
 2011TIP3    H1 5997   0.296   6.275   0.126
 2011TIP3    H2 5998   0.321   6.294  -0.022
 2012TIP3   OH2 5999   2.863   0.976   0.997
 2012TIP3    H1 6000   2.851   0.973   0.902
 2012TIP3    H2 6001   2.781   0.942   1.033
 2013TIP3   OH2 6002   1.330   2.538   1.629
 2013TIP3    H1 6003   1.235   2.540   1.620
 2013TIP3    H2 6004   1.351   2.612   1.686
 2014TIP3   OH2 6005   1.209   1.349   0.727
 2014TIP3    H1 6006   1.227   1.282   0.793
 2014TIP3    H2 6007   1.230   1.432   0.771
 2015TIP3   OH2 6008   6.093   1.547   0.840
 2015TIP3    H1 6009   6.041   1.537   0.919
 2015TIP3    H2 6010   6.183   1.531   0.868
 2016TIP3   OH2 6011   1.962   6.370   1.340
 2016TIP3    H1 6012   1.942   6.461   1.359
 2016TIP3    H2 6013   1.994   6.334   1.423
 2017TIP3   OH2 6014   0.057   4.481   4.452
 2017TIP3    H1 6015   0.064   4.422   4.377
 2017TIP3    H2 6016   0.142   4.525   4.456
 2018TIP3   OH2 6017   4.911   3.991   4.943
 2018TIP3    H1 6018   4.840   3.967   4.884
 2018TIP3    H2 6019   4.988   3.948   4.906
 2019TIP3   OH2 6020   4.123   1.366   4.950
 2019TIP3    H1 6021   4.158   1.353   4.862
 2019TIP3    H2 6022   4.147   1.456   4.972
 2020TIP3   OH2 6023   2.812   0.206   2.248
 2020TIP3    H1 6024   2.899   0.216   2.210
 2020TIP3    H2 6025   2.799   0.111   2.255
 2021TIP3   OH2 6026   3.522   3.099   0.383
 2021TIP3    H1 6027   3.584   3.028   0.364
 2021TIP3    H2 6028   3.577   3.172   0.411
 2022TIP3   OH2 6029   5.991   1.409   2.487
 2022TIP3    H1 6030   6.002   1.502   2.464
 2022TIP3    H2 6031   6.051   1.395   2.560
 2023TIP3   OH2 6032   4.395   6.640   5.373
 2023TIP3    H1 6033   4.387   6.707   5.305
 2023TIP3    H2 6034   4.335   6.668   5.442
 2024TIP3   OH2 6035   1.503   2.146   5.370
 2024TIP3    H1 6036   1.421   2.098   5.355
 2024TIP3    H2 6037   1.500   2.220   5.310
 2025TIP3   OH2 6038   0.963   6.765   5.342
 2025TIP3    H1 6039   0.915   6.834   5.388
 2025TIP3    H2 6040   1.021   6.728   5.409
 2026TIP3   OH2 6041   1.724   4.823   4.353
 2026TIP3    H1 6042   1.771   4.905   4.367
 2026TIP3    H2 6043   1.670   4.840   4.275
 2027TIP3   OH2 6044   4.145   0.202   4.588
 2027TIP3    H1 6045   4.088   0.138   4.631
 2027TIP3    H2 6046   4.085   0.261   4.544
 2028TIP3   OH2 6047   5.343   2.144   2.342
 2028TIP3    H1 6048   5.421   2.139   2.397
 2028TIP3    H2 6049   5.280   2.086   2.385
 2029TIP3   OH2 6050   7.046   2.942   5.630
 2029TIP3    H1 6051   7.075   2.857   5.599
 2029TIP3    H2 6052   7.071   2.945   5.722
 2030TIP3   OH2 6053   6.114   1.164   0.230
 2030TIP3    H1 6054   6.020   1.146   0.237
 2030TIP3    H2 6055   6.128   1.242   0.284
 2031TIP3   OH2 6056   6.429   3.739   5.663
 2031TIP3    H1 6057   6.383   3.822   5.671
 2031TIP3    H2 6058   6.362   3.678   5.631
 2032TIP3   OH2 6059   6.683   2.353   0.206
 2032TIP3    H1 6060   6.776   2.330   0.200
 2032TIP3    H2 6061   6.639   2.285   0.154
 2033TIP3   OH2 6062   0.150   3.708   0.903
 2033TIP3    H1 6063   0.075   3.652   0.920
 2033TIP3    H2 6064   0.226   3.652   0.919
 2034TIP3   OH2 6065   0.591   6.344   5.793
 2034TIP3    H1 6066   0.551   6.290   5.861
 2034TIP3    H2 6067   0.517   6.388   5.751
 2035TIP3   OH2 6068   5.018   0.936   4.771
 2035TIP3    H1 6069   5.056   1.024   4.777
 2035TIP3    H2 6070   5.067   0.894   4.701
 2036TIP3   OH2 6071   0.323   0.818   5.164
 2036TIP3    H1 6072   0.237   0.787   5.135
 2036TIP3    H2 6073   0.386   0.762   5.118
 2037TIP3   OH2 6074   0.515   1.451   0.429
 2037TIP3    H1 6075   0.569   1.372   0.419
 2037TIP3    H2 6076   0.478   1.444   0.517
 2038TIP3   OH2 6077   4.702   1.174   5.635
 2038TIP3    H1 6078   4.782   1.212   5.601
 2038TIP3    H2 6079   4.638   1.184   5.564
 2039TIP3   OH2 6080   2.546   6.337   3.930
 2039TIP3    H1 6081   2.622   6.393   3.946
 2039TIP3    H2 6082   2.563   6.259   3.983
 2040TIP3   OH2 6083   3.334   0.452   1.211
 2040TIP3    H1 6084   3.341   0.490   1.299
 2040TIP3    H2 6085   3.251   0.404   1.211
 2041TIP3   OH2 6086   3.563   2.709   4.585
 2041TIP3    H1 6087   3.504   2.764   4.533
 2041TIP3    H2 6088   3.623   2.671   4.520
 2042TIP3   OH2 6089   4.078   4.833   5.054
 2042TIP3    H1 6090   4.157   4.834   4.999
 2042TIP3    H2 6091   4.035   4.750   5.033
 2043TIP3   OH2 6092   1.406   4.676   0.298
 2043TIP3    H1 6093   1.430   4.666   0.390
 2043TIP3    H2 6094   1.328   4.621   0.288
 2044TIP3   OH2 6095   6.750   6.309   2.805
 2044TIP3    H1 6096   6.740   6.225   2.851
 2044TIP3    H2 6097   6.663   6.350   2.811
 2045TIP3   OH2 6098   1.286   6.062   0.672
 2045TIP3    H1 6099   1.191   6.061   0.673
 2045TIP3    H2 6100   1.311   6.122   0.743
 2046TIP3   OH2 6101   2.793   2.141   4.810
 2046TIP3    H1 6102   2.774   2.112   4.899
 2046TIP3    H2 6103   2.833   2.064   4.768
 2047TIP3   OH2 6104   7.140   2.759   3.052
 2047TIP3    H1 6105   7.103   2.751   3.140
 2047TIP3    H2 6106   7.163   2.852   3.045
 2048TIP3   OH2 6107   3.056   5.218   2.332
 2048TIP3    H1 6108   3.100   5.302   2.342
 2048TIP3    H2 6109   3.102   5.175   2.260
 2049TIP3   OH2 6110   2.219   0.562   2.813
 2049TIP3    H1 6111   2.173   0.541   2.894
 2049TIP3    H2 6112   2.311   0.558   2.836
 2050TIP3   OH2 6113   7.009   2.614   3.930
 2050TIP3    H1 6114   6.956   2.690   3.956
 2050TIP3    H2 6115   7.090   2.624   3.979
 2051TIP3   OH2 6116   4.997   6.402   3.465
 2051TIP3    H1 6117   5.066   6.465   3.484
 2051TIP3    H2 6118   5.042   6.329   3.421
 2052TIP3   OH2 6119   6.164   3.434   5.404
 2052TIP3    H1 6120   6.122   3.379   5.470
 2052TIP3    H2 6121   6.098   3.499   5.381
 2053TIP3   OH2 6122   6.540   4.333   0.722
 2053TIP3    H1 6123   6.589   4.280   0.659
 2053TIP3    H2 6124   6.544   4.284   0.804
 2054TIP3   OH2 6125   2.328   3.866   2.565
 2054TIP3    H1 6126   2.394   3.910   2.619
 2054TIP3    H2 6127   2.337   3.773   2.586
 2055TIP3   OH2 6128   0.650   2.258   5.611
 2055TIP3    H1 6129   0.670   2.236   5.520
 2055TIP3    H2 6130   0.700   2.338   5.628
 2056TIP3   OH2 6131   4.218   5.237   2.048
 2056TIP3    H1 6132   4.205   5.302   1.979
 2056TIP3    H2 6133   4.244   5.157   2.002
 2057TIP3   OH2 6134   4.716   5.733   2.849
 2057TIP3    H1 6135   4.627   5.722   2.814
 2057TIP3    H2 6136   4.773   5.698   2.781
 2058TIP3   OH2 6137   3.298   5.992   2.930
 2058TIP3    H1 6138   3.263   6.081   2.928
 2058TIP3    H2 6139   3.381   5.997   2.882
 2059TIP3   OH2 6140   1.171   1.978   0.324
 2059TIP3    H1 6141   1.133   2.022   0.401
 2059TIP3    H2 6142   1.119   1.898   0.314
 2060TIP3   OH2 6143   6.010   0.986   4.138
 2060TIP3    H1 6144   6.058   1.066   4.116
 2060TIP3    H2 6145   6.011   0.935   4.057
 2061TIP3   OH2 6146   4.939   1.810   5.359
 2061TIP3    H1 6147   4.890   1.823   5.440
 2061TIP3    H2 6148   5.023   1.851   5.375
 2062TIP3   OH2 6149   6.866   1.260   4.527
 2062TIP3    H1 6150   6.837   1.318   4.597
 2062TIP3    H2 6151   6.961   1.263   4.531
 2063TIP3   OH2 6152   7.133   0.636   0.412
 2063TIP3    H1 6153   7.169   0.560   0.456
 2063TIP3    H2 6154   7.099   0.692   0.482
 2064TIP3   OH2 6155   4.447   3.323   0.245
 2064TIP3    H1 6156   4.420   3.342   0.335
 2064TIP3    H2 6157   4.477   3.408   0.210
 2065TIP3   OH2 6158   5.810   6.571   1.996
 2065TIP3    H1 6159   5.775   6.540   2.080
 2065TIP3    H2 6160   5.905   6.563   2.006
 2066TIP3   OH2 6161   5.170   5.961   2.303
 2066TIP3    H1 6162   5.265   5.973   2.305
 2066TIP3    H2 6163   5.144   5.955   2.395
 2067TIP3   OH2 6164   1.033   6.753   1.098
 2067TIP3    H1 6165   1.089   6.676   1.113
 2067TIP3    H2 6166   1.024   6.793   1.184
 2068TIP3   OH2 6167   2.541   6.530   2.893
 2068TIP3    H1 6168   2.588   6.450   2.869
 2068TIP3    H2 6169   2.499   6.559   2.813
 2069TIP3   OH2 6170   2.022   2.882   4.155
 2069TIP3    H1 6171   2.093   2.932   4.116
 2069TIP3    H2 6172   1.949   2.893   4.094
 2070TIP3   OH2 6173   2.166   1.883   2.002
 2070TIP3    H1 6174   2.107   1.823   1.956
 2070TIP3    H2 6175   2.223   1.918   1.933
 2071TIP3   OH2 6176   7.020   2.472   3.002
 2071TIP3    H1 6177   7.097   2.425   2.968
 2071TIP3    H2 6178   7.049   2.563   3.009
 2072TIP3   OH2 6179   1.394   0.237   2.717
 2072TIP3    H1 6180   1.393   0.225   2.812
 2072TIP3    H2 6181   1.314   0.195   2.686
 2073TIP3   OH2 6182   1.139   1.650   1.481
 2073TIP3    H1 6183   1.102   1.714   1.541
 2073TIP3    H2 6184   1.112   1.679   1.394
 2074TIP3   OH2 6185   6.890   0.786   3.766
 2074TIP3    H1 6186   6.946   0.741   3.829
 2074TIP3    H2 6187   6.827   0.834   3.820
 2075TIP3   OH2 6188   1.937   0.462   0.596
 2075TIP3    H1 6189   2.009   0.442   0.536
 2075TIP3    H2 6190   1.877   0.388   0.586
 2076TIP3   OH2 6191   5.933   0.975   4.813
 2076TIP3    H1 6192   6.027   0.989   4.803
 2076TIP3    H2 6193   5.922   0.880   4.808
 2077TIP3   OH2 6194   6.075   1.820   0.880
 2077TIP3    H1 6195   6.096   1.727   0.867
 2077TIP3    H2 6196   6.108   1.863   0.801
 2078TIP3   OH2 6197   2.200   4.791   5.643
 2078TIP3    H1 6198   2.208   4.826   5.554
 2078TIP3    H2 6199   2.260   4.717   5.645
 2079TIP3   OH2 6200   5.248   4.885   2.603
 2079TIP3    H1 6201   5.320   4.831   2.636
 2079TIP3    H2 6202   5.172   4.826   2.602
 2080TIP3   OH2 6203   5.299   6.570   2.626
 2080TIP3    H1 6204   5.344   6.487   2.611
 2080TIP3    H2 6205   5.237   6.577   2.553
 2081TIP3   OH2 6206   2.993   4.451   2.629
 2081TIP3    H1 6207   3.043   4.532   2.625
 2081TIP3    H2 6208   3.044   4.388   2.579
 2082TIP3   OH2 6209   2.794   3.681   3.637
 2082TIP3    H1 6210   2.868   3.726   3.596
 2082TIP3    H2 6211   2.827   3.654   3.723
 2083TIP3   OH2 6212   3.757   6.682   2.286
 2083TIP3    H1 6213   3.813   6.613   2.322
 2083TIP3    H2 6214   3.818   6.741   2.242
 2084TIP3   OH2 6215   0.149   5.446   0.841
 2084TIP3    H1 6216   0.182   5.441   0.751
 2084TIP3    H2 6217   0.067   5.396   0.839
 2085TIP3   OH2 6218   6.113   6.699   2.762
 2085TIP3    H1 6219   6.143   6.738   2.680
 2085TIP3    H2 6220   6.105   6.605   2.743
 2086TIP3   OH2 6221   4.262   4.245   0.749
 2086TIP3    H1 6222   4.186   4.301   0.767
 2086TIP3    H2 6223   4.281   4.204   0.833
 2087TIP3   OH2 6224   6.729   3.494   0.970
 2087TIP3    H1 6225   6.658   3.492   1.034
 2087TIP3    H2 6226   6.731   3.585   0.939
 2088TIP3   OH2 6227   1.941   2.122   3.191
 2088TIP3    H1 6228   1.862   2.093   3.145
 2088TIP3    H2 6229   2.005   2.136   3.121
 2089TIP3   OH2 6230   6.426   6.816   0.578
 2089TIP3    H1 6231   6.421   6.765   0.497
 2089TIP3    H2 6232   6.392   6.756   0.645
 2090TIP3   OH2 6233   2.621   3.612   0.245
 2090TIP3    H1 6234   2.684   3.590   0.313
 2090TIP3    H2 6235   2.667   3.674   0.187
 2091TIP3   OH2 6236   3.952   4.557   2.411
 2091TIP3    H1 6237   4.042   4.545   2.379
 2091TIP3    H2 6238   3.957   4.534   2.504
 2092TIP3   OH2 6239   4.490   2.886   0.364
 2092TIP3    H1 6240   4.445   2.811   0.401
 2092TIP3    H2 6241   4.571   2.893   0.415
 2093TIP3   OH2 6242   6.154   0.404   5.628
 2093TIP3    H1 6243   6.175   0.491   5.662
 2093TIP3    H2 6244   6.160   0.347   5.704
 2094TIP3   OH2 6245   2.562   2.841   2.100
 2094TIP3    H1 6246   2.493   2.827   2.165
 2094TIP3    H2 6247   2.639   2.867   2.151
 2095TIP3   OH2 6248   4.152   4.258   0.377
 2095TIP3    H1 6249   4.093   4.183   0.369
 2095TIP3    H2 6250   4.127   4.315   0.304
 2096TIP3   OH2 6251   6.454   5.770   5.778
 2096TIP3    H1 6252   6.408   5.733   5.853
 2096TIP3    H2 6253   6.492   5.694   5.733
 2097TIP3   OH2 6254   5.545   4.675   4.921
 2097TIP3    H1 6255   5.551   4.727   5.000
 2097TIP3    H2 6256   5.491   4.600   4.945
 2098TIP3   OH2 6257   3.888   6.837   2.559
 2098TIP3    H1 6258   3.873   6.743   2.563
 2098TIP3    H2 6259   3.916   6.860   2.648
 2099TIP3   OH2 6260   4.812   0.661   0.341
 2099TIP3    H1 6261   4.905   0.638   0.343
 2099TIP3    H2 6262   4.767   0.580   0.317
 2100TIP3   OH2 6263   3.902   1.110   0.910
 2100TIP3    H1 6264   3.961   1.162   0.855
 2100TIP3    H2 6265   3.875   1.170   0.979
 2101TIP3   OH2 6266   2.065   4.965   0.303
 2101TIP3    H1 6267   1.971   4.961   0.319
 2101TIP3    H2 6268   2.092   5.051   0.336
 2102TIP3   OH2 6269   3.108   2.129   1.556
 2102TIP3    H1 6270   3.094   2.180   1.477
 2102TIP3    H2 6271   3.167   2.182   1.610
 2103TIP3   OH2 6272   4.996   1.882   0.808
 2103TIP3    H1 6273   4.954   1.956   0.852
 2103TIP3    H2 6274   4.979   1.897   0.715
 2104TIP3   OH2 6275   4.010   2.652   1.209
 2104TIP3    H1 6276   4.067   2.576   1.216
 2104TIP3    H2 6277   3.971   2.646   1.122
 2105TIP3   OH2 6278   1.971   0.316   2.964
 2105TIP3    H1 6279   1.975   0.384   3.032
 2105TIP3    H2 6280   2.032   0.249   2.994
 2106TIP3   OH2 6281  -0.043   1.698   4.759
 2106TIP3    H1 6282  -0.027   1.783   4.719
 2106TIP3    H2 6283   0.039   1.676   4.803
 2107TIP3   OH2 6284  -0.023   3.848   3.978
 2107TIP3    H1 6285   0.060   3.813   3.945
 2107TIP3    H2 6286  -0.088   3.782   3.955
 2108TIP3   OH2 6287   2.863   4.167   1.655
 2108TIP3    H1 6288   2.780   4.212   1.637
 2108TIP3    H2 6289   2.873   4.106   1.582
 2109TIP3   OH2 6290   4.041   3.906   5.634
 2109TIP3    H1 6291   3.950   3.877   5.641
 2109TIP3    H2 6292   4.040   3.971   5.564
 2110TIP3   OH2 6293   2.429   2.180   4.280
 2110TIP3    H1 6294   2.439   2.144   4.191
 2110TIP3    H2 6295   2.376   2.115   4.326
 2111TIP3   OH2 6296   3.425   3.145   0.093
 2111TIP3    H1 6297   3.433   3.100   0.177
 2111TIP3    H2 6298   3.333   3.138   0.070
 2112TIP3   OH2 6299   2.080   3.381   4.427
 2112TIP3    H1 6300   2.152   3.386   4.365
 2112TIP3    H2 6301   2.085   3.462   4.477
 2113TIP3   OH2 6302   1.611   5.821   0.174
 2113TIP3    H1 6303   1.538   5.856   0.226
 2113TIP3    H2 6304   1.651   5.898   0.134
 2114TIP3   OH2 6305   3.800   4.433   2.808
 2114TIP3    H1 6306   3.752   4.378   2.869
 2114TIP3    H2 6307   3.890   4.434   2.843
 2115TIP3   OH2 6308   1.504   2.609   1.448
 2115TIP3    H1 6309   1.592   2.585   1.477
 2115TIP3    H2 6310   1.448   2.592   1.524
 2116TIP3   OH2 6311   3.180   1.994   2.162
 2116TIP3    H1 6312   3.210   2.030   2.246
 2116TIP3    H2 6313   3.088   2.019   2.158
 2117TIP3   OH2 6314   1.912   1.833   0.574
 2117TIP3    H1 6315   1.859   1.863   0.500
 2117TIP3    H2 6316   1.993   1.800   0.534
 2118TIP3   OH2 6317   5.325   3.600   1.753
 2118TIP3    H1 6318   5.373   3.678   1.783
 2118TIP3    H2 6319   5.332   3.602   1.658
 2119TIP3   OH2 6320   3.702   2.443   3.181
 2119TIP3    H1 6321   3.751   2.457   3.100
 2119TIP3    H2 6322   3.645   2.519   3.188
 2120TIP3   OH2 6323   2.419   4.342   2.929
 2120TIP3    H1 6324   2.361   4.276   2.891
 2120TIP3    H2 6325   2.371   4.376   3.004
 2121TIP3   OH2 6326   6.542   0.987   5.633
 2121TIP3    H1 6327   6.593   0.965   5.556
 2121TIP3    H2 6328   6.607   1.011   5.699
 2122TIP3   OH2 6329   2.963   3.189   5.040
 2122TIP3    H1 6330   2.883   3.198   5.093
 2122TIP3    H2 6331   2.933   3.152   4.957
 2123TIP3   OH2 6332   0.101   1.374   5.550
 2123TIP3    H1 6333   0.189   1.338   5.542
 2123TIP3    H2 6334   0.044   1.298   5.554
 2124TIP3   OH2 6335   3.800   6.502   4.381
 2124TIP3    H1 6336   3.795   6.408   4.393
 2124TIP3    H2 6337   3.780   6.538   4.468
 2125TIP3   OH2 6338   5.060   0.625   3.777
 2125TIP3    H1 6339   5.140   0.606   3.825
 2125TIP3    H2 6340   5.052   0.552   3.715
 2126TIP3   OH2 6341   3.049   5.176   1.479
 2126TIP3    H1 6342   3.065   5.082   1.478
 2126TIP3    H2 6343   3.120   5.214   1.427
 2127TIP3   OH2 6344   2.446   4.158   1.412
 2127TIP3    H1 6345   2.518   4.117   1.365
 2127TIP3    H2 6346   2.382   4.089   1.424
 2128TIP3   OH2 6347   7.073   0.836   5.141
 2128TIP3    H1 6348   7.132   0.772   5.181
 2128TIP3    H2 6349   7.053   0.799   5.055
 2129TIP3   OH2 6350   2.391   4.615   3.972
 2129TIP3    H1 6351   2.468   4.557   3.973
 2129TIP3    H2 6352   2.354   4.605   3.884
 2130TIP3   OH2 6353   3.926   0.588   0.368
 2130TIP3    H1 6354   3.960   0.576   0.280
 2130TIP3    H2 6355   4.004   0.607   0.421
 2131TIP3   OH2 6356   2.975   0.893   2.535
 2131TIP3    H1 6357   2.946   0.898   2.444
 2131TIP3    H2 6358   2.922   0.824   2.574
 2132TIP3   OH2 6359   5.740   3.777   4.116
 2132TIP3    H1 6360   5.749   3.783   4.021
 2132TIP3    H2 6361   5.828   3.795   4.149
 2133TIP3   OH2 6362   3.229   5.452   0.387
 2133TIP3    H1 6363   3.265   5.363   0.380
 2133TIP3    H2 6364   3.212   5.477   0.296
 2134TIP3   OH2 6365   5.310   2.443   1.389
 2134TIP3    H1 6366   5.308   2.527   1.434
 2134TIP3    H2 6367   5.369   2.457   1.315
 2135TIP3   OH2 6368   0.047   2.219   1.205
 2135TIP3    H1 6369   0.099   2.162   1.261
 2135TIP3    H2 6370   0.076   2.308   1.227
 2136TIP3   OH2 6371   1.690   1.974   4.273
 2136TIP3    H1 6372   1.772   1.929   4.294
 2136TIP3    H2 6373   1.678   1.962   4.179
 2137TIP3   OH2 6374   5.599   2.025   0.327
 2137TIP3    H1 6375   5.526   1.986   0.279
 2137TIP3    H2 6376   5.641   1.952   0.371
 2138TIP3   OH2 6377   5.998   5.040   1.100
 2138TIP3    H1 6378   6.056   5.092   1.154
 2138TIP3    H2 6379   6.051   5.016   1.024
 2139TIP3   OH2 6380   4.969   3.664   1.251
 2139TIP3    H1 6381   4.956   3.596   1.317
 2139TIP3    H2 6382   5.013   3.735   1.297
 2140TIP3   OH2 6383   2.460   1.434   4.465
 2140TIP3    H1 6384   2.516   1.511   4.476
 2140TIP3    H2 6385   2.477   1.404   4.376
 2141TIP3   OH2 6386   5.282   6.457   1.188
 2141TIP3    H1 6387   5.240   6.430   1.270
 2141TIP3    H2 6388   5.214   6.445   1.121
 2142TIP3   OH2 6389   4.903   6.755   3.440
 2142TIP3    H1 6390   4.835   6.821   3.434
 2142TIP3    H2 6391   4.862   6.675   3.407
 2143TIP3   OH2 6392   3.766   5.467   5.566
 2143TIP3    H1 6393   3.849   5.505   5.593
 2143TIP3    H2 6394   3.781   5.437   5.476
 2144TIP3   OH2 6395   5.565   6.761   4.283
 2144TIP3    H1 6396   5.572   6.816   4.205
 2144TIP3    H2 6397   5.544   6.822   4.354
 2145TIP3   OH2 6398   1.097   3.881   0.549
 2145TIP3    H1 6399   1.001   3.876   0.546
 2145TIP3    H2 6400   1.126   3.791   0.532
 2146TIP3   OH2 6401   6.306   4.082   2.389
 2146TIP3    H1 6402   6.309   4.109   2.297
 2146TIP3    H2 6403   6.242   4.011   2.391
 2147TIP3   OH2 6404   4.182   0.147   4.236
 2147TIP3    H1 6405   4.116   0.099   4.185
 2147TIP3    H2 6406   4.130   0.201   4.296
 2148TIP3   OH2 6407   5.134   6.552   2.828
 2148TIP3    H1 6408   5.081   6.626   2.798
 2148TIP3    H2 6409   5.200   6.540   2.760
 2149TIP3   OH2 6410   5.337   2.283   0.208
 2149TIP3    H1 6411   5.324   2.197   0.168
 2149TIP3    H2 6412   5.289   2.344   0.152
 2150TIP3   OH2 6413   5.979   5.743   4.337
 2150TIP3    H1 6414   6.051   5.706   4.388
 2150TIP3    H2 6415   6.010   5.829   4.310
 2151TIP3   OH2 6416   6.606   6.536   0.051
 2151TIP3    H1 6417   6.541   6.466   0.046
 2151TIP3    H2 6418   6.664   6.510   0.123
 2152TIP3   OH2 6419   5.897   1.992   1.203
 2152TIP3    H1 6420   5.867   2.020   1.116
 2152TIP3    H2 6421   5.850   2.048   1.264
 2153TIP3   OH2 6422   3.864   5.043   3.516
 2153TIP3    H1 6423   3.850   5.125   3.469
 2153TIP3    H2 6424   3.825   4.976   3.460
 2154TIP3   OH2 6425   2.142   4.017   2.420
 2154TIP3    H1 6426   2.124   3.983   2.333
 2154TIP3    H2 6427   2.197   3.950   2.461
 2155TIP3   OH2 6428   3.518   6.152   0.820
 2155TIP3    H1 6429   3.570   6.151   0.900
 2155TIP3    H2 6430   3.440   6.203   0.842
 2156TIP3   OH2 6431   4.214   0.336   5.206
 2156TIP3    H1 6432   4.294   0.362   5.161
 2156TIP3    H2 6433   4.194   0.249   5.172
 2157TIP3   OH2 6434   2.407   1.043   3.839
 2157TIP3    H1 6435   2.502   1.055   3.836
 2157TIP3    H2 6436   2.384   1.056   3.931
 2158TIP3   OH2 6437   5.882   6.750   2.407
 2158TIP3    H1 6438   5.910   6.663   2.436
 2158TIP3    H2 6439   5.789   6.754   2.429
 2159TIP3   OH2 6440   2.627   5.329   0.661
 2159TIP3    H1 6441   2.546   5.329   0.610
 2159TIP3    H2 6442   2.648   5.421   0.675
 2160TIP3   OH2 6443   3.658   2.360   3.872
 2160TIP3    H1 6444   3.729   2.310   3.831
 2160TIP3    H2 6445   3.583   2.300   3.870
 2161TIP3   OH2 6446   1.355   1.299   2.647
 2161TIP3    H1 6447   1.286   1.304   2.582
 2161TIP3    H2 6448   1.373   1.390   2.670
 2162TIP3   OH2 6449   0.654   0.564   4.776
 2162TIP3    H1 6450   0.670   0.604   4.691
 2162TIP3    H2 6451   0.561   0.538   4.774
 2163TIP3   OH2 6452   6.811   2.081   4.963
 2163TIP3    H1 6453   6.840   1.999   4.923
 2163TIP3    H2 6454   6.815   2.146   4.893
 2164TIP3   OH2 6455   5.826   5.950   0.904
 2164TIP3    H1 6456   5.913   5.937   0.942
 2164TIP3    H2 6457   5.772   5.882   0.944
 2165TIP3   OH2 6458   6.920   4.907   5.531
 2165TIP3    H1 6459   6.864   4.877   5.460
 2165TIP3    H2 6460   6.970   4.980   5.493
 2166TIP3   OH2 6461   1.335   4.126   1.001
 2166TIP3    H1 6462   1.350   4.111   0.908
 2166TIP3    H2 6463   1.410   4.085   1.044
 2167TIP3   OH2 6464   5.393   5.752   1.075
 2167TIP3    H1 6465   5.380   5.846   1.083
 2167TIP3    H2 6466   5.328   5.724   1.010
 2168TIP3   OH2 6467   6.976   6.469   1.414
 2168TIP3    H1 6468   6.900   6.420   1.383
 2168TIP3    H2 6469   6.941   6.525   1.483
 2169TIP3   OH2 6470   0.680   0.308   0.701
 2169TIP3    H1 6471   0.678   0.402   0.686
 2169TIP3    H2 6472   0.639   0.270   0.623
 2170TIP3   OH2 6473   2.209   5.545   3.582
 2170TIP3    H1 6474   2.301   5.569   3.597
 2170TIP3    H2 6475   2.171   5.621   3.537
 2171TIP3   OH2 6476   3.920   2.450   3.381
 2171TIP3    H1 6477   3.851   2.474   3.319
 2171TIP3    H2 6478   3.950   2.364   3.351
 2172TIP3   OH2 6479   6.168   0.524   0.433
 2172TIP3    H1 6480   6.146   0.431   0.428
 2172TIP3    H2 6481   6.086   0.567   0.458
 2173TIP3   OH2 6482   0.944   1.090   3.424
 2173TIP3    H1 6483   0.970   1.000   3.442
 2173TIP3    H2 6484   0.966   1.138   3.504
 2174TIP3   OH2 6485   5.762   2.626   2.875
 2174TIP3    H1 6486   5.680   2.584   2.902
 2174TIP3    H2 6487   5.743   2.720   2.881
 2175TIP3   OH2 6488   4.228   1.608   3.366
 2175TIP3    H1 6489   4.304   1.568   3.410
 2175TIP3    H2 6490   4.175   1.642   3.438
 2176TIP3   OH2 6491   4.584   4.822   1.672
 2176TIP3    H1 6492   4.585   4.872   1.590
 2176TIP3    H2 6493   4.644   4.749   1.657
 2177TIP3   OH2 6494   2.129   1.031   2.630
 2177TIP3    H1 6495   2.187   0.961   2.600
 2177TIP3    H2 6496   2.183   1.110   2.626
 2178TIP3   OH2 6497   4.195   4.509   2.272
 2178TIP3    H1 6498   4.186   4.562   2.193
 2178TIP3    H2 6499   4.287   4.517   2.297
 2179TIP3   OH2 6500   3.069   0.056   0.625
 2179TIP3    H1 6501   3.083   0.145   0.592
 2179TIP3    H2 6502   2.981   0.059   0.664
 2180TIP3   OH2 6503   6.561   2.635   3.557
 2180TIP3    H1 6504   6.642   2.664   3.515
 2180TIP3    H2 6505   6.492   2.684   3.513
 2181TIP3   OH2 6506   2.982   3.990   2.584
 2181TIP3    H1 6507   2.901   4.034   2.609
 2181TIP3    H2 6508   2.954   3.903   2.556
 2182TIP3   OH2 6509   5.317   4.014   0.746
 2182TIP3    H1 6510   5.309   3.944   0.811
 2182TIP3    H2 6511   5.305   4.095   0.797
 2183TIP3   OH2 6512   5.967   4.050   1.704
 2183TIP3    H1 6513   6.057   4.039   1.675
 2183TIP3    H2 6514   5.966   4.135   1.747
 2184TIP3   OH2 6515   6.887   3.678   4.245
 2184TIP3    H1 6516   6.976   3.710   4.230
 2184TIP3    H2 6517   6.897   3.583   4.252
 2185TIP3   OH2 6518   2.672   4.831   3.825
 2185TIP3    H1 6519   2.678   4.760   3.889
 2185TIP3    H2 6520   2.635   4.790   3.747
 2186TIP3   OH2 6521   2.595   0.410   0.796
 2186TIP3    H1 6522   2.555   0.493   0.770
 2186TIP3    H2 6523   2.521   0.353   0.816
 2187TIP3   OH2 6524   7.061   0.489   3.123
 2187TIP3    H1 6525   6.989   0.498   3.186
 2187TIP3    H2 6526   7.140   0.495   3.176
 2188TIP3   OH2 6527   2.660   1.806   1.676
 2188TIP3    H1 6528   2.730   1.785   1.738
 2188TIP3    H2 6529   2.698   1.872   1.618
 2189TIP3   OH2 6530   4.348   3.363   4.265
 2189TIP3    H1 6531   4.430   3.356   4.314
 2189TIP3    H2 6532   4.298   3.285   4.289
 2190TIP3   OH2 6533   0.474   5.464   2.502
 2190TIP3    H1 6534   0.465   5.395   2.436
 2190TIP3    H2 6535   0.466   5.419   2.586
 2191TIP3   OH2 6536   4.702   5.221   0.837
 2191TIP3    H1 6537   4.790   5.240   0.805
 2191TIP3    H2 6538   4.666   5.307   0.860
 2192TIP3   OH2 6539   4.597   5.460   0.922
 2192TIP3    H1 6540   4.543   5.515   0.978
 2192TIP3    H2 6541   4.598   5.505   0.837
 2193TIP3   OH2 6542   3.990   3.336   4.267
 2193TIP3    H1 6543   3.894   3.333   4.269
 2193TIP3    H2 6544   4.010   3.427   4.245
 2194TIP3   OH2 6545   6.771   6.714   3.371
 2194TIP3    H1 6546   6.835   6.643   3.373
 2194TIP3    H2 6547   6.786   6.763   3.451
 2195TIP3   OH2 6548   6.784   5.794   3.449
 2195TIP3    H1 6549   6.701   5.818   3.409
 2195TIP3    H2 6550   6.792   5.853   3.525
 2196TIP3   OH2 6551   7.002   5.497   5.239
 2196TIP3    H1 6552   7.029   5.460   5.155
 2196TIP3    H2 6553   6.929   5.555   5.218
 2197TIP3   OH2 6554   1.582   4.052   1.557
 2197TIP3    H1 6555   1.619   4.064   1.469
 2197TIP3    H2 6556   1.515   3.985   1.546
 2198TIP3   OH2 6557   2.203   3.783   3.016
 2198TIP3    H1 6558   2.167   3.727   2.947
 2198TIP3    H2 6559   2.289   3.809   2.983
 2199TIP3   OH2 6560   3.776   5.373   0.908
 2199TIP3    H1 6561   3.833   5.297   0.922
 2199TIP3    H2 6562   3.749   5.400   0.995
 2200TIP3   OH2 6563   6.823   3.175   3.487
 2200TIP3    H1 6564   6.895   3.239   3.491
 2200TIP3    H2 6565   6.749   3.220   3.526
 2201TIP3   OH2 6566   0.629   0.443   3.209
 2201TIP3    H1 6567   0.549   0.410   3.250
 2201TIP3    H2 6568   0.684   0.470   3.282
 2202TIP3   OH2 6569   2.260   5.594   0.484
 2202TIP3    H1 6570   2.217   5.591   0.399
 2202TIP3    H2 6571   2.204   5.650   0.538
 2203TIP3   OH2 6572   4.155   0.616   5.233
 2203TIP3    H1 6573   4.098   0.582   5.164
 2203TIP3    H2 6574   4.190   0.538   5.275
 2204TIP3   OH2 6575   5.976   2.558   1.397
 2204TIP3    H1 6576   5.998   2.646   1.424
 2204TIP3    H2 6577   5.932   2.519   1.473
 2205TIP3   OH2 6578   3.396   0.152   2.375
 2205TIP3    H1 6579   3.375   0.082   2.313
 2205TIP3    H2 6580   3.312   0.194   2.393
 2206TIP3   OH2 6581   0.782   6.225   1.000
 2206TIP3    H1 6582   0.688   6.227   0.981
 2206TIP3    H2 6583   0.810   6.316   0.994
 2207TIP3   OH2 6584   2.358   3.166   2.509
 2207TIP3    H1 6585   2.364   3.133   2.598
 2207TIP3    H2 6586   2.271   3.140   2.480
 2208TIP3   OH2 6587   4.949   6.633   0.860
 2208TIP3    H1 6588   4.937   6.723   0.891
 2208TIP3    H2 6589   4.864   6.609   0.823
 2209TIP3   OH2 6590   6.316   2.370   3.253
 2209TIP3    H1 6591   6.338   2.280   3.228
 2209TIP3    H2 6592   6.300   2.365   3.347
 2210TIP3   OH2 6593   2.362   2.920   5.412
 2210TIP3    H1 6594   2.407   2.843   5.446
 2210TIP3    H2 6595   2.390   2.992   5.469
 2211TIP3   OH2 6596   6.928   1.133   4.812
 2211TIP3    H1 6597   6.898   1.165   4.897
 2211TIP3    H2 6598   6.970   1.209   4.771
 2212TIP3   OH2 6599   1.053   2.703   3.667
 2212TIP3    H1 6600   1.022   2.729   3.753
 2212TIP3    H2 6601   1.146   2.725   3.667
 2213TIP3   OH2 6602   5.577   6.828   2.210
 2213TIP3    H1 6603   5.591   6.769   2.285
 2213TIP3    H2 6604   5.543   6.908   2.249
 2214TIP3   OH2 6605   3.951   5.819   1.379
 2214TIP3    H1 6606   3.924   5.848   1.466
 2214TIP3    H2 6607   4.038   5.857   1.368
 2215TIP3   OH2 6608   3.976   3.595   4.165
 2215TIP3    H1 6609   3.885   3.624   4.163
 2215TIP3    H2 6610   3.981   3.532   4.092
 2216TIP3   OH2 6611   6.876   3.092   2.690
 2216TIP3    H1 6612   6.878   3.138   2.774
 2216TIP3    H2 6613   6.788   3.107   2.657
 2217TIP3   OH2 6614   2.040   3.080   5.230
 2217TIP3    H1 6615   2.034   3.175   5.229
 2217TIP3    H2 6616   2.029   3.054   5.139
 2218TIP3   OH2 6617   6.644   3.233   3.850
 2218TIP3    H1 6618   6.669   3.280   3.771
 2218TIP3    H2 6619   6.727   3.205   3.889
 2219TIP3   OH2 6620   3.927   1.536   1.471
 2219TIP3    H1 6621   3.982   1.541   1.548
 2219TIP3    H2 6622   3.987   1.517   1.399
 2220TIP3   OH2 6623   1.768   3.985   4.933
 2220TIP3    H1 6624   1.707   3.970   5.005
 2220TIP3    H2 6625   1.715   4.025   4.864
 2221TIP3   OH2 6626   6.447   6.093   4.235
 2221TIP3    H1 6627   6.463   6.084   4.329
 2221TIP3    H2 6628   6.511   6.036   4.194
 2222TIP3   OH2 6629   3.626   1.914   4.942
 2222TIP3    H1 6630   3.624   2.009   4.954
 2222TIP3    H2 6631   3.620   1.878   5.030
 2223TIP3   OH2 6632   3.527   2.260   2.059
 2223TIP3    H1 6633   3.462   2.201   2.021
 2223TIP3    H2 6634   3.500   2.269   2.151
 2224TIP3   OH2 6635   0.447   5.882   2.805
 2224TIP3    H1 6636   0.535   5.901   2.772
 2224TIP3    H2 6637   0.458   5.805   2.861
 2225TIP3   OH2 6638   2.263   4.136   2.801
 2225TIP3    H1 6639   2.349   4.110   2.768
 2225TIP3    H2 6640   2.210   4.057   2.795
 2226TIP3   OH2 6641   6.971   6.277   0.814
 2226TIP3    H1 6642   6.895   6.328   0.843
 2226TIP3    H2 6643   7.038   6.343   0.796
 2227TIP3   OH2 6644   6.351   4.198   5.260
 2227TIP3    H1 6645   6.340   4.293   5.257
 2227TIP3    H2 6646   6.274   4.166   5.305
 2228TIP3   OH2 6647   0.680   4.810   5.370
 2228TIP3    H1 6648   0.624   4.878   5.333
 2228TIP3    H2 6649   0.766   4.828   5.333
 2229TIP3   OH2 6650   0.441   6.321   1.995
 2229TIP3    H1 6651   0.428   6.404   1.949
 2229TIP3    H2 6652   0.535   6.316   2.010
 2230TIP3   OH2 6653   2.163   2.930   0.869
 2230TIP3    H1 6654   2.073   2.927   0.902
 2230TIP3    H2 6655   2.161   2.996   0.800
 2231TIP3   OH2 6656   3.194   1.883   1.216
 2231TIP3    H1 6657   3.169   1.954   1.157
 2231TIP3    H2 6658   3.262   1.835   1.168
 2232TIP3   OH2 6659   0.746   0.875   3.833
 2232TIP3    H1 6660   0.819   0.841   3.781
 2232TIP3    H2 6661   0.787   0.919   3.907
 2233TIP3   OH2 6662   2.473   2.486   4.547
 2233TIP3    H1 6663   2.539   2.505   4.614
 2233TIP3    H2 6664   2.393   2.528   4.579
 2234TIP3   OH2 6665   5.720   1.135   5.316
 2234TIP3    H1 6666   5.718   1.067   5.384
 2234TIP3    H2 6667   5.753   1.090   5.238
 2235TIP3   OH2 6668   6.288   4.684   1.640
 2235TIP3    H1 6669   6.326   4.771   1.655
 2235TIP3    H2 6670   6.363   4.630   1.614
 2236TIP3   OH2 6671   1.731   2.035   2.803
 2236TIP3    H1 6672   1.788   2.014   2.729
 2236TIP3    H2 6673   1.695   2.121   2.782
 2237TIP3   OH2 6674   3.854   3.711   1.531
 2237TIP3    H1 6675   3.766   3.707   1.568
 2237TIP3    H2 6676   3.841   3.742   1.441
 2238TIP3   OH2 6677   0.043   6.591   3.071
 2238TIP3    H1 6678   0.001   6.549   2.996
 2238TIP3    H2 6679   0.046   6.523   3.139
 2239TIP3   OH2 6680   3.042   6.225   1.735
 2239TIP3    H1 6681   3.097   6.150   1.758
 2239TIP3    H2 6682   2.958   6.208   1.779
 2240TIP3   OH2 6683   4.408   0.098   4.618
 2240TIP3    H1 6684   4.414   0.028   4.683
 2240TIP3    H2 6685   4.315   0.109   4.603
 2241TIP3   OH2 6686   1.780   3.381   5.831
 2241TIP3    H1 6687   1.875   3.370   5.839
 2241TIP3    H2 6688   1.748   3.382   5.921
 2242TIP3   OH2 6689   5.605   1.738   3.756
 2242TIP3    H1 6690   5.695   1.726   3.725
 2242TIP3    H2 6691   5.608   1.715   3.848
 2243TIP3   OH2 6692   1.570   3.378   2.652
 2243TIP3    H1 6693   1.649   3.412   2.695
 2243TIP3    H2 6694   1.575   3.414   2.563
 2244TIP3   OH2 6695   2.227   6.128   2.562
 2244TIP3    H1 6696   2.236   6.125   2.466
 2244TIP3    H2 6697   2.288   6.197   2.589
 2245TIP3   OH2 6698   4.276   0.495   3.810
 2245TIP3    H1 6699   4.255   0.434   3.881
 2245TIP3    H2 6700   4.289   0.440   3.733
 2246TIP3   OH2 6701   4.307   5.160   4.381
 2246TIP3    H1 6702   4.388   5.135   4.424
 2246TIP3    H2 6703   4.258   5.079   4.372
 2247TIP3   OH2 6704   4.745   0.954   4.826
 2247TIP3    H1 6705   4.755   0.996   4.911
 2247TIP3    H2 6706   4.835   0.947   4.793
 2248TIP3   OH2 6707   5.560   3.932   1.995
 2248TIP3    H1 6708   5.617   4.009   1.997
 2248TIP3    H2 6709   5.549   3.912   1.902
 2249TIP3   OH2 6710   4.467   6.111   3.806
 2249TIP3    H1 6711   4.422   6.051   3.865
 2249TIP3    H2 6712   4.417   6.106   3.724
 2250TIP3   OH2 6713   2.115   5.777   3.441
 2250TIP3    H1 6714   2.072   5.855   3.405
 2250TIP3    H2 6715   2.184   5.757   3.377
 2251TIP3   OH2 6716   4.707   4.966   3.093
 2251TIP3    H1 6717   4.744   4.883   3.062
 2251TIP3    H2 6718   4.728   5.028   3.023
 2252TIP3   OH2 6719   6.064   4.897   5.387
 2252TIP3    H1 6720   6.047   4.961   5.318
 2252TIP3    H2 6721   5.980   4.886   5.432
 2253TIP3   OH2 6722   3.156   5.871   1.865
 2253TIP3    H1 6723   3.163   5.777   1.884
 2253TIP3    H2 6724   3.062   5.887   1.864
 2254TIP3   OH2 6725   3.362   1.854   4.923
 2254TIP3    H1 6726   3.445   1.900   4.920
 2254TIP3    H2 6727   3.386   1.761   4.926
 2255TIP3   OH2 6728   0.786   4.395   5.062
 2255TIP3    H1 6729   0.697   4.390   5.095
 2255TIP3    H2 6730   0.841   4.370   5.136
 2256TIP3   OH2 6731   5.490   0.447   2.841
 2256TIP3    H1 6732   5.565   0.454   2.901
 2256TIP3    H2 6733   5.472   0.537   2.814
 2257TIP3   OH2 6734   1.187   0.432   5.267
 2257TIP3    H1 6735   1.180   0.359   5.205
 2257TIP3    H2 6736   1.194   0.510   5.211
 2258TIP3   OH2 6737   4.698   6.203   2.279
 2258TIP3    H1 6738   4.706   6.240   2.367
 2258TIP3    H2 6739   4.783   6.163   2.262
 2259TIP3   OH2 6740   0.742   2.467   3.772
 2259TIP3    H1 6741   0.739   2.374   3.796
 2259TIP3    H2 6742   0.754   2.466   3.677
 2260TIP3   OH2 6743   6.384   1.360   5.040
 2260TIP3    H1 6744   6.318   1.292   5.045
 2260TIP3    H2 6745   6.407   1.366   4.947
 2261TIP3   OH2 6746   6.341   0.544   2.711
 2261TIP3    H1 6747   6.352   0.636   2.736
 2261TIP3    H2 6748   6.266   0.515   2.763
 2262TIP3   OH2 6749   4.199   5.412   2.734
 2262TIP3    H1 6750   4.114   5.417   2.691
 2262TIP3    H2 6751   4.246   5.489   2.704
 2263TIP3   OH2 6752   5.582   5.023   5.680
 2263TIP3    H1 6753   5.574   5.114   5.707
 2263TIP3    H2 6754   5.493   4.989   5.680
 2264TIP3   OH2 6755   2.340   3.939   1.207
 2264TIP3    H1 6756   2.384   3.854   1.198
 2264TIP3    H2 6757   2.312   3.940   1.299
 2265TIP3   OH2 6758   0.679   3.560   5.033
 2265TIP3    H1 6759   0.648   3.522   4.951
 2265TIP3    H2 6760   0.674   3.488   5.096
 2266TIP3   OH2 6761   4.039   5.208   2.882
 2266TIP3    H1 6762   4.013   5.123   2.847
 2266TIP3    H2 6763   4.125   5.224   2.843
 2267TIP3   OH2 6764   5.453   3.996   4.551
 2267TIP3    H1 6765   5.441   3.903   4.532
 2267TIP3    H2 6766   5.431   4.041   4.470
 2268TIP3   OH2 6767   1.344   5.076   0.429
 2268TIP3    H1 6768   1.345   5.077   0.525
 2268TIP3    H2 6769   1.251   5.082   0.406
 2269TIP3   OH2 6770   6.400   4.924   1.741
 2269TIP3    H1 6771   6.488   4.960   1.734
 2269TIP3    H2 6772   6.394   4.893   1.832
 2270TIP3   OH2 6773   5.825   2.422   1.086
 2270TIP3    H1 6774   5.810   2.492   1.022
 2270TIP3    H2 6775   5.892   2.367   1.046
 2271TIP3   OH2 6776   4.691   3.415   2.112
 2271TIP3    H1 6777   4.669   3.428   2.020
 2271TIP3    H2 6778   4.736   3.330   2.114
 2272TIP3   OH2 6779   4.179   1.574   5.419
 2272TIP3    H1 6780   4.177   1.481   5.394
 2272TIP3    H2 6781   4.100   1.586   5.470
 2273TIP3   OH2 6782   3.277   0.892   3.113
 2273TIP3    H1 6783   3.290   0.914   3.020
 2273TIP3    H2 6784   3.205   0.830   3.113
 2274TIP3   OH2 6785   0.624   4.827   4.333
 2274TIP3    H1 6786   0.536   4.796   4.310
 2274TIP3    H2 6787   0.658   4.864   4.251
 2275TIP3   OH2 6788   2.931   4.280   3.909
 2275TIP3    H1 6789   2.971   4.202   3.870
 2275TIP3    H2 6790   2.982   4.353   3.873
 2276TIP3   OH2 6791   0.236   3.889   5.164
 2276TIP3    H1 6792   0.172   3.838   5.212
 2276TIP3    H2 6793   0.271   3.829   5.099
 2277TIP3   OH2 6794   1.049   4.573   0.036
 2277TIP3    H1 6795   1.107   4.522  -0.021
 2277TIP3    H2 6796   1.094   4.657   0.047
 2278TIP3   OH2 6797   3.312   4.384   3.311
 2278TIP3    H1 6798   3.339   4.329   3.384
 2278TIP3    H2 6799   3.307   4.472   3.348
 2279TIP3   OH2 6800   0.407   2.733   5.411
 2279TIP3    H1 6801   0.318   2.708   5.384
 2279TIP3    H2 6802   0.439   2.657   5.459
 2280TIP3   OH2 6803   1.901   0.359   3.973
 2280TIP3    H1 6804   1.831   0.420   3.997
 2280TIP3    H2 6805   1.869   0.274   4.001
 2281TIP3   OH2 6806   2.129   3.827   0.411
 2281TIP3    H1 6807   2.093   3.841   0.498
 2281TIP3    H2 6808   2.223   3.835   0.421
 2282TIP3   OH2 6809   4.584   3.349   1.836
 2282TIP3    H1 6810   4.498   3.308   1.845
 2282TIP3    H2 6811   4.645   3.284   1.869
 2283TIP3   OH2 6812   0.880   0.624   0.869
 2283TIP3    H1 6813   0.941   0.556   0.897
 2283TIP3    H2 6814   0.800   0.607   0.919
 2284TIP3   OH2 6815   4.860   2.041   2.521
 2284TIP3    H1 6816   4.917   2.012   2.592
 2284TIP3    H2 6817   4.811   2.115   2.558
 2285TIP3   OH2 6818   1.764   4.681   2.126
 2285TIP3    H1 6819   1.730   4.749   2.184
 2285TIP3    H2 6820   1.831   4.637   2.178
 2286TIP3   OH2 6821   1.791   1.257   4.028
 2286TIP3    H1 6822   1.789   1.163   4.047
 2286TIP3    H2 6823   1.871   1.270   3.977
 2287TIP3   OH2 6824   3.962   2.502   0.217
 2287TIP3    H1 6825   3.885   2.556   0.200
 2287TIP3    H2 6826   3.954   2.429   0.156
 2288TIP3   OH2 6827   1.793   1.046   0.143
 2288TIP3    H1 6828   1.701   1.067   0.128
 2288TIP3    H2 6829   1.797   1.025   0.236
 2289TIP3   OH2 6830   5.262   4.243   2.859
 2289TIP3    H1 6831   5.343   4.204   2.892
 2289TIP3    H2 6832   5.192   4.191   2.899
 2290TIP3   OH2 6833   6.896   5.573   1.347
 2290TIP3    H1 6834   6.928   5.498   1.396
 2290TIP3    H2 6835   6.831   5.536   1.287
 2291TIP3   OH2 6836   6.868   5.900   3.704
 2291TIP3    H1 6837   6.917   5.938   3.777
 2291TIP3    H2 6838   6.777   5.920   3.724
 2292TIP3   OH2 6839   1.915   1.217   5.344
 2292TIP3    H1 6840   1.908   1.175   5.259
 2292TIP3    H2 6841   1.937   1.308   5.324
 2293TIP3   OH2 6842   4.675   4.590   4.659
 2293TIP3    H1 6843   4.673   4.543   4.742
 2293TIP3    H2 6844   4.663   4.522   4.592
 2294TIP3   OH2 6845   4.630   4.186   0.223
 2294TIP3    H1 6846   4.564   4.247   0.189
 2294TIP3    H2 6847   4.596   4.099   0.201
 2295TIP3   OH2 6848   6.787   0.148   4.556
 2295TIP3    H1 6849   6.875   0.147   4.518
 2295TIP3    H2 6850   6.785   0.073   4.615
 2296TIP3   OH2 6851   1.947   0.447   1.988
 2296TIP3    H1 6852   1.921   0.539   1.992
 2296TIP3    H2 6853   1.871   0.401   1.954
 2297TIP3   OH2 6854   2.093   4.089   3.666
 2297TIP3    H1 6855   2.090   4.165   3.724
 2297TIP3    H2 6856   2.087   4.014   3.726
 2298TIP3   OH2 6857   4.273   0.632   2.713
 2298TIP3    H1 6858   4.246   0.699   2.651
 2298TIP3    H2 6859   4.342   0.673   2.766
 2299TIP3   OH2 6860   4.924   3.919   2.807
 2299TIP3    H1 6861   4.868   3.959   2.741
 2299TIP3    H2 6862   4.999   3.885   2.757
 2300TIP3   OH2 6863   4.272   3.968   5.015
 2300TIP3    H1 6864   4.314   4.040   5.063
 2300TIP3    H2 6865   4.304   3.889   5.058
 2301TIP3   OH2 6866   2.705   4.911   1.544
 2301TIP3    H1 6867   2.639   4.934   1.478
 2301TIP3    H2 6868   2.715   4.991   1.595
 2302TIP3   OH2 6869   4.315   4.867   4.022
 2302TIP3    H1 6870   4.238   4.811   4.024
 2302TIP3    H2 6871   4.340   4.877   4.114
 2303TIP3   OH2 6872   7.146   2.124   5.763
 2303TIP3    H1 6873   7.161   2.054   5.827
 2303TIP3    H2 6874   7.099   2.191   5.811
 2304TIP3   OH2 6875   2.825   6.004   0.162
 2304TIP3    H1 6876   2.865   6.068   0.221
 2304TIP3    H2 6877   2.865   5.921   0.187
 2305TIP3   OH2 6878   3.227   5.852   0.414
 2305TIP3    H1 6879   3.258   5.790   0.480
 2305TIP3    H2 6880   3.184   5.921   0.463
 2306TIP3   OH2 6881   0.985   6.571   3.435
 2306TIP3    H1 6882   0.919   6.629   3.398
 2306TIP3    H2 6883   1.068   6.603   3.397
 2307TIP3   OH2 6884   4.077   2.834   4.901
 2307TIP3    H1 6885   4.052   2.925   4.917
 2307TIP3    H2 6886   4.030   2.784   4.968
 2308TIP3   OH2 6887   4.610   5.428   2.687
 2308TIP3    H1 6888   4.704   5.416   2.700
 2308TIP3    H2 6889   4.571   5.411   2.773
 2309TIP3   OH2 6890   5.769   6.196   0.820
 2309TIP3    H1 6891   5.744   6.242   0.900
 2309TIP3    H2 6892   5.797   6.109   0.851
 2310TIP3   OH2 6893   7.002   3.613   0.948
 2310TIP3    H1 6894   6.919   3.625   0.995
 2310TIP3    H2 6895   7.068   3.610   1.018
 2311TIP3   OH2 6896   1.983   1.152   1.102
 2311TIP3    H1 6897   1.963   1.130   1.193
 2311TIP3    H2 6898   2.000   1.067   1.061
 2312TIP3   OH2 6899   1.631   1.358   5.260
 2312TIP3    H1 6900   1.664   1.405   5.338
 2312TIP3    H2 6901   1.631   1.266   5.286
 2313TIP3   OH2 6902   6.238   5.288   4.466
 2313TIP3    H1 6903   6.209   5.229   4.536
 2313TIP3    H2 6904   6.158   5.328   4.433
 2314TIP3   OH2 6905   6.889   3.948   0.146
 2314TIP3    H1 6906   6.883   4.042   0.133
 2314TIP3    H2 6907   6.936   3.916   0.069
 2315TIP3   OH2 6908   2.312   0.112   1.656
 2315TIP3    H1 6909   2.328   0.046   1.723
 2315TIP3    H2 6910   2.384   0.100   1.594
 2316TIP3   OH2 6911   3.202   5.104   0.918
 2316TIP3    H1 6912   3.288   5.081   0.881
 2316TIP3    H2 6913   3.222   5.167   0.988
 2317TIP3   OH2 6914   5.871   4.100   3.095
 2317TIP3    H1 6915   5.898   4.189   3.117
 2317TIP3    H2 6916   5.835   4.065   3.176
 2318TIP3   OH2 6917   3.808   0.271   2.808
 2318TIP3    H1 6918   3.879   0.333   2.797
 2318TIP3    H2 6919   3.750   0.287   2.733
 2319TIP3   OH2 6920   6.644   1.461   1.860
 2319TIP3    H1 6921   6.720   1.453   1.917
 2319TIP3    H2 6922   6.675   1.512   1.785
 2320TIP3   OH2 6923   1.689   1.792   1.446
 2320TIP3    H1 6924   1.601   1.755   1.446
 2320TIP3    H2 6925   1.725   1.769   1.361
 2321TIP3   OH2 6926   6.794   6.037   3.173
 2321TIP3    H1 6927   6.733   6.080   3.232
 2321TIP3    H2 6928   6.881   6.057   3.210
 2322TIP3   OH2 6929   0.569   1.765   4.187
 2322TIP3    H1 6930   0.584   1.734   4.277
 2322TIP3    H2 6931   0.586   1.689   4.132
 2323TIP3   OH2 6932   1.816   5.398   4.146
 2323TIP3    H1 6933   1.811   5.338   4.220
 2323TIP3    H2 6934   1.762   5.473   4.172
 2324TIP3   OH2 6935   0.338   2.874   2.026
 2324TIP3    H1 6936   0.376   2.841   2.108
 2324TIP3    H2 6937   0.367   2.965   2.022
 2325TIP3   OH2 6938   5.151   0.462   0.644
 2325TIP3    H1 6939   5.152   0.439   0.737
 2325TIP3    H2 6940   5.140   0.557   0.642
 2326TIP3   OH2 6941   1.551   6.407   3.058
 2326TIP3    H1 6942   1.587   6.492   3.034
 2326TIP3    H2 6943   1.579   6.348   2.988
 2327TIP3   OH2 6944   6.176   2.675   1.189
 2327TIP3    H1 6945   6.271   2.674   1.176
 2327TIP3    H2 6946   6.164   2.638   1.277
 2328TIP3   OH2 6947   7.214   0.615   5.256
 2328TIP3    H1 6948   7.275   0.552   5.293
 2328TIP3    H2 6949   7.128   0.585   5.287
 2329TIP3   OH2 6950   1.241   2.002   0.758
 2329TIP3    H1 6951   1.244   1.971   0.667
 2329TIP3    H2 6952   1.217   2.094   0.751
 2330TIP3   OH2 6953   4.152   5.690   2.399
 2330TIP3    H1 6954   4.106   5.669   2.480
 2330TIP3    H2 6955   4.117   5.628   2.335
 2331TIP3   OH2 6956   5.045   0.516   5.010
 2331TIP3    H1 6957   5.077   0.606   5.014
 2331TIP3    H2 6958   4.974   0.513   5.074
 2332TIP3   OH2 6959   3.046   5.110   2.601
 2332TIP3    H1 6960   2.962   5.140   2.633
 2332TIP3    H2 6961   3.050   5.141   2.510
 2333TIP3   OH2 6962   2.625   1.341   3.946
 2333TIP3    H1 6963   2.695   1.395   3.906
 2333TIP3    H2 6964   2.643   1.253   3.914
 2334TIP3   OH2 6965   1.546   5.797   0.557
 2334TIP3    H1 6966   1.492   5.822   0.632
 2334TIP3    H2 6967   1.484   5.758   0.495
 2335TIP3   OH2 6968   2.015   2.482   5.484
 2335TIP3    H1 6969   2.079   2.532   5.432
 2335TIP3    H2 6970   2.069   2.421   5.534
 2336TIP3   OH2 6971   2.039   5.382   1.064
 2336TIP3    H1 6972   2.118   5.332   1.083
 2336TIP3    H2 6973   2.055   5.468   1.101
 2337TIP3   OH2 6974   7.094   4.200   3.194
 2337TIP3    H1 6975   7.047   4.165   3.119
 2337TIP3    H2 6976   7.133   4.123   3.236
 2338TIP3   OH2 6977   0.026   5.194   2.830
 2338TIP3    H1 6978   0.106   5.180   2.780
 2338TIP3    H2 6979   0.056   5.217   2.917
 2339TIP3   OH2 6980   1.887   1.124   2.504
 2339TIP3    H1 6981   1.829   1.055   2.537
 2339TIP3    H2 6982   1.975   1.094   2.527
 2340TIP3   OH2 6983   3.758   3.924   3.154
 2340TIP3    H1 6984   3.797   3.840   3.178
 2340TIP3    H2 6985   3.829   3.971   3.110
 2341TIP3   OH2 6986   6.782   1.229   0.352
 2341TIP3    H1 6987   6.874   1.250   0.336
 2341TIP3    H2 6988   6.754   1.183   0.273
 2342TIP3   OH2 6989   6.309   5.438   2.374
 2342TIP3    H1 6990   6.260   5.370   2.329
 2342TIP3    H2 6991   6.398   5.432   2.338
 2343TIP3   OH2 6992   5.118   2.933   1.915
 2343TIP3    H1 6993   5.136   2.850   1.870
 2343TIP3    H2 6994   5.165   2.925   1.998
 2344TIP3   OH2 6995   0.751   4.631   2.243
 2344TIP3    H1 6996   0.751   4.536   2.251
 2344TIP3    H2 6997   0.833   4.659   2.285
 2345TIP3   OH2 6998   4.495   6.287   0.940
 2345TIP3    H1 6999   4.434   6.351   0.905
 2345TIP3    H2 7000   4.575   6.337   0.957
 2346TIP3   OH2 7001   4.930   4.592   1.837
 2346TIP3    H1 7002   4.885   4.571   1.755
 2346TIP3    H2 7003   4.880   4.664   1.874
 2347TIP3   OH2 7004   4.212   6.737   4.152
 2347TIP3    H1 7005   4.158   6.801   4.198
 2347TIP3    H2 7006   4.160   6.657   4.152
 2348TIP3   OH2 7007   6.222   0.453   2.224
 2348TIP3    H1 7008   6.250   0.421   2.139
 2348TIP3    H2 7009   6.291   0.514   2.250
 2349TIP3   OH2 7010   0.077   4.263   2.941
 2349TIP3    H1 7011   0.064   4.318   3.019
 2349TIP3    H2 7012   0.007   4.198   2.946
 2350TIP3   OH2 7013   6.146   4.662   0.687
 2350TIP3    H1 7014   6.164   4.755   0.674
 2350TIP3    H2 7015   6.231   4.619   0.676
 2351TIP3   OH2 7016   5.283   4.848   5.043
 2351TIP3    H1 7017   5.198   4.891   5.054
 2351TIP3    H2 7018   5.264   4.769   4.992
 2352TIP3   OH2 7019   2.126   6.187   5.720
 2352TIP3    H1 7020   2.103   6.187   5.627
 2352TIP3    H2 7021   2.124   6.094   5.745
 2353TIP3   OH2 7022   0.153   4.880   4.386
 2353TIP3    H1 7023   0.217   4.879   4.458
 2353TIP3    H2 7024   0.069   4.863   4.428
 2354TIP3   OH2 7025   6.150   4.960   2.362
 2354TIP3    H1 7026   6.179   4.888   2.306
 2354TIP3    H2 7027   6.099   4.917   2.431
 2355TIP3   OH2 7028   5.052   3.495   3.906
 2355TIP3    H1 7029   5.080   3.522   3.993
 2355TIP3    H2 7030   5.074   3.402   3.902
 2356TIP3   OH2 7031   5.224   5.326   2.511
 2356TIP3    H1 7032   5.240   5.264   2.440
 2356TIP3    H2 7033   5.311   5.355   2.537
 2357TIP3   OH2 7034   3.954   6.763   1.402
 2357TIP3    H1 7035   3.915   6.684   1.439
 2357TIP3    H2 7036   3.880   6.819   1.381
 2358TIP3   OH2 7037   6.703   0.717   4.131
 2358TIP3    H1 7038   6.674   0.655   4.063
 2358TIP3    H2 7039   6.715   0.663   4.209
 2359TIP3   OH2 7040   4.637   1.005   3.196
 2359TIP3    H1 7041   4.689   1.084   3.185
 2359TIP3    H2 7042   4.617   1.002   3.290
 2360TIP3   OH2 7043   3.658   5.901   2.169
 2360TIP3    H1 7044   3.573   5.885   2.127
 2360TIP3    H2 7045   3.638   5.904   2.263
 2361TIP3   OH2 7046   6.996   4.421   1.903
 2361TIP3    H1 7047   7.006   4.420   1.998
 2361TIP3    H2 7048   6.915   4.470   1.888
 2362TIP3   OH2 7049   4.015   6.295   1.879
 2362TIP3    H1 7050   3.964   6.216   1.860
 2362TIP3    H2 7051   4.019   6.340   1.795
 2363TIP3   OH2 7052   2.171   3.137   0.650
 2363TIP3    H1 7053   2.228   3.213   0.639
 2363TIP3    H2 7054   2.153   3.108   0.561
 2364TIP3   OH2 7055   5.996   4.558   5.790
 2364TIP3    H1 7056   6.067   4.586   5.848
 2364TIP3    H2 7057   5.976   4.469   5.820
 2365TIP3   OH2 7058   3.034   0.689   0.886
 2365TIP3    H1 7059   2.947   0.663   0.917
 2365TIP3    H2 7060   3.047   0.777   0.922
 2366TIP3   OH2 7061   4.752   1.351   1.375
 2366TIP3    H1 7062   4.683   1.413   1.396
 2366TIP3    H2 7063   4.826   1.379   1.429
 2367TIP3   OH2 7064   3.038   6.082   5.370
 2367TIP3    H1 7065   2.942   6.079   5.367
 2367TIP3    H2 7066   3.062   6.010   5.428
 2368TIP3   OH2 7067   3.320   2.301   0.902
 2368TIP3    H1 7068   3.386   2.360   0.865
 2368TIP3    H2 7069   3.306   2.236   0.833
 2369TIP3   OH2 7070   6.734   1.174   5.779
 2369TIP3    H1 7071   6.697   1.153   5.864
 2369TIP3    H2 7072   6.683   1.249   5.748
 2370TIP3   OH2 7073   0.465   1.186   1.719
 2370TIP3    H1 7074   0.559   1.165   1.715
 2370TIP3    H2 7075   0.454   1.229   1.804
 2371TIP3   OH2 7076   0.726   3.001   4.126
 2371TIP3    H1 7077   0.717   3.053   4.205
 2371TIP3    H2 7078   0.664   2.929   4.136
 2372TIP3   OH2 7079   6.840   5.742   2.914
 2372TIP3    H1 7080   6.787   5.804   2.862
 2372TIP3    H2 7081   6.805   5.656   2.892
 2373TIP3   OH2 7082   3.210   2.934   1.257
 2373TIP3    H1 7083   3.158   2.905   1.332
 2373TIP3    H2 7084   3.255   2.855   1.226
 2374TIP3   OH2 7085   4.899   1.780   3.429
 2374TIP3    H1 7086   4.979   1.770   3.377
 2374TIP3    H2 7087   4.902   1.707   3.492
 2375TIP3   OH2 7088   1.420   3.254   3.440
 2375TIP3    H1 7089   1.370   3.323   3.397
 2375TIP3    H2 7090   1.396   3.261   3.532
 2376TIP3   OH2 7091   1.274   3.285   1.238
 2376TIP3    H1 7092   1.287   3.204   1.189
 2376TIP3    H2 7093   1.201   3.328   1.195
 2377TIP3   OH2 7094   6.988   5.995   0.721
 2377TIP3    H1 7095   7.019   5.970   0.808
 2377TIP3    H2 7096   6.990   6.090   0.720
 2378TIP3   OH2 7097   5.110   3.820   1.710
 2378TIP3    H1 7098   5.025   3.861   1.722
 2378TIP3    H2 7099   5.095   3.727   1.724
 2379TIP3   OH2 7100   0.840   6.026   5.179
 2379TIP3    H1 7101   0.904   6.001   5.246
 2379TIP3    H2 7102   0.823   6.119   5.195
 2380TIP3   OH2 7103   3.078   4.123   5.842
 2380TIP3    H1 7104   3.032   4.082   5.916
 2380TIP3    H2 7105   3.160   4.075   5.835
 2381TIP3   OH2 7106   1.408   4.409   5.010
 2381TIP3    H1 7107   1.339   4.361   4.964
 2381TIP3    H2 7108   1.397   4.383   5.102
 2382TIP3   OH2 7109  -0.060   3.903   2.096
 2382TIP3    H1 7110   0.033   3.883   2.081
 2382TIP3    H2 7111  -0.091   3.936   2.012
 2383TIP3   OH2 7112   5.866   3.258   4.643
 2383TIP3    H1 7113   5.790   3.229   4.694
 2383TIP3    H2 7114   5.879   3.188   4.579
 2384TIP3   OH2 7115   2.012   0.756   1.204
 2384TIP3    H1 7116   2.087   0.815   1.194
 2384TIP3    H2 7117   2.047   0.681   1.251
 2385TIP3   OH2 7118   3.358   1.096   1.751
 2385TIP3    H1 7119   3.312   1.178   1.763
 2385TIP3    H2 7120   3.384   1.069   1.839
 2386TIP3   OH2 7121   1.134   2.058   1.159
 2386TIP3    H1 7122   1.225   2.067   1.132
 2386TIP3    H2 7123   1.129   2.103   1.243
 2387TIP3   OH2 7124   1.247   5.615   0.575
 2387TIP3    H1 7125   1.255   5.570   0.490
 2387TIP3    H2 7126   1.153   5.625   0.589
 2388TIP3   OH2 7127   6.664   2.280   5.464
 2388TIP3    H1 7128   6.706   2.201   5.497
 2388TIP3    H2 7129   6.681   2.279   5.370
 2389TIP3   OH2 7130   3.015   6.712   2.092
 2389TIP3    H1 7131   2.963   6.789   2.117
 2389TIP3    H2 7132   3.102   6.748   2.072
 2390TIP3   OH2 7133   0.256   5.400   3.237
 2390TIP3    H1 7134   0.226   5.335   3.174
 2390TIP3    H2 7135   0.183   5.411   3.297
 2391TIP3   OH2 7136   3.592   5.184   5.340
 2391TIP3    H1 7137   3.497   5.179   5.353
 2391TIP3    H2 7138   3.611   5.116   5.275
 2392TIP3   OH2 7139   6.496   0.592   4.677
 2392TIP3    H1 7140   6.484   0.613   4.770
 2392TIP3    H2 7141   6.534   0.504   4.677
 2393TIP3   OH2 7142   5.677   5.608   2.827
 2393TIP3    H1 7143   5.601   5.570   2.783
 2393TIP3    H2 7144   5.640   5.663   2.896
 2394TIP3   OH2 7145   5.648   1.009   0.667
 2394TIP3    H1 7146   5.588   1.034   0.737
 2394TIP3    H2 7147   5.729   0.984   0.713
 2395TIP3   OH2 7148   5.056   5.305   4.581
 2395TIP3    H1 7149   5.149   5.303   4.602
 2395TIP3    H2 7150   5.048   5.250   4.503
 2396TIP3   OH2 7151   2.107   2.454   4.305
 2396TIP3    H1 7152   2.088   2.449   4.211
 2396TIP3    H2 7153   2.193   2.498   4.309
 2397TIP3   OH2 7154   4.109   4.289   2.375
 2397TIP3    H1 7155   4.144   4.360   2.321
 2397TIP3    H2 7156   4.053   4.239   2.316
 2398TIP3   OH2 7157   2.516   3.263   0.547
 2398TIP3    H1 7158   2.511   3.193   0.612
 2398TIP3    H2 7159   2.445   3.322   0.571
 2399TIP3   OH2 7160   0.238   4.054   1.874
 2399TIP3    H1 7161   0.250   4.148   1.879
 2399TIP3    H2 7162   0.144   4.043   1.858
 2400TIP3   OH2 7163   0.515   2.513   0.552
 2400TIP3    H1 7164   0.451   2.441   0.550
 2400TIP3    H2 7165   0.520   2.538   0.644
 2401TIP3   OH2 7166   2.052   1.246   3.497
 2401TIP3    H1 7167   2.023   1.307   3.430
 2401TIP3    H2 7168   1.982   1.181   3.503
 2402TIP3   OH2 7169   1.886   4.450   1.133
 2402TIP3    H1 7170   1.817   4.502   1.090
 2402TIP3    H2 7171   1.872   4.464   1.226
 2403TIP3   OH2 7172   1.347   0.327   2.391
 2403TIP3    H1 7173   1.280   0.260   2.380
 2403TIP3    H2 7174   1.419   0.281   2.436
 2404TIP3   OH2 7175   4.113   4.678   4.101
 2404TIP3    H1 7176   4.024   4.665   4.134
 2404TIP3    H2 7177   4.170   4.649   4.172
 2405TIP3   OH2 7178   5.661   4.012   5.826
 2405TIP3    H1 7179   5.630   4.069   5.896
 2405TIP3    H2 7180   5.739   3.970   5.863
 2406TIP3   OH2 7181   5.264   6.146   0.537
 2406TIP3    H1 7182   5.202   6.080   0.506
 2406TIP3    H2 7183   5.217   6.229   0.528
 2407TIP3   OH2 7184   1.320   3.541   5.399
 2407TIP3    H1 7185   1.398   3.534   5.453
 2407TIP3    H2 7186   1.254   3.578   5.457
 2408TIP3   OH2 7187   6.243   6.671   3.293
 2408TIP3    H1 7188   6.322   6.657   3.241
 2408TIP3    H2 7189   6.217   6.583   3.320
 2409TIP3   OH2 7190   1.325   5.018   3.890
 2409TIP3    H1 7191   1.245   4.965   3.890
 2409TIP3    H2 7192   1.357   5.013   3.981
 2410TIP3   OH2 7193   3.268   4.751   0.082
 2410TIP3    H1 7194   3.337   4.776   0.143
 2410TIP3    H2 7195   3.203   4.706   0.136
 2411TIP3   OH2 7196   6.017   0.536   0.138
 2411TIP3    H1 7197   6.046   0.465   0.195
 2411TIP3    H2 7198   5.921   0.533   0.143
 2412TIP3   OH2 7199   7.061   5.811   5.815
 2412TIP3    H1 7200   7.095   5.722   5.818
 2412TIP3    H2 7201   7.049   5.830   5.722
 2413TIP3   OH2 7202   5.893   4.378   1.478
 2413TIP3    H1 7203   5.887   4.469   1.509
 2413TIP3    H2 7204   5.854   4.326   1.549
 2414TIP3   OH2 7205   3.145   2.589   3.106
 2414TIP3    H1 7206   3.200   2.587   3.028
 2414TIP3    H2 7207   3.068   2.640   3.079
 2415TIP3   OH2 7208   0.814   3.277   2.617
 2415TIP3    H1 7209   0.840   3.225   2.693
 2415TIP3    H2 7210   0.873   3.249   2.548
 2416TIP3   OH2 7211   0.228   5.421   0.573
 2416TIP3    H1 7212   0.247   5.338   0.529
 2416TIP3    H2 7213   0.267   5.488   0.516
 2417TIP3   OH2 7214   4.154   6.750   2.028
 2417TIP3    H1 7215   4.118   6.737   2.116
 2417TIP3    H2 7216   4.141   6.843   2.010
 2418TIP3   OH2 7217   5.049   5.162   3.160
 2418TIP3    H1 7218   5.129   5.187   3.113
 2418TIP3    H2 7219   5.025   5.240   3.209
 2419TIP3   OH2 7220   5.518   4.800   5.153
 2419TIP3    H1 7221   5.480   4.723   5.194
 2419TIP3    H2 7222   5.442   4.854   5.129
 2420TIP3   OH2 7223   5.089   1.469   5.416
 2420TIP3    H1 7224   5.179   1.464   5.448
 2420TIP3    H2 7225   5.097   1.488   5.323
 2421TIP3   OH2 7226   4.165   2.138   4.367
 2421TIP3    H1 7227   4.110   2.213   4.388
 2421TIP3    H2 7228   4.225   2.170   4.300
 2422TIP3   OH2 7229   1.192   5.825   5.270
 2422TIP3    H1 7230   1.244   5.747   5.289
 2422TIP3    H2 7231   1.158   5.852   5.355
 2423TIP3   OH2 7232   0.171   1.401   0.334
 2423TIP3    H1 7233   0.192   1.491   0.358
 2423TIP3    H2 7234   0.085   1.406   0.291
 2424TIP3   OH2 7235   4.010   3.325   2.436
 2424TIP3    H1 7236   3.930   3.359   2.396
 2424TIP3    H2 7237   4.076   3.331   2.366
 2425TIP3   OH2 7238   3.458   3.078   1.780
 2425TIP3    H1 7239   3.441   3.110   1.691
 2425TIP3    H2 7240   3.405   3.134   1.836
 2426TIP3   OH2 7241   0.179   6.800   2.254
 2426TIP3    H1 7242   0.206   6.811   2.345
 2426TIP3    H2 7243   0.084   6.808   2.256
 2427TIP3   OH2 7244   3.598   5.789   4.803
 2427TIP3    H1 7245   3.569   5.711   4.850
 2427TIP3    H2 7246   3.608   5.760   4.712
 2428TIP3   OH2 7247   0.285   1.702   1.295
 2428TIP3    H1 7248   0.304   1.609   1.280
 2428TIP3    H2 7249   0.265   1.708   1.388
 2429TIP3   OH2 7250   4.176   0.289   2.594
 2429TIP3    H1 7251   4.143   0.199   2.594
 2429TIP3    H2 7252   4.126   0.333   2.663
 2430TIP3   OH2 7253   5.363   4.745   4.718
 2430TIP3    H1 7254   5.422   4.754   4.793
 2430TIP3    H2 7255   5.355   4.651   4.705
 2431TIP3   OH2 7256   3.636   5.662   1.375
 2431TIP3    H1 7257   3.689   5.728   1.420
 2431TIP3    H2 7258   3.615   5.703   1.290
 2432TIP3   OH2 7259  -0.030   3.663   4.179
 2432TIP3    H1 7260   0.028   3.672   4.254
 2432TIP3    H2 7261  -0.002   3.732   4.118
 2433TIP3   OH2 7262   4.314   4.623   4.273
 2433TIP3    H1 7263   4.376   4.590   4.209
 2433TIP3    H2 7264   4.301   4.550   4.334
 2434TIP3   OH2 7265   3.440   5.950   3.461
 2434TIP3    H1 7266   3.494   5.945   3.540
 2434TIP3    H2 7267   3.351   5.964   3.493
 2435TIP3   OH2 7268   3.316   2.388   1.406
 2435TIP3    H1 7269   3.234   2.349   1.376
 2435TIP3    H2 7270   3.357   2.423   1.327
 2436TIP3   OH2 7271   0.667   3.934   4.692
 2436TIP3    H1 7272   0.632   3.977   4.770
 2436TIP3    H2 7273   0.693   4.006   4.634
 2437TIP3   OH2 7274   1.825   4.667   4.005
 2437TIP3    H1 7275   1.788   4.631   3.924
 2437TIP3    H2 7276   1.873   4.745   3.977
 2438TIP3   OH2 7277   3.892   5.411   2.060
 2438TIP3    H1 7278   3.934   5.427   1.976
 2438TIP3    H2 7279   3.908   5.319   2.078
 2439TIP3   OH2 7280   1.305   3.620   5.815
 2439TIP3    H1 7281   1.379   3.629   5.875
 2439TIP3    H2 7282   1.301   3.703   5.769
 2440TIP3   OH2 7283   5.848   5.386   5.677
 2440TIP3    H1 7284   5.879   5.323   5.611
 2440TIP3    H2 7285   5.894   5.467   5.655
 2441TIP3   OH2 7286   4.319   3.892   1.239
 2441TIP3    H1 7287   4.289   3.803   1.256
 2441TIP3    H2 7288   4.248   3.948   1.271
 2442TIP3   OH2 7289   0.302   0.588   0.243
 2442TIP3    H1 7290   0.303   0.650   0.315
 2442TIP3    H2 7291   0.233   0.526   0.265
 2443TIP3   OH2 7292   6.878   1.463   3.688
 2443TIP3    H1 7293   6.947   1.403   3.715
 2443TIP3    H2 7294   6.825   1.477   3.767
 2444TIP3   OH2 7295   0.375   0.674   5.486
 2444TIP3    H1 7296   0.453   0.698   5.536
 2444TIP3    H2 7297   0.372   0.739   5.415
 2445TIP3   OH2 7298   6.622   4.257   5.720
 2445TIP3    H1 7299   6.585   4.185   5.770
 2445TIP3    H2 7300   6.612   4.231   5.629
 2446TIP3   OH2 7301   1.462   6.248   5.274
 2446TIP3    H1 7302   1.434   6.176   5.218
 2446TIP3    H2 7303   1.387   6.266   5.330
 2447TIP3   OH2 7304   4.161   3.488   1.097
 2447TIP3    H1 7305   4.139   3.572   1.056
 2447TIP3    H2 7306   4.256   3.480   1.086
 2448TIP3   OH2 7307   3.647   6.017   4.979
 2448TIP3    H1 7308   3.611   5.947   4.924
 2448TIP3    H2 7309   3.722   6.049   4.930
 2449TIP3   OH2 7310   0.960   4.081   3.676
 2449TIP3    H1 7311   1.015   4.147   3.635
 2449TIP3    H2 7312   0.981   4.087   3.769
 2450TIP3   OH2 7313   2.113   5.908   5.686
 2450TIP3    H1 7314   2.090   5.842   5.752
 2450TIP3    H2 7315   2.202   5.884   5.659
 2451TIP3   OH2 7316   2.783   4.401   4.787
 2451TIP3    H1 7317   2.715   4.385   4.852
 2451TIP3    H2 7318   2.817   4.314   4.765
 2452TIP3   OH2 7319   4.670   4.293   2.788
 2452TIP3    H1 7320   4.577   4.315   2.781
 2452TIP3    H2 7321   4.701   4.344   2.863
 2453TIP3   OH2 7322   0.964   2.551   2.158
 2453TIP3    H1 7323   0.947   2.628   2.104
 2453TIP3    H2 7324   0.975   2.585   2.246
 2454TIP3   OH2 7325   7.099   5.095   3.770
 2454TIP3    H1 7326   7.145   5.135   3.844
 2454TIP3    H2 7327   7.169   5.058   3.716
 2455TIP3   OH2 7328   1.631   2.097   3.461
 2455TIP3    H1 7329   1.637   2.192   3.453
 2455TIP3    H2 7330   1.721   2.066   3.456
 2456TIP3   OH2 7331   4.775   4.758   2.922
 2456TIP3    H1 7332   4.838   4.828   2.908
 2456TIP3    H2 7333   4.794   4.693   2.854
 2457TIP3   OH2 7334   1.271   1.644   4.395
 2457TIP3    H1 7335   1.218   1.591   4.455
 2457TIP3    H2 7336   1.208   1.697   4.346
 2458TIP3   OH2 7337   7.085   4.475   0.831
 2458TIP3    H1 7338   7.043   4.551   0.870
 2458TIP3    H2 7339   7.127   4.430   0.905
 2459TIP3   OH2 7340   2.846   4.117   2.952
 2459TIP3    H1 7341   2.926   4.159   2.985
 2459TIP3    H2 7342   2.790   4.189   2.924
 2460TIP3   OH2 7343   3.014   0.950   0.150
 2460TIP3    H1 7344   3.075   0.878   0.168
 2460TIP3    H2 7345   3.057   1.027   0.187
 2461TIP3   OH2 7346   6.561   4.786   5.101
 2461TIP3    H1 7347   6.559   4.815   5.192
 2461TIP3    H2 7348   6.480   4.820   5.064
 2462TIP3   OH2 7349   0.835   4.079   5.906
 2462TIP3    H1 7350   0.830   4.094   5.811
 2462TIP3    H2 7351   0.902   4.141   5.936
 2463TIP3   OH2 7352   2.525   1.104   4.110
 2463TIP3    H1 7353   2.507   1.195   4.131
 2463TIP3    H2 7354   2.620   1.100   4.098
 2464TIP3   OH2 7355   3.157   4.296   1.524
 2464TIP3    H1 7356   3.108   4.221   1.555
 2464TIP3    H2 7357   3.167   4.352   1.602
 2465TIP3   OH2 7358   0.275   2.068   5.052
 2465TIP3    H1 7359   0.186   2.074   5.087
 2465TIP3    H2 7360   0.264   2.053   4.959
 2466TIP3   OH2 7361   2.028   5.970   3.277
 2466TIP3    H1 7362   1.947   6.020   3.288
 2466TIP3    H2 7363   2.024   5.939   3.186
 2467TIP3   OH2 7364   3.360   2.171   5.554
 2467TIP3    H1 7365   3.272   2.187   5.589
 2467TIP3    H2 7366   3.415   2.236   5.598
 2468TIP3   OH2 7367   1.998   5.481   1.533
 2468TIP3    H1 7368   2.018   5.517   1.447
 2468TIP3    H2 7369   2.076   5.430   1.556
 2469TIP3   OH2 7370   1.945   5.790   0.972
 2469TIP3    H1 7371   1.978   5.848   1.040
 2469TIP3    H2 7372   2.000   5.712   0.978
 2470TIP3   OH2 7373   1.639   5.683   2.034
 2470TIP3    H1 7374   1.705   5.748   2.059
 2470TIP3    H2 7375   1.677   5.638   1.959
 2471TIP3   OH2 7376   6.486   5.165   3.971
 2471TIP3    H1 7377   6.552   5.120   4.024
 2471TIP3    H2 7378   6.523   5.252   3.956
 2472TIP3   OH2 7379   2.866   3.395   0.847
 2472TIP3    H1 7380   2.775   3.365   0.852
 2472TIP3    H2 7381   2.881   3.439   0.931
 2473TIP3   OH2 7382   1.892   1.178   0.523
 2473TIP3    H1 7383   1.979   1.142   0.539
 2473TIP3    H2 7384   1.848   1.111   0.471
 2474TIP3   OH2 7385   6.717   1.709   2.844
 2474TIP3    H1 7386   6.691   1.617   2.837
 2474TIP3    H2 7387   6.680   1.739   2.927
 2475TIP3   OH2 7388   5.056   1.685   2.996
 2475TIP3    H1 7389   5.123   1.639   2.945
 2475TIP3    H2 7390   4.996   1.721   2.931
 2476TIP3   OH2 7391   3.078   4.142   5.323
 2476TIP3    H1 7392   3.149   4.097   5.278
 2476TIP3    H2 7393   3.122   4.204   5.381
 2477TIP3   OH2 7394   2.498   2.684   5.474
 2477TIP3    H1 7395   2.574   2.737   5.500
 2477TIP3    H2 7396   2.525   2.641   5.393
 2478TIP3   OH2 7397   6.328   1.656   4.428
 2478TIP3    H1 7398   6.290   1.622   4.509
 2478TIP3    H2 7399   6.323   1.751   4.437
 2479TIP3   OH2 7400   1.288   3.179   2.373
 2479TIP3    H1 7401   1.263   3.127   2.449
 2479TIP3    H2 7402   1.372   3.142   2.344
 2480TIP3   OH2 7403   1.048   2.478   1.502
 2480TIP3    H1 7404   1.004   2.551   1.543
 2480TIP3    H2 7405   1.053   2.501   1.409
 2481TIP3   OH2 7406   7.137   0.834   5.759
 2481TIP3    H1 7407   7.137   0.756   5.815
 2481TIP3    H2 7408   7.165   0.801   5.673
 2482TIP3   OH2 7409   6.558   0.930   3.052
 2482TIP3    H1 7410   6.608   0.935   3.134
 2482TIP3    H2 7411   6.604   0.988   2.992
 2483TIP3   OH2 7412   1.138   2.410   1.008
 2483TIP3    H1 7413   1.203   2.362   1.060
 2483TIP3    H2 7414   1.080   2.450   1.072
 2484TIP3   OH2 7415   4.273   0.505   2.118
 2484TIP3    H1 7416   4.321   0.424   2.101
 2484TIP3    H2 7417   4.187   0.492   2.078
 2485TIP3   OH2 7418   5.004   5.924   1.778
 2485TIP3    H1 7419   4.941   5.927   1.705
 2485TIP3    H2 7420   4.964   5.978   1.846
 2486TIP3   OH2 7421   6.835   2.263   2.013
 2486TIP3    H1 7422   6.778   2.337   1.993
 2486TIP3    H2 7423   6.897   2.297   2.077
 2487TIP3   OH2 7424   1.811   2.889   3.988
 2487TIP3    H1 7425   1.824   2.951   3.916
 2487TIP3    H2 7426   1.718   2.894   4.008
 2488TIP3   OH2 7427   5.484   6.620   3.383
 2488TIP3    H1 7428   5.467   6.605   3.290
 2488TIP3    H2 7429   5.409   6.670   3.413
 2489TIP3   OH2 7430   6.214   5.636   4.402
 2489TIP3    H1 7431   6.294   5.683   4.425
 2489TIP3    H2 7432   6.226   5.549   4.439
 2490TIP3   OH2 7433   7.013   3.633   3.913
 2490TIP3    H1 7434   6.918   3.642   3.921
 2490TIP3    H2 7435   7.032   3.547   3.951
 2491TIP3   OH2 7436   1.006   1.936   5.057
 2491TIP3    H1 7437   1.070   1.978   5.000
 2491TIP3    H2 7438   1.051   1.925   5.141
 2492TIP3   OH2 7439   0.680   6.013   0.608
 2492TIP3    H1 7440   0.687   6.100   0.568
 2492TIP3    H2 7441   0.761   6.003   0.659
 2493TIP3   OH2 7442   3.345   6.800   5.432
 2493TIP3    H1 7443   3.258   6.827   5.401
 2493TIP3    H2 7444   3.393   6.780   5.352
 2494TIP3   OH2 7445   5.368   6.209   5.477
 2494TIP3    H1 7446   5.436   6.180   5.416
 2494TIP3    H2 7447   5.304   6.253   5.422
 2495TIP3   OH2 7448   2.997   1.312   2.349
 2495TIP3    H1 7449   3.028   1.349   2.432
 2495TIP3    H2 7450   3.071   1.259   2.318
 2496TIP3   OH2 7451   5.830   4.921   4.253
 2496TIP3    H1 7452   5.830   4.840   4.303
 2496TIP3    H2 7453   5.914   4.920   4.206
 2497TIP3   OH2 7454   3.692   6.590   3.882
 2497TIP3    H1 7455   3.646   6.621   3.960
 2497TIP3    H2 7456   3.662   6.649   3.812
 2498TIP3   OH2 7457   0.836   4.762   4.483
 2498TIP3    H1 7458   0.853   4.765   4.389
 2498TIP3    H2 7459   0.747   4.797   4.492
 2499TIP3   OH2 7460   0.226   2.852   2.552
 2499TIP3    H1 7461   0.170   2.918   2.512
 2499TIP3    H2 7462   0.166   2.798   2.603
 2500TIP3   OH2 7463   4.405   6.045   1.731
 2500TIP3    H1 7464   4.446   6.038   1.817
 2500TIP3    H2 7465   4.473   6.079   1.674
 2501TIP3   OH2 7466   0.314   5.092   0.236
 2501TIP3    H1 7467   0.372   5.049   0.298
 2501TIP3    H2 7468   0.286   5.022   0.177
 2502TIP3   OH2 7469   5.601   4.333   0.873
 2502TIP3    H1 7470   5.631   4.337   0.964
 2502TIP3    H2 7471   5.516   4.289   0.877
 2503TIP3   OH2 7472   3.022   5.308   3.957
 2503TIP3    H1 7473   3.018   5.213   3.964
 2503TIP3    H2 7474   2.939   5.338   3.993
 2504TIP3   OH2 7475   3.798   4.927   0.104
 2504TIP3    H1 7476   3.826   4.837   0.119
 2504TIP3    H2 7477   3.765   4.928   0.015
 2505TIP3   OH2 7478   6.722   3.148   2.272
 2505TIP3    H1 7479   6.690   3.206   2.204
 2505TIP3    H2 7480   6.695   3.190   2.354
 2506TIP3   OH2 7481   4.520   4.950   1.435
 2506TIP3    H1 7482   4.580   4.994   1.375
 2506TIP3    H2 7483   4.450   5.014   1.450
 2507TIP3   OH2 7484   5.505   3.446   0.463
 2507TIP3    H1 7485   5.557   3.366   0.461
 2507TIP3    H2 7486   5.470   3.455   0.375
 2508TIP3   OH2 7487   1.359   1.506   1.189
 2508TIP3    H1 7488   1.454   1.515   1.183
 2508TIP3    H2 7489   1.328   1.521   1.099
 2509TIP3   OH2 7490   0.772   2.082   5.122
 2509TIP3    H1 7491   0.713   2.022   5.076
 2509TIP3    H2 7492   0.857   2.069   5.082
 2510TIP3   OH2 7493   6.231   5.640   4.048
 2510TIP3    H1 7494   6.187   5.713   4.005
 2510TIP3    H2 7495   6.208   5.564   3.995
 2511TIP3   OH2 7496   2.230   6.412   1.253
 2511TIP3    H1 7497   2.140   6.384   1.267
 2511TIP3    H2 7498   2.227   6.466   1.174
 2512TIP3   OH2 7499   0.620   2.510   5.197
 2512TIP3    H1 7500   0.670   2.484   5.274
 2512TIP3    H2 7501   0.602   2.428   5.151
 2513TIP3   OH2 7502   5.485   2.500   5.421
 2513TIP3    H1 7503   5.569   2.455   5.408
 2513TIP3    H2 7504   5.488   2.530   5.512
 2514TIP3   OH2 7505   4.931   2.448   5.293
 2514TIP3    H1 7506   4.862   2.480   5.351
 2514TIP3    H2 7507   4.917   2.353   5.290
 2515TIP3   OH2 7508   6.200   4.481   1.208
 2515TIP3    H1 7509   6.113   4.443   1.207
 2515TIP3    H2 7510   6.255   4.414   1.249
 2516TIP3   OH2 7511   1.345   5.974   4.873
 2516TIP3    H1 7512   1.302   6.028   4.806
 2516TIP3    H2 7513   1.312   5.886   4.857
 2517TIP3   OH2 7514   4.611   5.841   1.509
 2517TIP3    H1 7515   4.517   5.834   1.527
 2517TIP3    H2 7516   4.624   5.790   1.429
 2518TIP3   OH2 7517   5.047   4.564   5.576
 2518TIP3    H1 7518   5.021   4.532   5.490
 2518TIP3    H2 7519   5.056   4.485   5.629
 2519TIP3   OH2 7520   0.652   3.725   4.083
 2519TIP3    H1 7521   0.714   3.705   4.153
 2519TIP3    H2 7522   0.630   3.818   4.095
 2520TIP3   OH2 7523   4.113   3.797   4.763
 2520TIP3    H1 7524   4.056   3.721   4.773
 2520TIP3    H2 7525   4.123   3.831   4.852
 2521TIP3   OH2 7526   1.220   5.125   3.485
 2521TIP3    H1 7527   1.273   5.183   3.540
 2521TIP3    H2 7528   1.140   5.110   3.536
 2522TIP3   OH2 7529   0.325   2.068   2.117
 2522TIP3    H1 7530   0.396   2.133   2.116
 2522TIP3    H2 7531   0.251   2.114   2.156
 2523TIP3   OH2 7532   1.305   0.660   4.269
 2523TIP3    H1 7533   1.252   0.739   4.279
 2523TIP3    H2 7534   1.264   0.596   4.328
 2524TIP3   OH2 7535   3.289   3.237   0.449
 2524TIP3    H1 7536   3.365   3.185   0.421
 2524TIP3    H2 7537   3.318   3.328   0.443
 2525TIP3   OH2 7538   6.042   0.803   1.401
 2525TIP3    H1 7539   6.118   0.859   1.418
 2525TIP3    H2 7540   5.971   0.864   1.380
 2526TIP3   OH2 7541   2.338   4.835   3.602
 2526TIP3    H1 7542   2.368   4.919   3.566
 2526TIP3    H2 7543   2.418   4.786   3.620
 2527TIP3   OH2 7544   4.186   5.557   0.950
 2527TIP3    H1 7545   4.132   5.623   0.906
 2527TIP3    H2 7546   4.276   5.583   0.931
 2528TIP3   OH2 7547   1.981   6.193   2.711
 2528TIP3    H1 7548   2.049   6.197   2.643
 2528TIP3    H2 7549   2.028   6.166   2.790
 2529TIP3   OH2 7550   6.746   0.080   3.458
 2529TIP3    H1 7551   6.762   0.122   3.374
 2529TIP3    H2 7552   6.658   0.108   3.483
 2530TIP3   OH2 7553   0.507   1.807   5.291
 2530TIP3    H1 7554   0.558   1.780   5.367
 2530TIP3    H2 7555   0.416   1.799   5.319
 2531TIP3   OH2 7556   2.902   1.507   2.635
 2531TIP3    H1 7557   2.910   1.508   2.730
 2531TIP3    H2 7558   2.973   1.564   2.605
 2532TIP3   OH2 7559   5.805   5.176   4.435
 2532TIP3    H1 7560   5.716   5.204   4.457
 2532TIP3    H2 7561   5.794   5.119   4.360
 2533TIP3   OH2 7562   2.517   2.405   0.310
 2533TIP3    H1 7563   2.561   2.325   0.339
 2533TIP3    H2 7564   2.431   2.400   0.352
 2534TIP3   OH2 7565   6.831   2.454   3.240
 2534TIP3    H1 7566   6.872   2.472   3.156
 2534TIP3    H2 7567   6.749   2.410   3.218
 2535TIP3   OH2 7568   3.294   5.088   4.473
 2535TIP3    H1 7569   3.374   5.045   4.444
 2535TIP3    H2 7570   3.282   5.059   4.563
 2536TIP3   OH2 7571   5.992   4.052   1.434
 2536TIP3    H1 7572   5.967   4.042   1.526
 2536TIP3    H2 7573   6.016   4.145   1.426
 2537TIP3   OH2 7574   4.652   2.474   0.426
 2537TIP3    H1 7575   4.572   2.448   0.380
 2537TIP3    H2 7576   4.691   2.540   0.370
 2538TIP3   OH2 7577   1.504   5.536   4.696
 2538TIP3    H1 7578   1.526   5.476   4.625
 2538TIP3    H2 7579   1.481   5.618   4.653
 2539TIP3   OH2 7580   3.491   4.064   3.556
 2539TIP3    H1 7581   3.419   4.048   3.496
 2539TIP3    H2 7582   3.449   4.099   3.635
 2540TIP3   OH2 7583   0.378   2.731   2.306
 2540TIP3    H1 7584   0.408   2.647   2.341
 2540TIP3    H2 7585   0.283   2.730   2.320
 2541TIP3   OH2 7586   0.315   4.440   5.164
 2541TIP3    H1 7587   0.391   4.497   5.172
 2541TIP3    H2 7588   0.282   4.432   5.254
 2542TIP3   OH2 7589   1.543   2.808   3.992
 2542TIP3    H1 7590   1.477   2.863   3.951
 2542TIP3    H2 7591   1.494   2.751   4.051
 2543TIP3   OH2 7592   2.293   4.456   4.351
 2543TIP3    H1 7593   2.294   4.452   4.447
 2543TIP3    H2 7594   2.297   4.364   4.323
 2544TIP3   OH2 7595   4.002   3.172   2.681
 2544TIP3    H1 7596   3.952   3.208   2.607
 2544TIP3    H2 7597   4.025   3.083   2.654
 2545TIP3   OH2 7598   0.164   2.875   4.700
 2545TIP3    H1 7599   0.216   2.819   4.642
 2545TIP3    H2 7600   0.121   2.937   4.642
 2546TIP3   OH2 7601   1.016   5.855   4.222
 2546TIP3    H1 7602   1.029   5.844   4.128
 2546TIP3    H2 7603   1.006   5.949   4.234
 2547TIP3   OH2 7604   3.749   5.869   2.616
 2547TIP3    H1 7605   3.786   5.793   2.571
 2547TIP3    H2 7606   3.765   5.852   2.709
 2548TIP3   OH2 7607   0.294   5.997   3.712
 2548TIP3    H1 7608   0.330   5.963   3.630
 2548TIP3    H2 7609   0.203   6.018   3.692
 2549TIP3   OH2 7610   7.182   3.900   0.959
 2549TIP3    H1 7611   7.146   3.860   1.038
 2549TIP3    H2 7612   7.255   3.844   0.934
 2550TIP3   OH2 7613   0.863   6.326   2.254
 2550TIP3    H1 7614   0.910   6.396   2.299
 2550TIP3    H2 7615   0.923   6.251   2.257
 2551TIP3   OH2 7616   5.049   6.193   2.707
 2551TIP3    H1 7617   5.128   6.245   2.720
 2551TIP3    H2 7618   5.019   6.172   2.796
 2552TIP3   OH2 7619   0.240   1.898   3.976
 2552TIP3    H1 7620   0.199   1.950   4.046
 2552TIP3    H2 7621   0.315   1.950   3.949
 2553TIP3   OH2 7622   6.425   3.935   3.050
 2553TIP3    H1 7623   6.476   3.971   3.122
 2553TIP3    H2 7624   6.480   3.946   2.973
 2554TIP3   OH2 7625   5.058   0.344   0.036
 2554TIP3    H1 7626   5.061   0.421  -0.021
 2554TIP3    H2 7627   4.965   0.334   0.057
 2555TIP3   OH2 7628   6.203   6.407   1.544
 2555TIP3    H1 7629   6.195   6.385   1.637
 2555TIP3    H2 7630   6.265   6.343   1.510
 2556TIP3   OH2 7631   3.264   0.890   4.654
 2556TIP3    H1 7632   3.228   0.978   4.646
 2556TIP3    H2 7633   3.188   0.834   4.668
 2557TIP3   OH2 7634   0.433   0.871   4.039
 2557TIP3    H1 7635   0.441   0.803   4.106
 2557TIP3    H2 7636   0.341   0.869   4.013
 2558TIP3   OH2 7637   1.236   5.186   2.366
 2558TIP3    H1 7638   1.332   5.178   2.364
 2558TIP3    H2 7639   1.215   5.244   2.293
 2559TIP3   OH2 7640   6.168   6.602   2.354
 2559TIP3    H1 7641   6.114   6.525   2.374
 2559TIP3    H2 7642   6.142   6.627   2.266
 2560TIP3   OH2 7643   0.999   4.821   0.701
 2560TIP3    H1 7644   1.038   4.856   0.621
 2560TIP3    H2 7645   1.031   4.731   0.706
 2561TIP3   OH2 7646   3.824   4.307   0.270
 2561TIP3    H1 7647   3.871   4.237   0.226
 2561TIP3    H2 7648   3.733   4.297   0.242
 2562TIP3   OH2 7649   5.347   2.056   4.893
 2562TIP3    H1 7650   5.372   2.128   4.951
 2562TIP3    H2 7651   5.324   1.984   4.952
 2563TIP3   OH2 7652   2.164   4.379   3.824
 2563TIP3    H1 7653   2.076   4.344   3.818
 2563TIP3    H2 7654   2.153   4.474   3.819
 2564TIP3   OH2 7655   3.774   5.769   1.633
 2564TIP3    H1 7656   3.716   5.844   1.644
 2564TIP3    H2 7657   3.811   5.755   1.720
 2565TIP3   OH2 7658   2.792   5.483   1.180
 2565TIP3    H1 7659   2.863   5.536   1.144
 2565TIP3    H2 7660   2.817   5.470   1.272
 2566TIP3   OH2 7661   1.166   0.407   1.278
 2566TIP3    H1 7662   1.256   0.404   1.309
 2566TIP3    H2 7663   1.166   0.355   1.197
 2567TIP3   OH2 7664   0.649   1.405   4.339
 2567TIP3    H1 7665   0.707   1.417   4.414
 2567TIP3    H2 7666   0.705   1.417   4.262
 2568TIP3   OH2 7667   6.952   0.860   0.842
 2568TIP3    H1 7668   6.953   0.944   0.798
 2568TIP3    H2 7669   6.904   0.876   0.924
 2569TIP3   OH2 7670   0.687   4.015   1.751
 2569TIP3    H1 7671   0.595   3.988   1.743
 2569TIP3    H2 7672   0.704   4.064   1.670
 2570TIP3   OH2 7673   3.175   5.672   1.580
 2570TIP3    H1 7674   3.202   5.764   1.587
 2570TIP3    H2 7675   3.155   5.659   1.488
 2571TIP3   OH2 7676   6.753   3.610   0.309
 2571TIP3    H1 7677   6.822   3.553   0.276
 2571TIP3    H2 7678   6.791   3.653   0.385
 2572TIP3   OH2 7679   3.599   4.005   4.319
 2572TIP3    H1 7680   3.657   4.046   4.255
 2572TIP3    H2 7681   3.516   4.051   4.309
 2573TIP3   OH2 7682   2.604   6.500   4.990
 2573TIP3    H1 7683   2.535   6.482   4.926
 2573TIP3    H2 7684   2.622   6.594   4.980
 2574TIP3   OH2 7685   3.381   4.264   2.158
 2574TIP3    H1 7686   3.405   4.172   2.147
 2574TIP3    H2 7687   3.451   4.313   2.115
 2575TIP3   OH2 7688   6.865   3.769   0.532
 2575TIP3    H1 7689   6.837   3.849   0.576
 2575TIP3    H2 7690   6.852   3.700   0.596
 2576TIP3   OH2 7691   2.802   1.762   5.769
 2576TIP3    H1 7692   2.802   1.738   5.677
 2576TIP3    H2 7693   2.747   1.841   5.773
 2577TIP3   OH2 7694   0.818   5.588   3.617
 2577TIP3    H1 7695   0.877   5.664   3.620
 2577TIP3    H2 7696   0.737   5.619   3.658
 2578TIP3   OH2 7697   2.723   6.509   5.450
 2578TIP3    H1 7698   2.681   6.450   5.387
 2578TIP3    H2 7699   2.759   6.451   5.518
 2579TIP3   OH2 7700   2.475   3.938   5.631
 2579TIP3    H1 7701   2.555   3.936   5.684
 2579TIP3    H2 7702   2.407   3.969   5.692
 2580TIP3   OH2 7703   0.870   5.528   1.729
 2580TIP3    H1 7704   0.945   5.550   1.785
 2580TIP3    H2 7705   0.804   5.595   1.750
 2581TIP3   OH2 7706   1.735   1.588   1.967
 2581TIP3    H1 7707   1.769   1.515   1.915
 2581TIP3    H2 7708   1.806   1.611   2.026
 2582TIP3   OH2 7709   6.770   5.719   3.966
 2582TIP3    H1 7710   6.835   5.650   3.975
 2582TIP3    H2 7711   6.712   5.708   4.041
 2583TIP3   OH2 7712   0.165   1.920   5.563
 2583TIP3    H1 7713   0.072   1.904   5.577
 2583TIP3    H2 7714   0.171   2.014   5.544
 2584TIP3   OH2 7715   4.447   2.475   4.362
 2584TIP3    H1 7716   4.353   2.475   4.381
 2584TIP3    H2 7717   4.470   2.568   4.360
 2585TIP3   OH2 7718   6.943   3.891   1.426
 2585TIP3    H1 7719   7.034   3.916   1.436
 2585TIP3    H2 7720   6.918   3.924   1.339
 2586TIP3   OH2 7721   2.452   5.756   3.945
 2586TIP3    H1 7722   2.507   5.825   3.908
 2586TIP3    H2 7723   2.468   5.760   4.039
 2587TIP3   OH2 7724   0.230   4.748   5.282
 2587TIP3    H1 7725   0.234   4.774   5.190
 2587TIP3    H2 7726   0.161   4.681   5.285
 2588TIP3   OH2 7727   0.204   6.593   4.474
 2588TIP3    H1 7728   0.128   6.557   4.428
 2588TIP3    H2 7729   0.168   6.656   4.535
 2589TIP3   OH2 7730   5.856   4.680   1.397
 2589TIP3    H1 7731   5.935   4.702   1.447
 2589TIP3    H2 7732   5.880   4.700   1.306
 2590TIP3   OH2 7733   5.310   0.441   4.425
 2590TIP3    H1 7734   5.231   0.446   4.477
 2590TIP3    H2 7735   5.333   0.348   4.424
 2591TIP3   OH2 7736   2.959   1.677   3.762
 2591TIP3    H1 7737   2.928   1.681   3.852
 2591TIP3    H2 7738   3.044   1.634   3.767
 2592TIP3   OH2 7739   0.192   4.722   3.484
 2592TIP3    H1 7740   0.274   4.750   3.525
 2592TIP3    H2 7741   0.188   4.628   3.501
 2593TIP3   OH2 7742   4.847   1.966   1.053
 2593TIP3    H1 7743   4.851   2.056   1.084
 2593TIP3    H2 7744   4.821   1.915   1.129
 2594TIP3   OH2 7745   4.193   0.075   5.075
 2594TIP3    H1 7746   4.121   0.038   5.126
 2594TIP3    H2 7747   4.176   0.045   4.985
 2595TIP3   OH2 7748   4.156   4.395   5.228
 2595TIP3    H1 7749   4.139   4.405   5.134
 2595TIP3    H2 7750   4.246   4.363   5.233
 2596TIP3   OH2 7751   2.089   2.488   1.693
 2596TIP3    H1 7752   2.058   2.430   1.762
 2596TIP3    H2 7753   2.015   2.546   1.675
 2597TIP3   OH2 7754   4.806   4.739   4.411
 2597TIP3    H1 7755   4.755   4.689   4.347
 2597TIP3    H2 7756   4.778   4.705   4.496
 2598TIP3   OH2 7757   4.480   2.858   4.076
 2598TIP3    H1 7758   4.519   2.774   4.099
 2598TIP3    H2 7759   4.394   2.858   4.120
 2599TIP3   OH2 7760   1.169   3.774   1.443
 2599TIP3    H1 7761   1.249   3.763   1.392
 2599TIP3    H2 7762   1.150   3.868   1.439
 2600TIP3   OH2 7763   2.421   6.550   2.347
 2600TIP3    H1 7764   2.423   6.630   2.296
 2600TIP3    H2 7765   2.481   6.491   2.301
 2601TIP3   OH2 7766   1.111   5.529   0.827
 2601TIP3    H1 7767   1.131   5.612   0.870
 2601TIP3    H2 7768   1.026   5.503   0.864
 2602TIP3   OH2 7769   1.976   1.835   3.115
 2602TIP3    H1 7770   2.003   1.797   3.198
 2602TIP3    H2 7771   2.024   1.918   3.109
 2603TIP3   OH2 7772   4.245   4.593   5.785
 2603TIP3    H1 7773   4.285   4.615   5.870
 2603TIP3    H2 7774   4.213   4.504   5.796
 2604TIP3   OH2 7775   3.487   0.423   5.322
 2604TIP3    H1 7776   3.538   0.419   5.241
 2604TIP3    H2 7777   3.552   0.417   5.392
 2605TIP3   OH2 7778   5.250   5.382   3.786
 2605TIP3    H1 7779   5.305   5.382   3.864
 2605TIP3    H2 7780   5.160   5.386   3.820
 2606TIP3   OH2 7781   0.723   0.625   4.499
 2606TIP3    H1 7782   0.717   0.699   4.438
 2606TIP3    H2 7783   0.665   0.559   4.461
 2607TIP3   OH2 7784   2.244   5.821   1.578
 2607TIP3    H1 7785   2.322   5.773   1.606
 2607TIP3    H2 7786   2.172   5.780   1.625
 2608TIP3   OH2 7787   1.211  -0.012   4.728
 2608TIP3    H1 7788   1.294   0.032   4.743
 2608TIP3    H2 7789   1.233  -0.088   4.673
 2609TIP3   OH2 7790   5.503   3.446   2.547
 2609TIP3    H1 7791   5.481   3.359   2.514
 2609TIP3    H2 7792   5.563   3.482   2.482
 2610TIP3   OH2 7793   4.071   0.442   2.808
 2610TIP3    H1 7794   4.094   0.378   2.876
 2610TIP3    H2 7795   4.150   0.495   2.798
 2611TIP3   OH2 7796   7.023   3.480   0.411
 2611TIP3    H1 7797   7.002   3.448   0.323
 2611TIP3    H2 7798   6.958   3.439   0.468
 2612TIP3   OH2 7799   0.465   4.536   1.864
 2612TIP3    H1 7800   0.533   4.595   1.897
 2612TIP3    H2 7801   0.447   4.477   1.937
 2613TIP3   OH2 7802   3.114   6.305   2.219
 2613TIP3    H1 7803   3.194   6.354   2.201
 2613TIP3    H2 7804   3.125   6.222   2.172
 2614TIP3   OH2 7805   1.278   2.756   2.766
 2614TIP3    H1 7806   1.342   2.797   2.708
 2614TIP3    H2 7807   1.205   2.731   2.709
 2615TIP3   OH2 7808   4.343   1.059   5.649
 2615TIP3    H1 7809   4.286   1.093   5.581
 2615TIP3    H2 7810   4.431   1.064   5.611
 2616TIP3   OH2 7811   6.553   3.462   4.294
 2616TIP3    H1 7812   6.609   3.396   4.252
 2616TIP3    H2 7813   6.493   3.411   4.348
 2617TIP3   OH2 7814   3.661   6.423   2.776
 2617TIP3    H1 7815   3.611   6.446   2.698
 2617TIP3    H2 7816   3.652   6.500   2.834
 2618TIP3   OH2 7817   2.602   3.333   1.903
 2618TIP3    H1 7818   2.591   3.368   1.814
 2618TIP3    H2 7819   2.513   3.329   1.938
 2619TIP3   OH2 7820   4.870   0.218   1.154
 2619TIP3    H1 7821   4.784   0.222   1.196
 2619TIP3    H2 7822   4.881   0.305   1.115
 2620TIP3   OH2 7823   7.021   0.073   1.036
 2620TIP3    H1 7824   6.971   0.046   1.113
 2620TIP3    H2 7825   7.004   0.167   1.028
 2621TIP3   OH2 7826   5.151   2.167   4.550
 2621TIP3    H1 7827   5.125   2.183   4.459
 2621TIP3    H2 7828   5.068   2.162   4.598
 2622TIP3   OH2 7829   1.095   3.648   1.864
 2622TIP3    H1 7830   1.161   3.597   1.816
 2622TIP3    H2 7831   1.023   3.659   1.802
 2623TIP3   OH2 7832   2.628   2.873   2.540
 2623TIP3    H1 7833   2.710   2.917   2.559
 2623TIP3    H2 7834   2.636   2.788   2.583
 2624TIP3   OH2 7835   0.533   6.642   5.141
 2624TIP3    H1 7836   0.599   6.572   5.140
 2624TIP3    H2 7837   0.455   6.600   5.105
 2625TIP3   OH2 7838   0.270   1.080   4.274
 2625TIP3    H1 7839   0.348   1.033   4.304
 2625TIP3    H2 7840   0.296   1.172   4.273
 2626TIP3   OH2 7841   2.336   1.682   4.043
 2626TIP3    H1 7842   2.340   1.724   4.129
 2626TIP3    H2 7843   2.428   1.680   4.014
 2627TIP3   OH2 7844   6.518   6.440   2.841
 2627TIP3    H1 7845   6.445   6.437   2.903
 2627TIP3    H2 7846   6.506   6.523   2.794
 2628TIP3   OH2 7847   4.615   6.336   3.761
 2628TIP3    H1 7848   4.565   6.409   3.797
 2628TIP3    H2 7849   4.555   6.261   3.767
 2629TIP3   OH2 7850   3.549   0.070   0.527
 2629TIP3    H1 7851   3.461   0.043   0.502
 2629TIP3    H2 7852   3.547   0.166   0.524
 2630TIP3   OH2 7853   4.450   6.588   0.596
 2630TIP3    H1 7854   4.448   6.669   0.546
 2630TIP3    H2 7855   4.397   6.526   0.545
 2631TIP3   OH2 7856   0.130   2.631   4.833
 2631TIP3    H1 7857   0.040   2.607   4.854
 2631TIP3    H2 7858   0.123   2.718   4.793
 2632TIP3   OH2 7859   6.197   4.265   1.475
 2632TIP3    H1 7860   6.273   4.285   1.530
 2632TIP3    H2 7861   6.134   4.334   1.494
 2633TIP3   OH2 7862   5.474   0.232   5.385
 2633TIP3    H1 7863   5.526   0.197   5.312
 2633TIP3    H2 7864   5.428   0.306   5.347
 2634TIP3   OH2 7865   1.387   1.809   1.007
 2634TIP3    H1 7866   1.376   1.870   0.934
 2634TIP3    H2 7867   1.482   1.802   1.018
 2635TIP3   OH2 7868   1.302   0.317   5.620
 2635TIP3    H1 7869   1.307   0.236   5.568
 2635TIP3    H2 7870   1.266   0.382   5.559
 2636TIP3   OH2 7871   6.317   0.658   4.009
 2636TIP3    H1 7872   6.350   0.716   3.941
 2636TIP3    H2 7873   6.280   0.717   4.075
 2637TIP3   OH2 7874   4.463   0.552   3.377
 2637TIP3    H1 7875   4.488   0.613   3.308
 2637TIP3    H2 7876   4.417   0.481   3.332
 2638TIP3   OH2 7877   6.991   2.367   5.571
 2638TIP3    H1 7878   6.924   2.313   5.613
 2638TIP3    H2 7879   6.982   2.347   5.477
 2639TIP3   OH2 7880   2.866   2.325   4.499
 2639TIP3    H1 7881   2.846   2.418   4.495
 2639TIP3    H2 7882   2.945   2.319   4.553
 2640TIP3   OH2 7883   1.506   5.695   5.164
 2640TIP3    H1 7884   1.529   5.611   5.123
 2640TIP3    H2 7885   1.428   5.675   5.216
 2641TIP3   OH2 7886   1.497   2.502   5.636
 2641TIP3    H1 7887   1.495   2.466   5.725
 2641TIP3    H2 7888   1.426   2.457   5.591
 2642TIP3   OH2 7889   3.964   5.669   5.282
 2642TIP3    H1 7890   3.880   5.705   5.253
 2642TIP3    H2 7891   4.003   5.634   5.202
 2643TIP3   OH2 7892   5.106   2.000   3.659
 2643TIP3    H1 7893   5.159   2.009   3.580
 2643TIP3    H2 7894   5.017   2.016   3.630
 2644TIP3   OH2 7895   0.224   6.581   0.074
 2644TIP3    H1 7896   0.297   6.527   0.107
 2644TIP3    H2 7897   0.145   6.535   0.102
 2645TIP3   OH2 7898   4.343   1.833   1.366
 2645TIP3    H1 7899   4.322   1.767   1.300
 2645TIP3    H2 7900   4.345   1.785   1.448
 2646TIP3   OH2 7901   5.679   2.394   1.319
 2646TIP3    H1 7902   5.735   2.382   1.242
 2646TIP3    H2 7903   5.634   2.478   1.303
 2647TIP3   OH2 7904   3.459   2.873   0.125
 2647TIP3    H1 7905   3.527   2.864   0.058
 2647TIP3    H2 7906   3.377   2.876   0.075
 2648TIP3   OH2 7907   6.548   5.491   0.472
 2648TIP3    H1 7908   6.453   5.480   0.466
 2648TIP3    H2 7909   6.572   5.450   0.555
 2649TIP3   OH2 7910   0.018   0.463   1.858
 2649TIP3    H1 7911   0.012   0.482   1.764
 2649TIP3    H2 7912   0.111   0.446   1.873
 2650TIP3   OH2 7913   2.521   0.247   5.466
 2650TIP3    H1 7914   2.566   0.163   5.467
 2650TIP3    H2 7915   2.542   0.284   5.381
 2651TIP3   OH2 7916   4.506   6.516   3.933
 2651TIP3    H1 7917   4.508   6.611   3.934
 2651TIP3    H2 7918   4.544   6.490   4.017
 2652TIP3   OH2 7919   4.112   4.259   2.034
 2652TIP3    H1 7920   4.198   4.227   2.059
 2652TIP3    H2 7921   4.129   4.323   1.965
 2653TIP3   OH2 7922   3.118   0.894   1.063
 2653TIP3    H1 7923   3.138   0.855   1.147
 2653TIP3    H2 7924   3.037   0.944   1.078
 2654TIP3   OH2 7925   3.434   5.944   0.690
 2654TIP3    H1 7926   3.456   6.031   0.725
 2654TIP3    H2 7927   3.416   5.959   0.597
 2655TIP3   OH2 7928   0.386   2.671   3.532
 2655TIP3    H1 7929   0.427   2.637   3.453
 2655TIP3    H2 7930   0.443   2.741   3.562
 2656TIP3   OH2 7931   3.381   6.520   0.613
 2656TIP3    H1 7932   3.288   6.543   0.617
 2656TIP3    H2 7933   3.391   6.474   0.531
 2657TIP3   OH2 7934   5.135   5.834   4.225
 2657TIP3    H1 7935   5.103   5.745   4.209
 2657TIP3    H2 7936   5.225   5.834   4.194
 2658TIP3   OH2 7937   1.833   0.426   5.503
 2658TIP3    H1 7938   1.912   0.457   5.458
 2658TIP3    H2 7939   1.867   0.369   5.573
 2659TIP3   OH2 7940   5.222   5.595   2.178
 2659TIP3    H1 7941   5.189   5.608   2.267
 2659TIP3    H2 7942   5.309   5.558   2.190
 2660TIP3   OH2 7943   5.101   3.603   5.672
 2660TIP3    H1 7944   5.079   3.629   5.582
 2660TIP3    H2 7945   5.038   3.651   5.726
 2661TIP3   OH2 7946   6.273   0.838   5.501
 2661TIP3    H1 7947   6.349   0.892   5.481
 2661TIP3    H2 7948   6.261   0.848   5.596
 2662TIP3   OH2 7949   3.993   3.620   3.006
 2662TIP3    H1 7950   3.995   3.544   3.064
 2662TIP3    H2 7951   3.997   3.583   2.918
 2663TIP3   OH2 7952   0.939   4.764   4.176
 2663TIP3    H1 7953   1.021   4.813   4.181
 2663TIP3    H2 7954   0.875   4.826   4.142
 2664TIP3   OH2 7955   0.044   6.646   5.462
 2664TIP3    H1 7956  -0.015   6.642   5.537
 2664TIP3    H2 7957  -0.012   6.630   5.387
 2665TIP3   OH2 7958   3.747   1.627   0.055
 2665TIP3    H1 7959   3.825   1.674   0.028
 2665TIP3    H2 7960   3.676   1.663   0.001
 2666TIP3   OH2 7961   2.277   5.165   0.623
 2666TIP3    H1 7962   2.348   5.127   0.570
 2666TIP3    H2 7963   2.198   5.147   0.572
 2667TIP3   OH2 7964   2.084   6.398   5.259
 2667TIP3    H1 7965   2.048   6.331   5.200
 2667TIP3    H2 7966   2.020   6.403   5.331
 2668TIP3   OH2 7967   3.324   2.751   4.412
 2668TIP3    H1 7968   3.270   2.702   4.474
 2668TIP3    H2 7969   3.268   2.763   4.336
 2669TIP3   OH2 7970   5.931   2.554   5.836
 2669TIP3    H1 7971   6.027   2.554   5.837
 2669TIP3    H2 7972   5.907   2.531   5.747
 2670TIP3   OH2 7973   2.610   1.511   2.621
 2670TIP3    H1 7974   2.533   1.474   2.665
 2670TIP3    H2 7975   2.676   1.517   2.691
 2671TIP3   OH2 7976   1.714   5.611   5.920
 2671TIP3    H1 7977   1.708   5.524   5.881
 2671TIP3    H2 7978   1.739   5.669   5.847
 2672TIP3   OH2 7979   0.899   1.451   2.073
 2672TIP3    H1 7980   0.831   1.441   2.139
 2672TIP3    H2 7981   0.855   1.494   1.999
 2673TIP3   OH2 7982   3.543   2.574   1.484
 2673TIP3    H1 7983   3.548   2.623   1.566
 2673TIP3    H2 7984   3.527   2.484   1.510
 2674TIP3   OH2 7985   4.581   2.487   4.079
 2674TIP3    H1 7986   4.495   2.501   4.119
 2674TIP3    H2 7987   4.638   2.551   4.120
 2675TIP3   OH2 7988   5.710   5.612   4.010
 2675TIP3    H1 7989   5.760   5.612   3.928
 2675TIP3    H2 7990   5.630   5.660   3.989
 2676TIP3   OH2 7991   1.836   0.906   2.809
 2676TIP3    H1 7992   1.878   0.829   2.772
 2676TIP3    H2 7993   1.799   0.952   2.733
 2677TIP3   OH2 7994   5.566   3.992   0.117
 2677TIP3    H1 7995   5.477   4.023   0.130
 2677TIP3    H2 7996   5.586   3.943   0.197
 2678TIP3   OH2 7997   3.770   0.592   2.932
 2678TIP3    H1 7998   3.763   0.682   2.963
 2678TIP3    H2 7999   3.782   0.540   3.011
 2679TIP3   OH2 8000   2.924   6.294   3.516
 2679TIP3    H1 8001   2.984   6.242   3.463
 2679TIP3    H2 8002   2.886   6.357   3.454
 2680TIP3   OH2 8003   1.205   0.909   4.421
 2680TIP3    H1 8004   1.158   0.841   4.469
 2680TIP3    H2 8005   1.150   0.988   4.430
 2681TIP3   OH2 8006   5.337   0.742   1.079
 2681TIP3    H1 8007   5.361   0.826   1.117
 2681TIP3    H2 8008   5.403   0.681   1.113
 2682TIP3   OH2 8009   5.724   5.441   1.565
 2682TIP3    H1 8010   5.675   5.506   1.615
 2682TIP3    H2 8011   5.704   5.460   1.473
 2683TIP3   OH2 8012   6.588   1.471   2.822
 2683TIP3    H1 8013   6.502   1.470   2.865
 2683TIP3    H2 8014   6.640   1.407   2.869
 2684TIP3   OH2 8015   6.953   2.345   4.619
 2684TIP3    H1 8016   6.972   2.261   4.577
 2684TIP3    H2 8017   6.914   2.398   4.550
 2685TIP3   OH2 8018   5.086   5.700   4.795
 2685TIP3    H1 8019   5.034   5.663   4.724
 2685TIP3    H2 8020   5.057   5.653   4.874
 2686TIP3   OH2 8021   7.004   1.099   0.733
 2686TIP3    H1 8022   7.040   1.081   0.646
 2686TIP3    H2 8023   7.057   1.171   0.767
 2687TIP3   OH2 8024   2.533   5.986   4.396
 2687TIP3    H1 8025   2.486   6.063   4.363
 2687TIP3    H2 8026   2.492   5.967   4.480
 2688TIP3   OH2 8027   6.861   1.211   4.248
 2688TIP3    H1 8028   6.852   1.246   4.336
 2688TIP3    H2 8029   6.811   1.129   4.249
 2689TIP3   OH2 8030   4.220   1.127   3.779
 2689TIP3    H1 8031   4.186   1.201   3.829
 2689TIP3    H2 8032   4.143   1.075   3.757
 2690TIP3   OH2 8033   4.376   0.248   5.520
 2690TIP3    H1 8034   4.465   0.245   5.553
 2690TIP3    H2 8035   4.384   0.233   5.426
 2691TIP3   OH2 8036   3.671   1.161   5.695
 2691TIP3    H1 8037   3.614   1.198   5.763
 2691TIP3    H2 8038   3.615   1.155   5.618
 2692TIP3   OH2 8039   2.573   5.437   2.208
 2692TIP3    H1 8040   2.645   5.454   2.146
 2692TIP3    H2 8041   2.494   5.445   2.155
 2693TIP3   OH2 8042   5.334   1.388   5.540
 2693TIP3    H1 8043   5.393   1.460   5.559
 2693TIP3    H2 8044   5.359   1.320   5.603
 2694TIP3   OH2 8045   5.235   4.606   3.221
 2694TIP3    H1 8046   5.268   4.598   3.310
 2694TIP3    H2 8047   5.229   4.516   3.189
 2695TIP3   OH2 8048   6.629   5.971   4.714
 2695TIP3    H1 8049   6.549   5.962   4.766
 2695TIP3    H2 8050   6.695   5.921   4.762
 2696TIP3   OH2 8051   6.541   4.513   5.781
 2696TIP3    H1 8052   6.453   4.503   5.744
 2696TIP3    H2 8053   6.589   4.437   5.747
 2697TIP3   OH2 8054   0.521   4.047   2.679
 2697TIP3    H1 8055   0.574   4.002   2.744
 2697TIP3    H2 8056   0.442   4.074   2.726
 2698TIP3   OH2 8057   1.938   2.093   3.461
 2698TIP3    H1 8058   1.963   2.093   3.369
 2698TIP3    H2 8059   1.952   2.184   3.489
 2699TIP3   OH2 8060   6.110   4.639   5.002
 2699TIP3    H1 8061   6.103   4.681   5.088
 2699TIP3    H2 8062   6.200   4.606   5.000
 2700TIP3   OH2 8063   0.744   5.508   5.007
 2700TIP3    H1 8064   0.652   5.515   5.036
 2700TIP3    H2 8065   0.773   5.424   5.042
 2701TIP3   OH2 8066   2.561   4.343   5.025
 2701TIP3    H1 8067   2.649   4.304   5.023
 2701TIP3    H2 8068   2.529   4.326   5.113
 2702TIP3   OH2 8069   5.344   3.938   2.166
 2702TIP3    H1 8070   5.426   3.945   2.118
 2702TIP3    H2 8071   5.276   3.947   2.100
 2703TIP3   OH2 8072   2.756   0.781   4.332
 2703TIP3    H1 8073   2.840   0.745   4.362
 2703TIP3    H2 8074   2.733   0.727   4.257
 2704TIP3   OH2 8075   6.328   2.446   0.799
 2704TIP3    H1 8076   6.399   2.509   0.811
 2704TIP3    H2 8077   6.250   2.490   0.831
 2705TIP3   OH2 8078   6.236   3.113   4.433
 2705TIP3    H1 8079   6.221   3.192   4.486
 2705TIP3    H2 8080   6.237   3.042   4.497
 2706TIP3   OH2 8081   0.168   1.377   4.045
 2706TIP3    H1 8082   0.122   1.370   4.129
 2706TIP3    H2 8083   0.230   1.449   4.058
 2707TIP3   OH2 8084   1.430   2.116   0.976
 2707TIP3    H1 8085   1.507   2.060   0.988
 2707TIP3    H2 8086   1.403   2.100   0.886
 2708TIP3   OH2 8087   6.242   2.805   1.703
 2708TIP3    H1 8088   6.177   2.805   1.773
 2708TIP3    H2 8089   6.290   2.888   1.716
 2709TIP3   OH2 8090   2.903   4.683   3.669
 2709TIP3    H1 8091   2.928   4.753   3.608
 2709TIP3    H2 8092   2.823   4.715   3.709
 2710TIP3   OH2 8093   3.247   4.508   0.937
 2710TIP3    H1 8094   3.335   4.536   0.962
 2710TIP3    H2 8095   3.202   4.489   1.020
 2711TIP3   OH2 8096   3.478   6.763   5.136
 2711TIP3    H1 8097   3.402   6.771   5.078
 2711TIP3    H2 8098   3.514   6.676   5.116
 2712TIP3   OH2 8099   5.146   5.780   3.360
 2712TIP3    H1 8100   5.172   5.744   3.445
 2712TIP3    H2 8101   5.207   5.852   3.344
 2713TIP3   OH2 8102   0.435   4.882   3.226
 2713TIP3    H1 8103   0.428   4.799   3.180
 2713TIP3    H2 8104   0.503   4.930   3.178
 2714TIP3   OH2 8105   1.206   3.017   3.501
 2714TIP3    H1 8106   1.130   3.072   3.518
 2714TIP3    H2 8107   1.262   3.069   3.443
 2715TIP3   OH2 8108   5.584   4.207   1.952
 2715TIP3    H1 8109   5.616   4.185   1.865
 2715TIP3    H2 8110   5.489   4.194   1.947
 2716TIP3   OH2 8111   1.116   0.084   5.511
 2716TIP3    H1 8112   1.058   0.108   5.582
 2716TIP3    H2 8113   1.092   0.143   5.439
 2717TIP3   OH2 8114   6.283   4.976   1.331
 2717TIP3    H1 8115   6.337   4.985   1.410
 2717TIP3    H2 8116   6.277   4.881   1.317
 2718TIP3   OH2 8117   6.292   5.107   1.994
 2718TIP3    H1 8118   6.327   5.020   2.012
 2718TIP3    H2 8119   6.232   5.094   1.920
 2719TIP3   OH2 8120   4.886   5.422   4.369
 2719TIP3    H1 8121   4.857   5.503   4.329
 2719TIP3    H2 8122   4.982   5.426   4.366
 2720TIP3   OH2 8123   1.061   1.165   0.224
 2720TIP3    H1 8124   0.966   1.177   0.229
 2720TIP3    H2 8125   1.090   1.161   0.315
 2721TIP3   OH2 8126   4.500   2.389   0.873
 2721TIP3    H1 8127   4.498   2.328   0.799
 2721TIP3    H2 8128   4.438   2.457   0.849
 2722TIP3   OH2 8129   3.550   4.375   3.798
 2722TIP3    H1 8130   3.622   4.319   3.766
 2722TIP3    H2 8131   3.571   4.389   3.891
 2723TIP3   OH2 8132   3.391   0.416   3.553
 2723TIP3    H1 8133   3.475   0.442   3.590
 2723TIP3    H2 8134   3.411   0.385   3.465
 2724TIP3   OH2 8135   3.972   4.152   2.703
 2724TIP3    H1 8136   3.999   4.068   2.739
 2724TIP3    H2 8137   3.961   4.136   2.609
 2725TIP3   OH2 8138   3.387   1.113   3.252
 2725TIP3    H1 8139   3.353   1.046   3.193
 2725TIP3    H2 8140   3.477   1.086   3.269
 2726TIP3   OH2 8141   2.788   2.150   1.206
 2726TIP3    H1 8142   2.778   2.077   1.145
 2726TIP3    H2 8143   2.851   2.118   1.271
 2727TIP3   OH2 8144   2.037   2.580   4.943
 2727TIP3    H1 8145   1.955   2.620   4.915
 2727TIP3    H2 8146   2.095   2.589   4.868
 2728TIP3   OH2 8147   1.990   3.956   3.102
 2728TIP3    H1 8148   1.974   3.931   3.193
 2728TIP3    H2 8149   2.061   3.898   3.073
 2729TIP3   OH2 8150   5.095   2.944   1.587
 2729TIP3    H1 8151   5.041   3.014   1.623
 2729TIP3    H2 8152   5.185   2.972   1.605
 2730TIP3   OH2 8153   2.898   2.627   1.655
 2730TIP3    H1 8154   2.878   2.543   1.613
 2730TIP3    H2 8155   2.818   2.648   1.705
 2731TIP3   OH2 8156   3.316   4.411   0.241
 2731TIP3    H1 8157   3.261   4.377   0.169
 2731TIP3    H2 8158   3.311   4.343   0.308
 2732TIP3   OH2 8159   3.927   6.501   1.107
 2732TIP3    H1 8160   3.931   6.500   1.203
 2732TIP3    H2 8161   3.886   6.584   1.085
 2733TIP3   OH2 8162   1.418   0.889   2.613
 2733TIP3    H1 8163   1.408   0.904   2.707
 2733TIP3    H2 8164   1.332   0.911   2.576
 2734TIP3   OH2 8165   3.546   0.311   2.985
 2734TIP3    H1 8166   3.640   0.308   2.967
 2734TIP3    H2 8167   3.505   0.331   2.901
 2735TIP3   OH2 8168   6.416   1.036   3.724
 2735TIP3    H1 8169   6.396   0.947   3.752
 2735TIP3    H2 8170   6.452   1.079   3.802
 2736TIP3   OH2 8171   4.071   3.815   1.689
 2736TIP3    H1 8172   4.010   3.781   1.624
 2736TIP3    H2 8173   4.065   3.910   1.680
 2737TIP3   OH2 8174   2.447   1.036   1.709
 2737TIP3    H1 8175   2.460   0.990   1.626
 2737TIP3    H2 8176   2.463   1.128   1.688
 2738TIP3   OH2 8177   6.280   6.419   0.843
 2738TIP3    H1 8178   6.296   6.437   0.936
 2738TIP3    H2 8179   6.202   6.363   0.843
 2739TIP3   OH2 8180   4.160   2.484   4.929
 2739TIP3    H1 8181   4.161   2.409   4.988
 2739TIP3    H2 8182   4.226   2.544   4.964
 2740TIP3   OH2 8183   6.550   0.619   0.332
 2740TIP3    H1 8184   6.560   0.698   0.279
 2740TIP3    H2 8185   6.586   0.643   0.418
 2741TIP3   OH2 8186   4.773   6.451   2.725
 2741TIP3    H1 8187   4.719   6.519   2.685
 2741TIP3    H2 8188   4.765   6.377   2.665
 2742TIP3   OH2 8189   4.763   2.905   3.225
 2742TIP3    H1 8190   4.743   2.982   3.173
 2742TIP3    H2 8191   4.783   2.939   3.312
 2743TIP3   OH2 8192   3.436   6.240   1.885
 2743TIP3    H1 8193   3.371   6.303   1.916
 2743TIP3    H2 8194   3.437   6.171   1.951
 2744TIP3   OH2 8195   0.539   5.305   0.313
 2744TIP3    H1 8196   0.477   5.262   0.373
 2744TIP3    H2 8197   0.618   5.252   0.319
 2745TIP3   OH2 8198   2.439   5.645   4.827
 2745TIP3    H1 8199   2.446   5.562   4.780
 2745TIP3    H2 8200   2.372   5.629   4.894
 2746TIP3   OH2 8201   6.809   6.004   5.627
 2746TIP3    H1 8202   6.752   5.993   5.702
 2746TIP3    H2 8203   6.757   6.054   5.564
 2747TIP3   OH2 8204   3.073   4.482   3.767
 2747TIP3    H1 8205   3.150   4.536   3.783
 2747TIP3    H2 8206   3.007   4.543   3.732
 2748TIP3   OH2 8207   0.809   3.753   2.465
 2748TIP3    H1 8208   0.851   3.702   2.533
 2748TIP3    H2 8209   0.847   3.721   2.383
 2749TIP3   OH2 8210   6.985   3.174   0.744
 2749TIP3    H1 8211   6.939   3.104   0.698
 2749TIP3    H2 8212   7.026   3.226   0.675
 2750TIP3   OH2 8213   5.494   6.561   3.931
 2750TIP3    H1 8214   5.576   6.608   3.919
 2750TIP3    H2 8215   5.429   6.614   3.884
 2751TIP3   OH2 8216   0.919   0.386   1.400
 2751TIP3    H1 8217   1.007   0.396   1.363
 2751TIP3    H2 8218   0.908   0.462   1.458
 2752TIP3   OH2 8219   7.122   4.883   5.329
 2752TIP3    H1 8220   7.041   4.836   5.310
 2752TIP3    H2 8221   7.183   4.815   5.358
 2753TIP3   OH2 8222   4.858   6.742   3.119
 2753TIP3    H1 8223   4.914   6.666   3.099
 2753TIP3    H2 8224   4.786   6.706   3.170
 2754TIP3   OH2 8225   3.038   2.583   1.354
 2754TIP3    H1 8226   2.970   2.530   1.396
 2754TIP3    H2 8227   3.022   2.572   1.260
 2755TIP3   OH2 8228   5.913   5.110   0.828
 2755TIP3    H1 8229   5.998   5.130   0.788
 2755TIP3    H2 8230   5.932   5.041   0.891
 2756TIP3   OH2 8231   6.939   5.685   1.865
 2756TIP3    H1 8232   6.916   5.692   1.772
 2756TIP3    H2 8233   6.951   5.776   1.893
 2757TIP3   OH2 8234   6.278   0.074   2.836
 2757TIP3    H1 8235   6.185   0.071   2.860
 2757TIP3    H2 8236   6.310  -0.014   2.856
 2758TIP3   OH2 8237   5.758   1.216   3.478
 2758TIP3    H1 8238   5.737   1.242   3.388
 2758TIP3    H2 8239   5.848   1.246   3.491
 2759TIP3   OH2 8240   1.154   0.933   5.450
 2759TIP3    H1 8241   1.148   0.837   5.455
 2759TIP3    H2 8242   1.239   0.949   5.409
 2760TIP3   OH2 8243   0.523   1.995   0.226
 2760TIP3    H1 8244   0.526   1.913   0.275
 2760TIP3    H2 8245   0.436   1.995   0.185
 2761TIP3   OH2 8246   1.670   6.604   2.931
 2761TIP3    H1 8247   1.627   6.689   2.938
 2761TIP3    H2 8248   1.728   6.612   2.855
 2762TIP3   OH2 8249   5.396  -0.014   4.188
 2762TIP3    H1 8250   5.358  -0.016   4.275
 2762TIP3    H2 8251   5.325   0.019   4.132
 2763TIP3   OH2 8252   3.140   3.088   3.580
 2763TIP3    H1 8253   3.195   3.156   3.620
 2763TIP3    H2 8254   3.184   3.068   3.498
 2764TIP3   OH2 8255   5.804   1.924   4.825
 2764TIP3    H1 8256   5.782   1.989   4.891
 2764TIP3    H2 8257   5.850   1.973   4.757
 2765TIP3   OH2 8258   2.796   2.965   2.212
 2765TIP3    H1 8259   2.884   2.977   2.178
 2765TIP3    H2 8260   2.777   3.046   2.260
 2766TIP3   OH2 8261   4.948   3.579   5.415
 2766TIP3    H1 8262   5.007   3.503   5.419
 2766TIP3    H2 8263   4.968   3.621   5.331
 2767TIP3   OH2 8264   1.185   4.552   3.248
 2767TIP3    H1 8265   1.228   4.473   3.283
 2767TIP3    H2 8266   1.136   4.520   3.172
 2768TIP3   OH2 8267   2.601   2.107   3.176
 2768TIP3    H1 8268   2.508   2.120   3.198
 2768TIP3    H2 8269   2.625   2.025   3.221
 2769TIP3   OH2 8270   2.586   6.350   4.311
 2769TIP3    H1 8271   2.657   6.337   4.373
 2769TIP3    H2 8272   2.601   6.437   4.275
 2770TIP3   OH2 8273   1.687   1.025   3.784
 2770TIP3    H1 8274   1.767   1.044   3.834
 2770TIP3    H2 8275   1.617   1.062   3.837
 2771TIP3   OH2 8276   6.571   6.222   4.947
 2771TIP3    H1 8277   6.603   6.155   5.006
 2771TIP3    H2 8278   6.476   6.220   4.957
 2772TIP3   OH2 8279   5.525   6.222   1.141
 2772TIP3    H1 8280   5.608   6.271   1.138
 2772TIP3    H2 8281   5.501   6.223   1.234
 2773TIP3   OH2 8282   1.754   4.906   3.129
 2773TIP3    H1 8283   1.713   4.819   3.139
 2773TIP3    H2 8284   1.848   4.889   3.137
 2774TIP3   OH2 8285   3.264   3.571   4.883
 2774TIP3    H1 8286   3.302   3.623   4.954
 2774TIP3    H2 8287   3.180   3.541   4.918
 2775TIP3   OH2 8288   4.428   3.349   2.185
 2775TIP3    H1 8289   4.426   3.397   2.103
 2775TIP3    H2 8290   4.510   3.375   2.227
 2776TIP3   OH2 8291   1.959   4.174   0.414
 2776TIP3    H1 8292   1.893   4.106   0.399
 2776TIP3    H2 8293   2.039   4.137   0.377
 2777TIP3   OH2 8294   3.263   5.230   5.857
 2777TIP3    H1 8295   3.198   5.163   5.881
 2777TIP3    H2 8296   3.257   5.295   5.928
 2778TIP3   OH2 8297   3.412   4.514   1.221
 2778TIP3    H1 8298   3.459   4.534   1.140
 2778TIP3    H2 8299   3.450   4.432   1.252
 2779TIP3   OH2 8300   1.122   1.247   5.198
 2779TIP3    H1 8301   1.134   1.164   5.151
 2779TIP3    H2 8302   1.197   1.300   5.173
 2780TIP3   OH2 8303   1.027   1.483   1.000
 2780TIP3    H1 8304   1.001   1.572   0.976
 2780TIP3    H2 8305   1.121   1.480   0.984
 2781TIP3   OH2 8306   5.099   2.938   3.486
 2781TIP3    H1 8307   5.074   2.959   3.396
 2781TIP3    H2 8308   5.017   2.921   3.531
 2782TIP3   OH2 8309   2.886   1.136   3.992
 2782TIP3    H1 8310   2.884   1.229   4.013
 2782TIP3    H2 8311   2.888   1.093   4.078
 2783TIP3   OH2 8312   4.093   6.389   2.141
 2783TIP3    H1 8313   4.048   6.375   2.057
 2783TIP3    H2 8314   4.150   6.312   2.151
 2784TIP3   OH2 8315   4.498   3.637   0.732
 2784TIP3    H1 8316   4.524   3.677   0.815
 2784TIP3    H2 8317   4.579   3.634   0.681
 2785TIP3   OH2 8318   2.063   3.004   1.939
 2785TIP3    H1 8319   2.089   3.006   2.031
 2785TIP3    H2 8320   2.051   3.096   1.916
 2786TIP3   OH2 8321   0.323   3.693   0.239
 2786TIP3    H1 8322   0.362   3.767   0.194
 2786TIP3    H2 8323   0.229   3.700   0.222
 2787TIP3   OH2 8324   6.099   5.340   5.836
 2787TIP3    H1 8325   6.075   5.412   5.778
 2787TIP3    H2 8326   6.065   5.262   5.793
 2788TIP3   OH2 8327   6.348   1.736   0.963
 2788TIP3    H1 8328   6.277   1.771   1.017
 2788TIP3    H2 8329   6.382   1.812   0.916
 2789TIP3   OH2 8330   0.087   4.693   3.239
 2789TIP3    H1 8331   0.091   4.781   3.203
 2789TIP3    H2 8332   0.115   4.703   3.330
 2790TIP3   OH2 8333   5.783   1.669   2.835
 2790TIP3    H1 8334   5.763   1.576   2.842
 2790TIP3    H2 8335   5.872   1.671   2.800
 2791TIP3   OH2 8336   4.253   2.008   5.833
 2791TIP3    H1 8337   4.184   2.010   5.767
 2791TIP3    H2 8338   4.290   1.920   5.826
 2792TIP3   OH2 8339   2.102   5.975   1.128
 2792TIP3    H1 8340   2.194   5.988   1.106
 2792TIP3    H2 8341   2.062   6.061   1.114
 2793TIP3   OH2 8342   5.632   0.653   5.587
 2793TIP3    H1 8343   5.617   0.562   5.563
 2793TIP3    H2 8344   5.724   0.669   5.563
 2794TIP3   OH2 8345   4.551   6.794   3.630
 2794TIP3    H1 8346   4.581   6.867   3.685
 2794TIP3    H2 8347   4.481   6.832   3.577
 2795TIP3   OH2 8348   5.948   2.495   1.667
 2795TIP3    H1 8349   5.858   2.524   1.655
 2795TIP3    H2 8350   5.942   2.401   1.682
 2796TIP3   OH2 8351   2.380   3.131   2.808
 2796TIP3    H1 8352   2.441   3.190   2.852
 2796TIP3    H2 8353   2.336   3.084   2.879
 2797TIP3   OH2 8354   6.500   6.509   3.295
 2797TIP3    H1 8355   6.516   6.443   3.228
 2797TIP3    H2 8356   6.565   6.577   3.278
 2798TIP3   OH2 8357   0.457   5.170   2.511
 2798TIP3    H1 8358   0.510   5.151   2.588
 2798TIP3    H2 8359   0.519   5.174   2.439
 2799TIP3   OH2 8360   1.253   5.443   4.176
 2799TIP3    H1 8361   1.297   5.388   4.111
 2799TIP3    H2 8362   1.162   5.448   4.146
 2800TIP3   OH2 8363   5.189   6.760   0.810
 2800TIP3    H1 8364   5.116   6.700   0.806
 2800TIP3    H2 8365   5.213   6.763   0.902
 2801TIP3   OH2 8366   7.222   2.361   0.964
 2801TIP3    H1 8367   7.231   2.331   1.055
 2801TIP3    H2 8368   7.206   2.455   0.971
 2802TIP3   OH2 8369   0.903   2.978   3.667
 2802TIP3    H1 8370   0.946   2.895   3.647
 2802TIP3    H2 8371   0.815   2.953   3.696
 2803TIP3   OH2 8372   4.257   2.889   0.199
 2803TIP3    H1 8373   4.339   2.918   0.240
 2803TIP3    H2 8374   4.259   2.793   0.207
 2804TIP3   OH2 8375   3.906   2.652   5.555
 2804TIP3    H1 8376   3.862   2.735   5.540
 2804TIP3    H2 8377   3.845   2.586   5.521
 2805TIP3   OH2 8378   5.552   2.291   4.714
 2805TIP3    H1 8379   5.549   2.255   4.803
 2805TIP3    H2 8380   5.644   2.290   4.691
 2806TIP3   OH2 8381   5.405   5.037   0.246
 2806TIP3    H1 8382   5.501   5.042   0.249
 2806TIP3    H2 8383   5.376   5.108   0.304
 2807TIP3   OH2 8384   4.054   1.730   0.689
 2807TIP3    H1 8385   4.111   1.775   0.626
 2807TIP3    H2 8386   4.043   1.793   0.761
 2808TIP3   OH2 8387   0.252   1.758   5.369
 2808TIP3    H1 8388   0.221   1.826   5.429
 2808TIP3    H2 8389   0.172   1.722   5.330
 2809TIP3   OH2 8390   6.822   4.483   3.327
 2809TIP3    H1 8391   6.727   4.480   3.312
 2809TIP3    H2 8392   6.830   4.502   3.421
 2810TIP3   OH2 8393   3.110   3.075   2.447
 2810TIP3    H1 8394   3.136   3.027   2.525
 2810TIP3    H2 8395   3.151   3.028   2.375
 2811TIP3   OH2 8396   0.817   5.095   1.969
 2811TIP3    H1 8397   0.871   5.090   2.048
 2811TIP3    H2 8398   0.808   5.189   1.952
 2812TIP3   OH2 8399   3.577   5.801   0.337
 2812TIP3    H1 8400   3.535   5.769   0.257
 2812TIP3    H2 8401   3.654   5.849   0.306
 2813TIP3   OH2 8402   6.149   1.183   5.082
 2813TIP3    H1 8403   6.112   1.171   4.995
 2813TIP3    H2 8404   6.084   1.235   5.129
 2814TIP3   OH2 8405   4.352   0.514   4.144
 2814TIP3    H1 8406   4.414   0.441   4.140
 2814TIP3    H2 8407   4.290   0.496   4.073
 2815TIP3   OH2 8408   1.007   4.096   4.645
 2815TIP3    H1 8409   0.997   4.119   4.738
 2815TIP3    H2 8410   1.093   4.131   4.621
 2816TIP3   OH2 8411   3.043   1.703   2.378
 2816TIP3    H1 8412   3.118   1.729   2.431
 2816TIP3    H2 8413   3.078   1.641   2.314
 2817TIP3   OH2 8414   6.495   2.185   2.494
 2817TIP3    H1 8415   6.472   2.188   2.401
 2817TIP3    H2 8416   6.446   2.256   2.534
 2818TIP3   OH2 8417   6.995   5.654   4.230
 2818TIP3    H1 8418   6.992   5.566   4.267
 2818TIP3    H2 8419   7.075   5.692   4.264
 2819TIP3   OH2 8420   5.038   0.385   2.728
 2819TIP3    H1 8421   5.010   0.311   2.781
 2819TIP3    H2 8422   4.957   0.424   2.696
 2820TIP3   OH2 8423   5.948   6.553   0.593
 2820TIP3    H1 8424   5.869   6.534   0.541
 2820TIP3    H2 8425   5.969   6.644   0.572
 2821TIP3   OH2 8426   2.925   2.087   2.214
 2821TIP3    H1 8427   2.963   2.060   2.298
 2821TIP3    H2 8428   2.913   2.182   2.223
 2822TIP3   OH2 8429   3.059   5.102   3.653
 2822TIP3    H1 8430   3.055   5.143   3.567
 2822TIP3    H2 8431   2.971   5.114   3.690
 2823TIP3   OH2 8432   5.748   4.214   0.163
 2823TIP3    H1 8433   5.815   4.235   0.098
 2823TIP3    H2 8434   5.701   4.139   0.126
 2824TIP3   OH2 8435   3.426   2.616   5.875
 2824TIP3    H1 8436   3.470   2.600   5.792
 2824TIP3    H2 8437   3.453   2.705   5.900
 2825TIP3   OH2 8438   3.157   0.221   0.957
 2825TIP3    H1 8439   3.181   0.301   0.911
 2825TIP3    H2 8440   3.063   0.211   0.940
 2826TIP3   OH2 8441   0.119   2.259   3.263
 2826TIP3    H1 8442   0.063   2.336   3.273
 2826TIP3    H2 8443   0.117   2.217   3.349
 2827TIP3   OH2 8444   5.452   2.499   3.912
 2827TIP3    H1 8445   5.475   2.472   4.001
 2827TIP3    H2 8446   5.487   2.431   3.855
 2828TIP3   OH2 8447   5.715   2.635   5.521
 2828TIP3    H1 8448   5.736   2.696   5.591
 2828TIP3    H2 8449   5.786   2.571   5.522
 2829TIP3   OH2 8450   6.545   5.070   5.503
 2829TIP3    H1 8451   6.585   5.095   5.419
 2829TIP3    H2 8452   6.609   5.098   5.568
 2830TIP3   OH2 8453   1.207   2.864   1.537
 2830TIP3    H1 8454   1.147   2.832   1.470
 2830TIP3    H2 8455   1.180   2.955   1.552
 2831TIP3   OH2 8456   6.217   2.851   2.739
 2831TIP3    H1 8457   6.137   2.818   2.779
 2831TIP3    H2 8458   6.220   2.809   2.653
 2832TIP3   OH2 8459   2.754   3.732   0.554
 2832TIP3    H1 8460   2.781   3.694   0.471
 2832TIP3    H2 8461   2.698   3.665   0.594
 2833TIP3   OH2 8462   5.032   1.086   2.335
 2833TIP3    H1 8463   5.126   1.095   2.320
 2833TIP3    H2 8464   5.013   0.994   2.319
 2834TIP3   OH2 8465   0.814   3.508   3.311
 2834TIP3    H1 8466   0.856   3.480   3.393
 2834TIP3    H2 8467   0.882   3.555   3.263
 2835TIP3   OH2 8468   0.733   6.553   1.589
 2835TIP3    H1 8469   0.688   6.638   1.591
 2835TIP3    H2 8470   0.810   6.565   1.644
 2836TIP3   OH2 8471   3.224   3.888   0.626
 2836TIP3    H1 8472   3.213   3.824   0.696
 2836TIP3    H2 8473   3.193   3.970   0.663
 2837TIP3   OH2 8474   5.932   2.450   5.575
 2837TIP3    H1 8475   5.959   2.359   5.590
 2837TIP3    H2 8476   6.006   2.490   5.531
 2838TIP3   OH2 8477   4.287   3.148   4.753
 2838TIP3    H1 8478   4.365   3.130   4.806
 2838TIP3    H2 8479   4.320   3.199   4.679
 2839TIP3   OH2 8480   3.590   2.192   4.980
 2839TIP3    H1 8481   3.531   2.261   4.950
 2839TIP3    H2 8482   3.563   2.176   5.071
 2840TIP3   OH2 8483   2.427   3.658   1.509
 2840TIP3    H1 8484   2.334   3.671   1.487
 2840TIP3    H2 8485   2.448   3.732   1.566
 2841TIP3   OH2 8486   6.754   1.809   3.988
 2841TIP3    H1 8487   6.820   1.844   4.049
 2841TIP3    H2 8488   6.705   1.886   3.959
 2842TIP3   OH2 8489   0.545   2.503   4.565
 2842TIP3    H1 8490   0.627   2.540   4.596
 2842TIP3    H2 8491   0.478   2.564   4.595
 2843TIP3   OH2 8492   6.582   5.534   5.635
 2843TIP3    H1 8493   6.658   5.500   5.682
 2843TIP3    H2 8494   6.610   5.618   5.600
 2844TIP3   OH2 8495   0.748   0.619   2.085
 2844TIP3    H1 8496   0.763   0.570   2.166
 2844TIP3    H2 8497   0.713   0.554   2.024
 2845TIP3   OH2 8498   2.747   1.225   2.382
 2845TIP3    H1 8499   2.685   1.297   2.373
 2845TIP3    H2 8500   2.833   1.268   2.391
 2846TIP3   OH2 8501   2.586   6.604   4.203
 2846TIP3    H1 8502   2.562   6.617   4.111
 2846TIP3    H2 8503   2.517   6.647   4.253
 2847TIP3   OH2 8504   3.332   0.069   0.253
 2847TIP3    H1 8505   3.346   0.009   0.327
 2847TIP3    H2 8506   3.385   0.032   0.182
 2848TIP3   OH2 8507   0.605   2.869   1.435
 2848TIP3    H1 8508   0.633   2.892   1.523
 2848TIP3    H2 8509   0.544   2.796   1.447
 2849TIP3   OH2 8510   3.372   2.668   0.262
 2849TIP3    H1 8511   3.416   2.739   0.215
 2849TIP3    H2 8512   3.442   2.605   0.281
 2850TIP3   OH2 8513   2.360   4.388   1.282
 2850TIP3    H1 8514   2.377   4.445   1.358
 2850TIP3    H2 8515   2.392   4.302   1.309
 2851TIP3   OH2 8516   2.159   6.604   4.180
 2851TIP3    H1 8517   2.071   6.586   4.213
 2851TIP3    H2 8518   2.174   6.536   4.114
 2852TIP3   OH2 8519   1.606   6.168   0.598
 2852TIP3    H1 8520   1.547   6.102   0.561
 2852TIP3    H2 8521   1.580   6.250   0.556
 2853TIP3   OH2 8522   1.208   2.505   2.873
 2853TIP3    H1 8523   1.227   2.597   2.852
 2853TIP3    H2 8524   1.124   2.488   2.831
 2854TIP3   OH2 8525   2.726   5.214   4.735
 2854TIP3    H1 8526   2.711   5.167   4.653
 2854TIP3    H2 8527   2.669   5.171   4.799
 2855TIP3   OH2 8528   6.148   2.966   1.982
 2855TIP3    H1 8529   6.143   3.057   1.953
 2855TIP3    H2 8530   6.058   2.935   1.978
 2856TIP3   OH2 8531   6.421   3.712   3.734
 2856TIP3    H1 8532   6.437   3.660   3.813
 2856TIP3    H2 8533   6.505   3.709   3.687
 2857TIP3   OH2 8534   5.038   0.277   0.326
 2857TIP3    H1 8535   5.066   0.335   0.256
 2857TIP3    H2 8536   5.024   0.335   0.401
 2858TIP3   OH2 8537   5.273   1.973   3.447
 2858TIP3    H1 8538   5.318   1.901   3.491
 2858TIP3    H2 8539   5.286   1.956   3.354
 2859TIP3   OH2 8540   1.635   2.286   1.987
 2859TIP3    H1 8541   1.661   2.238   1.909
 2859TIP3    H2 8542   1.549   2.250   2.010
 2860TIP3   OH2 8543   2.171   2.241   4.897
 2860TIP3    H1 8544   2.177   2.285   4.812
 2860TIP3    H2 8545   2.109   2.295   4.947
 2861TIP3   OH2 8546   4.058   0.431   3.300
 2861TIP3    H1 8547   4.029   0.377   3.373
 2861TIP3    H2 8548   4.123   0.490   3.338
 2862TIP3   OH2 8549   6.522   2.979   0.725
 2862TIP3    H1 8550   6.543   3.072   0.723
 2862TIP3    H2 8551   6.594   2.939   0.775
 2863TIP3   OH2 8552   3.379   4.476   3.613
 2863TIP3    H1 8553   3.427   4.461   3.694
 2863TIP3    H2 8554   3.333   4.559   3.626
 2864TIP3   OH2 8555   6.882   2.022   5.267
 2864TIP3    H1 8556   6.803   1.999   5.218
 2864TIP3    H2 8557   6.852   2.034   5.357
 2865TIP3   OH2 8558   5.358   6.666   1.047
 2865TIP3    H1 8559   5.448   6.656   1.016
 2865TIP3    H2 8560   5.348   6.598   1.113
 2866TIP3   OH2 8561   5.292   1.014   2.319
 2866TIP3    H1 8562   5.331   0.971   2.395
 2866TIP3    H2 8563   5.346   1.092   2.305
 2867TIP3   OH2 8564   5.575   0.723   3.943
 2867TIP3    H1 8565   5.493   0.771   3.946
 2867TIP3    H2 8566   5.633   0.779   3.890
 2868TIP3   OH2 8567   1.561   0.678   4.930
 2868TIP3    H1 8568   1.636   0.618   4.924
 2868TIP3    H2 8569   1.598   0.756   4.971
 2869TIP3   OH2 8570   1.245   0.824   3.261
 2869TIP3    H1 8571   1.311   0.884   3.294
 2869TIP3    H2 8572   1.168   0.840   3.316
 2870TIP3   OH2 8573   7.264   3.045   3.030
 2870TIP3    H1 8574   7.219   3.044   2.946
 2870TIP3    H2 8575   7.222   3.116   3.079
 2871TIP3   OH2 8576   1.862   3.332   3.464
 2871TIP3    H1 8577   1.913   3.368   3.537
 2871TIP3    H2 8578   1.898   3.374   3.386
 2872TIP3   OH2 8579   6.871   0.755   2.445
 2872TIP3    H1 8580   6.912   0.769   2.359
 2872TIP3    H2 8581   6.831   0.839   2.466
 2873TIP3   OH2 8582   6.294   0.357   1.973
 2873TIP3    H1 8583   6.318   0.440   1.933
 2873TIP3    H2 8584   6.205   0.340   1.942
 2874TIP3   OH2 8585   1.779   5.781   0.398
 2874TIP3    H1 8586   1.731   5.736   0.328
 2874TIP3    H2 8587   1.730   5.760   0.477
 2875TIP3   OH2 8588   0.749   4.839   1.335
 2875TIP3    H1 8589   0.666   4.804   1.368
 2875TIP3    H2 8590   0.799   4.762   1.307
 2876TIP3   OH2 8591   2.557   6.340   2.548
 2876TIP3    H1 8592   2.611   6.283   2.493
 2876TIP3    H2 8593   2.507   6.392   2.485
 2877TIP3   OH2 8594   6.617   0.401   3.074
 2877TIP3    H1 8595   6.647   0.488   3.049
 2877TIP3    H2 8596   6.597   0.358   2.991
 2878TIP3   OH2 8597   4.054   1.176   1.928
 2878TIP3    H1 8598   4.144   1.200   1.907
 2878TIP3    H2 8599   4.001   1.233   1.872
 2879TIP3   OH2 8600   3.257   6.725   0.880
 2879TIP3    H1 8601   3.347   6.759   0.875
 2879TIP3    H2 8602   3.250   6.689   0.968
 2880TIP3   OH2 8603   3.656   2.602   4.343
 2880TIP3    H1 8604   3.585   2.573   4.287
 2880TIP3    H2 8605   3.726   2.627   4.282
 2881TIP3   OH2 8606   6.523   2.117   4.832
 2881TIP3    H1 8607   6.488   2.089   4.916
 2881TIP3    H2 8608   6.576   2.195   4.853
 2882TIP3   OH2 8609   3.954   0.519   4.010
 2882TIP3    H1 8610   4.009   0.441   4.001
 2882TIP3    H2 8611   3.866   0.489   3.989
 2883TIP3   OH2 8612   3.531   3.715   3.912
 2883TIP3    H1 8613   3.535   3.728   3.817
 2883TIP3    H2 8614   3.448   3.669   3.926
 2884TIP3   OH2 8615   4.219   1.829   0.291
 2884TIP3    H1 8616   4.285   1.897   0.307
 2884TIP3    H2 8617   4.269   1.755   0.257
 2885TIP3   OH2 8618   2.471   1.794   0.387
 2885TIP3    H1 8619   2.402   1.729   0.399
 2885TIP3    H2 8620   2.424   1.875   0.367
 2886TIP3   OH2 8621   4.007   5.891   3.133
 2886TIP3    H1 8622   4.075   5.896   3.200
 2886TIP3    H2 8623   4.038   5.946   3.062
 2887TIP3   OH2 8624   1.266   3.512   4.189
 2887TIP3    H1 8625   1.260   3.422   4.159
 2887TIP3    H2 8626   1.280   3.563   4.109
 2888TIP3   OH2 8627   6.630   0.720   0.922
 2888TIP3    H1 8628   6.569   0.652   0.892
 2888TIP3    H2 8629   6.615   0.793   0.862
 2889TIP3   OH2 8630   4.834   4.146   2.653
 2889TIP3    H1 8631   4.769   4.203   2.693
 2889TIP3    H2 8632   4.915   4.198   2.654
 2890TIP3   OH2 8633   5.745   1.951   3.527
 2890TIP3    H1 8634   5.682   1.923   3.594
 2890TIP3    H2 8635   5.696   1.947   3.445
 2891TIP3   OH2 8636   1.639   1.930   4.002
 2891TIP3    H1 8637   1.598   1.983   3.934
 2891TIP3    H2 8638   1.729   1.918   3.972
 2892TIP3   OH2 8639   4.866   1.966   1.604
 2892TIP3    H1 8640   4.885   2.055   1.634
 2892TIP3    H2 8641   4.772   1.968   1.583
 2893TIP3   OH2 8642   6.086   5.904   5.016
 2893TIP3    H1 8643   6.110   5.941   4.931
 2893TIP3    H2 8644   6.024   5.834   4.996
 2894TIP3   OH2 8645   4.179   3.695   4.323
 2894TIP3    H1 8646   4.121   3.686   4.248
 2894TIP3    H2 8647   4.142   3.637   4.390
 2895TIP3   OH2 8648   1.086   1.948   5.836
 2895TIP3    H1 8649   1.078   1.952   5.932
 2895TIP3    H2 8650   1.007   1.902   5.807
 2896TIP3   OH2 8651   4.164   1.305   5.327
 2896TIP3    H1 8652   4.147   1.242   5.398
 2896TIP3    H2 8653   4.203   1.252   5.258
 2897TIP3   OH2 8654   2.993   4.770   2.508
 2897TIP3    H1 8655   3.087   4.785   2.499
 2897TIP3    H2 8656   2.976   4.778   2.601
 2898TIP3   OH2 8657   1.086   6.655   4.784
 2898TIP3    H1 8658   1.070   6.747   4.762
 2898TIP3    H2 8659   1.165   6.633   4.735
 2899TIP3   OH2 8660   4.465   3.178   4.492
 2899TIP3    H1 8661   4.496   3.117   4.425
 2899TIP3    H2 8662   4.542   3.194   4.547
 2900TIP3   OH2 8663   6.182   6.279   4.527
 2900TIP3    H1 8664   6.214   6.327   4.451
 2900TIP3    H2 8665   6.225   6.321   4.602
 2901TIP3   OH2 8666   1.122   0.680   1.303
 2901TIP3    H1 8667   1.204   0.709   1.262
 2901TIP3    H2 8668   1.127   0.585   1.305
 2902TIP3   OH2 8669   5.862   4.593   5.281
 2902TIP3    H1 8670   5.859   4.685   5.252
 2902TIP3    H2 8671   5.904   4.597   5.367
 2903TIP3   OH2 8672   1.012   0.184   4.660
 2903TIP3    H1 8673   1.064   0.258   4.693
 2903TIP3    H2 8674   1.066   0.107   4.678
 2904TIP3   OH2 8675   6.950   3.281   2.488
 2904TIP3    H1 8676   6.917   3.216   2.550
 2904TIP3    H2 8677   7.028   3.240   2.450
 2905TIP3   OH2 8678   3.923   0.242   2.332
 2905TIP3    H1 8679   3.907   0.335   2.351
 2905TIP3    H2 8680   3.860   0.196   2.389
 2906TIP3   OH2 8681   4.126   2.259   3.498
 2906TIP3    H1 8682   4.129   2.268   3.594
 2906TIP3    H2 8683   4.041   2.218   3.481
 2907TIP3   OH2 8684   4.665   6.024   5.714
 2907TIP3    H1 8685   4.650   6.107   5.669
 2907TIP3    H2 8686   4.758   6.006   5.700
 2908TIP3   OH2 8687   3.288   2.516   3.341
 2908TIP3    H1 8688   3.246   2.510   3.256
 2908TIP3    H2 8689   3.227   2.474   3.402
 2909TIP3   OH2 8690   3.548   2.337   0.677
 2909TIP3    H1 8691   3.627   2.301   0.716
 2909TIP3    H2 8692   3.552   2.431   0.697
 2910TIP3   OH2 8693   0.806   1.007   0.013
 2910TIP3    H1 8694   0.896   0.979   0.032
 2910TIP3    H2 8695   0.758   0.925   0.000
 2911TIP3   OH2 8696   7.207   5.576   1.907
 2911TIP3    H1 8697   7.122   5.613   1.932
 2911TIP3    H2 8698   7.242   5.541   1.989
 2912TIP3   OH2 8699   0.397   1.255   2.568
 2912TIP3    H1 8700   0.309   1.231   2.538
 2912TIP3    H2 8701   0.397   1.351   2.568
 2913TIP3   OH2 8702   1.586   2.880   0.913
 2913TIP3    H1 8703   1.597   2.792   0.949
 2913TIP3    H2 8704   1.524   2.868   0.841
 2914TIP3   OH2 8705   3.036   5.214   0.746
 2914TIP3    H1 8706   3.008   5.296   0.788
 2914TIP3    H2 8707   3.080   5.165   0.815
 2915TIP3   OH2 8708   0.630   3.456   1.674
 2915TIP3    H1 8709   0.561   3.453   1.608
 2915TIP3    H2 8710   0.697   3.513   1.637
 2916TIP3   OH2 8711   4.274   2.043   1.819
 2916TIP3    H1 8712   4.361   2.009   1.799
 2916TIP3    H2 8713   4.290   2.126   1.865
 2917TIP3   OH2 8714   2.054   4.337   3.003
 2917TIP3    H1 8715   2.024   4.253   2.970
 2917TIP3    H2 8716   2.078   4.319   3.094
 2918TIP3   OH2 8717   2.253   5.451   4.339
 2918TIP3    H1 8718   2.204   5.480   4.261
 2918TIP3    H2 8719   2.274   5.360   4.322
 2919TIP3   OH2 8720   5.921   6.218   4.592
 2919TIP3    H1 8721   6.015   6.231   4.602
 2919TIP3    H2 8722   5.908   6.211   4.497
 2920TIP3   OH2 8723   2.243   1.320   4.616
 2920TIP3    H1 8724   2.294   1.376   4.559
 2920TIP3    H2 8725   2.306   1.288   4.681
 2921TIP3   OH2 8726   7.164   1.329   4.235
 2921TIP3    H1 8727   7.146   1.279   4.155
 2921TIP3    H2 8728   7.211   1.267   4.291
 2922TIP3   OH2 8729   1.832   5.669   0.738
 2922TIP3    H1 8730   1.893   5.716   0.796
 2922TIP3    H2 8731   1.758   5.729   0.729
 2923TIP3   OH2 8732   2.288   6.752   1.330
 2923TIP3    H1 8733   2.359   6.689   1.330
 2923TIP3    H2 8734   2.215   6.708   1.374
 2924TIP3   OH2 8735   6.012   0.142   3.157
 2924TIP3    H1 8736   5.919   0.161   3.146
 2924TIP3    H2 8737   6.024   0.135   3.252
 2925TIP3   OH2 8738   2.813   0.121   1.370
 2925TIP3    H1 8739   2.750   0.188   1.396
 2925TIP3    H2 8740   2.821   0.131   1.275
 2926TIP3   OH2 8741   4.593   3.209   0.026
 2926TIP3    H1 8742   4.542   3.248   0.097
 2926TIP3    H2 8743   4.533   3.147  -0.016
 2927TIP3   OH2 8744   3.595   5.397   3.833
 2927TIP3    H1 8745   3.527   5.331   3.847
 2927TIP3    H2 8746   3.608   5.436   3.919
 2928TIP3   OH2 8747   3.849   4.080   2.448
 2928TIP3    H1 8748   3.859   4.111   2.359
 2928TIP3    H2 8749   3.887   3.992   2.448
 2929TIP3   OH2 8750   1.388   0.511   3.414
 2929TIP3    H1 8751   1.355   0.429   3.450
 2929TIP3    H2 8752   1.374   0.576   3.483
 2930TIP3   OH2 8753   4.622   2.332   4.846
 2930TIP3    H1 8754   4.529   2.308   4.844
 2930TIP3    H2 8755   4.625   2.420   4.807
 2931TIP3   OH2 8756   2.920   1.375   3.380
 2931TIP3    H1 8757   2.986   1.321   3.336
 2931TIP3    H2 8758   2.905   1.447   3.319
 2932TIP3   OH2 8759   2.535   4.687   2.833
 2932TIP3    H1 8760   2.559   4.621   2.768
 2932TIP3    H2 8761   2.447   4.661   2.862
 2933TIP3   OH2 8762   5.524   0.615   1.210
 2933TIP3    H1 8763   5.580   0.539   1.195
 2933TIP3    H2 8764   5.471   0.592   1.286
 2934TIP3   OH2 8765   5.599   2.763   3.880
 2934TIP3    H1 8766   5.670   2.752   3.816
 2934TIP3    H2 8767   5.566   2.675   3.895
 2935TIP3   OH2 8768   5.499   2.080   5.475
 2935TIP3    H1 8769   5.580   2.125   5.449
 2935TIP3    H2 8770   5.432   2.148   5.469
 2936TIP3   OH2 8771   0.903   6.278   2.993
 2936TIP3    H1 8772   0.953   6.200   2.968
 2936TIP3    H2 8773   0.956   6.320   3.061
 2937TIP3   OH2 8774   0.628   0.807   1.495
 2937TIP3    H1 8775   0.561   0.756   1.542
 2937TIP3    H2 8776   0.686   0.838   1.564
 2938TIP3   OH2 8777   4.464   3.119   3.997
 2938TIP3    H1 8778   4.428   3.137   3.910
 2938TIP3    H2 8779   4.468   3.023   4.001
 2939TIP3   OH2 8780   1.397   4.825   4.560
 2939TIP3    H1 8781   1.375   4.898   4.501
 2939TIP3    H2 8782   1.318   4.770   4.560
 2940TIP3   OH2 8783   0.933   2.561   2.718
 2940TIP3    H1 8784   0.931   2.465   2.725
 2940TIP3    H2 8785   0.865   2.591   2.778
 2941TIP3   OH2 8786   4.694   1.986   3.767
 2941TIP3    H1 8787   4.610   2.002   3.809
 2941TIP3    H2 8788   4.711   1.893   3.782
 2942TIP3   OH2 8789   3.011   4.060  -0.008
 2942TIP3    H1 8790   2.971   4.132   0.041
 2942TIP3    H2 8791   2.967   3.981   0.023
 2943TIP3   OH2 8792   2.615   5.405   4.354
 2943TIP3    H1 8793   2.645   5.471   4.291
 2943TIP3    H2 8794   2.570   5.456   4.422
 2944TIP3   OH2 8795   6.031   4.366   5.499
 2944TIP3    H1 8796   6.046   4.460   5.493
 2944TIP3    H2 8797   5.951   4.358   5.552
 2945TIP3   OH2 8798   0.478   4.910   0.377
 2945TIP3    H1 8799   0.464   4.815   0.372
 2945TIP3    H2 8800   0.541   4.922   0.447
 2946TIP3   OH2 8801   2.346   3.002   1.254
 2946TIP3    H1 8802   2.353   2.931   1.190
 2946TIP3    H2 8803   2.350   2.957   1.339
 2947TIP3   OH2 8804   1.250   3.129   5.110
 2947TIP3    H1 8805   1.345   3.138   5.102
 2947TIP3    H2 8806   1.223   3.207   5.158
 2948TIP3   OH2 8807   2.865   5.888   3.387
 2948TIP3    H1 8808   2.939   5.934   3.427
 2948TIP3    H2 8809   2.795   5.891   3.453
 2949TIP3   OH2 8810   1.470   6.571   3.962
 2949TIP3    H1 8811   1.375   6.586   3.956
 2949TIP3    H2 8812   1.491   6.522   3.882
 2950TIP3   OH2 8813   5.329   5.873   0.184
 2950TIP3    H1 8814   5.342   5.950   0.239
 2950TIP3    H2 8815   5.408   5.869   0.130
 2951TIP3   OH2 8816   0.187   4.945   2.867
 2951TIP3    H1 8817   0.273   4.908   2.849
 2951TIP3    H2 8818   0.148   4.885   2.931
 2952TIP3   OH2 8819   3.521   4.437   5.404
 2952TIP3    H1 8820   3.556   4.454   5.491
 2952TIP3    H2 8821   3.485   4.348   5.411
 2953TIP3   OH2 8822   1.362   1.554   2.803
 2953TIP3    H1 8823   1.426   1.617   2.834
 2953TIP3    H2 8824   1.286   1.567   2.860
 2954TIP3   OH2 8825   6.995   4.955   0.400
 2954TIP3    H1 8826   6.958   4.869   0.381
 2954TIP3    H2 8827   7.063   4.938   0.466
 2955TIP3   OH2 8828   4.094   2.515   5.416
 2955TIP3    H1 8829   4.144   2.570   5.355
 2955TIP3    H2 8830   4.032   2.574   5.458
 2956TIP3   OH2 8831   1.518   4.033   1.165
 2956TIP3    H1 8832   1.571   4.093   1.217
 2956TIP3    H2 8833   1.582   3.980   1.117
 2957TIP3   OH2 8834   3.008   2.043   3.423
 2957TIP3    H1 8835   3.020   1.984   3.498
 2957TIP3    H2 8836   2.955   2.115   3.458
 2958TIP3   OH2 8837   0.657   0.555   0.612
 2958TIP3    H1 8838   0.743   0.598   0.609
 2958TIP3    H2 8839   0.597   0.624   0.641
 2959TIP3   OH2 8840   6.408   0.123   1.691
 2959TIP3    H1 8841   6.501   0.116   1.667
 2959TIP3    H2 8842   6.408   0.180   1.769
 2960TIP3   OH2 8843   4.309   5.260   1.741
 2960TIP3    H1 8844   4.277   5.181   1.785
 2960TIP3    H2 8845   4.388   5.284   1.789
 2961TIP3   OH2 8846   1.702   0.935   2.565
 2961TIP3    H1 8847   1.608   0.919   2.558
 2961TIP3    H2 8848   1.743   0.858   2.526
 2962TIP3   OH2 8849   4.833   6.667   1.136
 2962TIP3    H1 8850   4.867   6.720   1.064
 2962TIP3    H2 8851   4.845   6.721   1.214
 2963TIP3   OH2 8852   2.531   3.828   1.715
 2963TIP3    H1 8853   2.566   3.908   1.753
 2963TIP3    H2 8854   2.486   3.785   1.788
 2964TIP3   OH2 8855   1.604   6.012   5.348
 2964TIP3    H1 8856   1.526   5.959   5.365
 2964TIP3    H2 8857   1.569   6.096   5.319
 2965TIP3   OH2 8858   4.708   0.979   2.083
 2965TIP3    H1 8859   4.757   1.049   2.040
 2965TIP3    H2 8860   4.775   0.928   2.129
 2966TIP3   OH2 8861   1.181   2.213   1.378
 2966TIP3    H1 8862   1.164   2.299   1.416
 2966TIP3    H2 8863   1.240   2.230   1.304
 2967TIP3   OH2 8864   4.097   6.365   4.666
 2967TIP3    H1 8865   4.106   6.412   4.749
 2967TIP3    H2 8866   4.005   6.342   4.661
 2968TIP3   OH2 8867   2.524   4.010   2.751
 2968TIP3    H1 8868   2.545   3.997   2.844
 2968TIP3    H2 8869   2.595   4.064   2.718
 2969TIP3   OH2 8870   4.002   2.050   4.820
 2969TIP3    H1 8871   3.963   2.085   4.740
 2969TIP3    H2 8872   4.096   2.054   4.805
 2970TIP3   OH2 8873   0.782   4.126   2.014
 2970TIP3    H1 8874   0.720   4.166   2.075
 2970TIP3    H2 8875   0.737   4.128   1.930
 2971TIP3   OH2 8876   2.311   6.178   0.726
 2971TIP3    H1 8877   2.248   6.108   0.712
 2971TIP3    H2 8878   2.313   6.189   0.821
 2972TIP3   OH2 8879   5.112   1.622   1.342
 2972TIP3    H1 8880   5.203   1.593   1.355
 2972TIP3    H2 8881   5.120   1.715   1.322
 2973TIP3   OH2 8882   0.792   1.461   3.484
 2973TIP3    H1 8883   0.781   1.437   3.576
 2973TIP3    H2 8884   0.792   1.557   3.484
 2974TIP3   OH2 8885   6.020   2.725   2.894
 2974TIP3    H1 8886   5.930   2.695   2.887
 2974TIP3    H2 8887   6.053   2.684   2.974
 2975TIP3   OH2 8888   0.053   2.833   5.035
 2975TIP3    H1 8889   0.148   2.843   5.040
 2975TIP3    H2 8890   0.028   2.802   5.122
 2976TIP3   OH2 8891   1.859   3.478   0.702
 2976TIP3    H1 8892   1.893   3.395   0.737
 2976TIP3    H2 8893   1.805   3.451   0.627
 2977TIP3   OH2 8894   2.518   4.834   5.716
 2977TIP3    H1 8895   2.474   4.753   5.744
 2977TIP3    H2 8896   2.565   4.863   5.795
 2978TIP3   OH2 8897   3.841   4.807   0.959
 2978TIP3    H1 8898   3.890   4.766   0.888
 2978TIP3    H2 8899   3.758   4.759   0.962
 2979TIP3   OH2 8900   0.285   4.561   4.003
 2979TIP3    H1 8901   0.283   4.466   4.015
 2979TIP3    H2 8902   0.236   4.576   3.922
 2980TIP3   OH2 8903   4.639   5.564   0.427
 2980TIP3    H1 8904   4.703   5.601   0.366
 2980TIP3    H2 8905   4.577   5.635   0.443
 2981TIP3   OH2 8906   6.495   4.819   5.379
 2981TIP3    H1 8907   6.550   4.806   5.456
 2981TIP3    H2 8908   6.446   4.899   5.397
 2982TIP3   OH2 8909   0.103   5.614   3.989
 2982TIP3    H1 8910   0.142   5.695   3.957
 2982TIP3    H2 8911   0.170   5.547   3.972
 2983TIP3   OH2 8912   6.798   0.314   1.924
 2983TIP3    H1 8913   6.793   0.250   1.995
 2983TIP3    H2 8914   6.877   0.364   1.942
 2984TIP3   OH2 8915   5.847   5.252   2.240
 2984TIP3    H1 8916   5.839   5.240   2.145
 2984TIP3    H2 8917   5.757   5.268   2.269
 2985TIP3   OH2 8918   2.441   6.545   1.386
 2985TIP3    H1 8919   2.355   6.508   1.364
 2985TIP3    H2 8920   2.502   6.472   1.374
 2986TIP3   OH2 8921   4.863   6.266   3.672
 2986TIP3    H1 8922   4.888   6.329   3.605
 2986TIP3    H2 8923   4.775   6.293   3.699
 2987TIP3   OH2 8924   6.348   0.800   2.787
 2987TIP3    H1 8925   6.336   0.873   2.726
 2987TIP3    H2 8926   6.278   0.810   2.851
 2988TIP3   OH2 8927   6.754   0.529   2.751
 2988TIP3    H1 8928   6.753   0.537   2.847
 2988TIP3    H2 8929   6.715   0.610   2.720
 2989TIP3   OH2 8930   4.980   1.714   2.651
 2989TIP3    H1 8931   4.986   1.625   2.615
 2989TIP3    H2 8932   5.071   1.738   2.669
 2990TIP3   OH2 8933   2.392   2.175   2.573
 2990TIP3    H1 8934   2.369   2.259   2.612
 2990TIP3    H2 8935   2.448   2.133   2.638
 2991TIP3   OH2 8936   0.648   4.388   5.411
 2991TIP3    H1 8937   0.608   4.371   5.496
 2991TIP3    H2 8938   0.608   4.324   5.352
 2992TIP3   OH2 8939   4.620   1.893   0.201
 2992TIP3    H1 8940   4.682   1.881   0.274
 2992TIP3    H2 8941   4.598   1.986   0.204
 2993TIP3   OH2 8942   5.229   3.202   0.250
 2993TIP3    H1 8943   5.192   3.288   0.268
 2993TIP3    H2 8944   5.261   3.208   0.160
 2994TIP3   OH2 8945   1.178   0.012   3.268
 2994TIP3    H1 8946   1.258  -0.041   3.273
 2994TIP3    H2 8947   1.130  -0.024   3.194
 2995TIP3   OH2 8948   2.984   2.644   4.343
 2995TIP3    H1 8949   2.946   2.682   4.422
 2995TIP3    H2 8950   3.039   2.714   4.306
 2996TIP3   OH2 8951   0.800   0.041   1.702
 2996TIP3    H1 8952   0.879   0.095   1.711
 2996TIP3    H2 8953   0.777   0.019   1.792
 2997TIP3   OH2 8954   4.759   3.101   5.022
 2997TIP3    H1 8955   4.842   3.055   5.036
 2997TIP3    H2 8956   4.784   3.190   4.998
 2998TIP3   OH2 8957   1.333   5.888   1.962
 2998TIP3    H1 8958   1.404   5.938   2.002
 2998TIP3    H2 8959   1.254   5.938   1.980
 2999TIP3   OH2 8960   3.120   1.729   2.783
 2999TIP3    H1 8961   3.202   1.771   2.756
 2999TIP3    H2 8962   3.107   1.756   2.874
 3000TIP3   OH2 8963   5.166   4.163   5.479
 3000TIP3    H1 8964   5.110   4.091   5.449
 3000TIP3    H2 8965   5.254   4.127   5.477
 3001TIP3   OH2 8966   6.626   0.846   2.215
 3001TIP3    H1 8967   6.670   0.796   2.146
 3001TIP3    H2 8968   6.588   0.921   2.170
 3002TIP3   OH2 8969   4.216   1.904   3.323
 3002TIP3    H1 8970   4.282   1.881   3.388
 3002TIP3    H2 8971   4.137   1.923   3.373
 3003TIP3   OH2 8972   0.027   3.511   5.511
 3003TIP3    H1 8973  -0.047   3.555   5.468
 3003TIP3    H2 8974   0.016   3.419   5.487
 3004TIP3   OH2 8975   2.321   1.602   3.475
 3004TIP3    H1 8976   2.409   1.623   3.445
 3004TIP3    H2 8977   2.324   1.509   3.497
 3005TIP3   OH2 8978   6.503   2.411   4.808
 3005TIP3    H1 8979   6.422   2.361   4.795
 3005TIP3    H2 8980   6.473   2.499   4.832
 3006TIP3   OH2 8981   0.350   5.427   1.661
 3006TIP3    H1 8982   0.342   5.393   1.572
 3006TIP3    H2 8983   0.395   5.356   1.708
 3007TIP3   OH2 8984   0.195   0.332  -0.013
 3007TIP3    H1 8985   0.235   0.412  -0.048
 3007TIP3    H2 8986   0.105   0.357   0.007
 3008TIP3   OH2 8987   0.626   1.955   2.312
 3008TIP3    H1 8988   0.557   2.013   2.343
 3008TIP3    H2 8989   0.690   2.013   2.271
 3009TIP3   OH2 8990   6.655   3.410   5.387
 3009TIP3    H1 8991   6.648   3.459   5.305
 3009TIP3    H2 8992   6.591   3.451   5.445
 3010TIP3   OH2 8993   6.571   6.278   5.551
 3010TIP3    H1 8994   6.535   6.290   5.639
 3010TIP3    H2 8995   6.659   6.316   5.555
 3011TIP3   OH2 8996   1.036   1.389   5.467
 3011TIP3    H1 8997   1.082   1.350   5.392
 3011TIP3    H2 8998   1.049   1.327   5.538
 3012TIP3   OH2 8999   5.496   5.129   1.709
 3012TIP3    H1 9000   5.458   5.049   1.746
 3012TIP3    H2 9001   5.544   5.100   1.632
 3013TIP3   OH2 9002   0.786   3.279   1.052
 3013TIP3    H1 9003   0.806   3.302   0.962
 3013TIP3    H2 9004   0.705   3.228   1.048
 3014TIP3   OH2 9005   6.463   1.493   3.530
 3014TIP3    H1 9006   6.544   1.443   3.534
 3014TIP3    H2 9007   6.398   1.438   3.574
 3015TIP3   OH2 9008   2.147   5.819   5.189
 3015TIP3    H1 9009   2.063   5.837   5.230
 3015TIP3    H2 9010   2.211   5.860   5.247
 3016TIP3   OH2 9011   7.187   6.342   1.530
 3016TIP3    H1 9012   7.217   6.383   1.611
 3016TIP3    H2 9013   7.115   6.398   1.501
 3017TIP3   OH2 9014   6.083   1.617   4.307
 3017TIP3    H1 9015   6.157   1.655   4.354
 3017TIP3    H2 9016   6.075   1.528   4.342
 3018TIP3   OH2 9017   1.150   4.561   5.183
 3018TIP3    H1 9018   1.150   4.519   5.270
 3018TIP3    H2 9019   1.242   4.583   5.167
 3019TIP3   OH2 9020   4.688   5.495   3.431
 3019TIP3    H1 9021   4.659   5.497   3.522
 3019TIP3    H2 9022   4.720   5.583   3.413
 3020TIP3   OH2 9023   6.061   5.467   1.768
 3020TIP3    H1 9024   6.010   5.400   1.722
 3020TIP3    H2 9025   6.083   5.531   1.700
 3021TIP3   OH2 9026   4.067   0.505   4.994
 3021TIP3    H1 9027   3.990   0.547   4.957
 3021TIP3    H2 9028   4.054   0.412   4.978
 3022TIP3   OH2 9029   3.180   3.502   0.166
 3022TIP3    H1 9030   3.270   3.477   0.144
 3022TIP3    H2 9031   3.131   3.420   0.165
 3023TIP3   OH2 9032   4.156   0.349   4.044
 3023TIP3    H1 9033   4.085   0.290   4.020
 3023TIP3    H2 9034   4.186   0.317   4.129
 3024TIP3   OH2 9035   0.389   4.933   4.564
 3024TIP3    H1 9036   0.312   4.956   4.615
 3024TIP3    H2 9037   0.432   4.864   4.615
 3025TIP3   OH2 9038   4.825   0.631   5.564
 3025TIP3    H1 9039   4.803   0.724   5.563
 3025TIP3    H2 9040   4.743   0.587   5.543
 3026TIP3   OH2 9041   2.904   5.918   1.348
 3026TIP3    H1 9042   2.894   5.980   1.276
 3026TIP3    H2 9043   2.823   5.925   1.398
 3027TIP3   OH2 9044   6.235   1.915   2.668
 3027TIP3    H1 9045   6.172   1.974   2.629
 3027TIP3    H2 9046   6.187   1.872   2.739
 3028TIP3   OH2 9047   2.224   2.379   5.690
 3028TIP3    H1 9048   2.250   2.320   5.761
 3028TIP3    H2 9049   2.286   2.452   5.694
 3029TIP3   OH2 9050   5.539   4.313   2.699
 3029TIP3    H1 9051   5.519   4.223   2.672
 3029TIP3    H2 9052   5.460   4.362   2.678
 3030TIP3   OH2 9053   0.311   2.686   3.945
 3030TIP3    H1 9054   0.392   2.639   3.925
 3030TIP3    H2 9055   0.251   2.662   3.874
 3031TIP3   OH2 9056   2.071   1.638   3.990
 3031TIP3    H1 9057   2.155   1.664   4.028
 3031TIP3    H2 9058   2.090   1.620   3.899
 3032TIP3   OH2 9059   4.176   5.618   4.181
 3032TIP3    H1 9060   4.233   5.581   4.114
 3032TIP3    H2 9061   4.205   5.709   4.188
 3033TIP3   OH2 9062   0.803   6.399   3.549
 3033TIP3    H1 9063   0.879   6.455   3.537
 3033TIP3    H2 9064   0.731   6.445   3.506
 3034TIP3   OH2 9065   5.552   1.510   1.265
 3034TIP3    H1 9066   5.476   1.537   1.214
 3034TIP3    H2 9067   5.608   1.465   1.202
 3035TIP3   OH2 9068   3.606   5.297   4.473
 3035TIP3    H1 9069   3.558   5.311   4.555
 3035TIP3    H2 9070   3.686   5.252   4.500
 3036TIP3   OH2 9071   6.756   2.106   0.352
 3036TIP3    H1 9072   6.774   2.026   0.302
 3036TIP3    H2 9073   6.831   2.163   0.334
 3037TIP3   OH2 9074   6.819   0.187   4.096
 3037TIP3    H1 9075   6.755   0.182   4.167
 3037TIP3    H2 9076   6.768   0.180   4.016
 3038TIP3   OH2 9077   5.486   0.488   1.575
 3038TIP3    H1 9078   5.489   0.580   1.552
 3038TIP3    H2 9079   5.440   0.486   1.659
 3039TIP3   OH2 9080   1.725   4.169   4.115
 3039TIP3    H1 9081   1.789   4.117   4.066
 3039TIP3    H2 9082   1.720   4.127   4.201
 3040TIP3   OH2 9083   3.709   2.507   5.432
 3040TIP3    H1 9084   3.700   2.421   5.473
 3040TIP3    H2 9085   3.620   2.532   5.409
 3041TIP3   OH2 9086   0.159   6.287   4.658
 3041TIP3    H1 9087   0.128   6.326   4.576
 3041TIP3    H2 9088   0.170   6.361   4.718
 3042TIP3   OH2 9089   0.180   2.173   5.478
 3042TIP3    H1 9090   0.166   2.230   5.553
 3042TIP3    H2 9091   0.147   2.224   5.403
 3043TIP3   OH2 9092   6.454   4.815   2.655
 3043TIP3    H1 9093   6.536   4.845   2.694
 3043TIP3    H2 9094   6.394   4.807   2.730
 3044TIP3   OH2 9095   1.858   0.270   5.249
 3044TIP3    H1 9096   1.943   0.247   5.285
 3044TIP3    H2 9097   1.819   0.327   5.316
 3045TIP3   OH2 9098   6.840   1.953   2.013
 3045TIP3    H1 9099   6.921   1.902   2.007
 3045TIP3    H2 9100   6.801   1.926   2.096
 3046TIP3   OH2 9101   2.142   4.305   1.150
 3046TIP3    H1 9102   2.214   4.355   1.190
 3046TIP3    H2 9103   2.063   4.354   1.173
 3047TIP3   OH2 9104   0.524   6.327   0.994
 3047TIP3    H1 9105   0.450   6.289   0.948
 3047TIP3    H2 9106   0.514   6.422   0.981
 3048TIP3   OH2 9107   1.603   2.366   1.274
 3048TIP3    H1 9108   1.636   2.435   1.332
 3048TIP3    H2 9109   1.641   2.285   1.308
 3049TIP3   OH2 9110   2.833   2.285   3.505
 3049TIP3    H1 9111   2.814   2.308   3.414
 3049TIP3    H2 9112   2.882   2.359   3.539
 3050TIP3   OH2 9113   1.780   6.721   2.119
 3050TIP3    H1 9114   1.791   6.773   2.199
 3050TIP3    H2 9115   1.849   6.655   2.124
 3051TIP3   OH2 9116   1.515   3.939   2.021
 3051TIP3    H1 9117   1.532   3.861   2.074
 3051TIP3    H2 9118   1.520   4.012   2.083
 3052TIP3   OH2 9119   5.610   4.950   0.981
 3052TIP3    H1 9120   5.665   5.027   0.995
 3052TIP3    H2 9121   5.642   4.912   0.899
 3053TIP3   OH2 9122   0.317   4.083   1.007
 3053TIP3    H1 9123   0.374   4.018   0.966
 3053TIP3    H2 9124   0.240   4.086   0.950
 3054TIP3   OH2 9125   2.034   5.547   4.478
 3054TIP3    H1 9126   2.088   5.509   4.547
 3054TIP3    H2 9127   2.026   5.478   4.412
 3055TIP3   OH2 9128   6.184   5.203   0.718
 3055TIP3    H1 9129   6.248   5.216   0.787
 3055TIP3    H2 9130   6.133   5.285   0.717
 3056TIP3   OH2 9131   0.664   0.454   1.869
 3056TIP3    H1 9132   0.573   0.434   1.849
 3056TIP3    H2 9133   0.714   0.398   1.810
 3057TIP3   OH2 9134   0.425   0.049   4.984
 3057TIP3    H1 9135   0.335   0.034   5.013
 3057TIP3    H2 9136   0.468  -0.036   4.996
 3058TIP3   OH2 9137   6.248   3.122   1.132
 3058TIP3    H1 9138   6.337   3.126   1.096
 3058TIP3    H2 9139   6.193   3.097   1.057
 3059TIP3   OH2 9140   2.907   5.024   5.636
 3059TIP3    H1 9141   2.928   4.956   5.700
 3059TIP3    H2 9142   2.831   4.990   5.589
 3060TIP3   OH2 9143   1.699   6.437   0.482
 3060TIP3    H1 9144   1.762   6.483   0.425
 3060TIP3    H2 9145   1.636   6.399   0.421
 3061TIP3   OH2 9146   6.658   4.039   1.575
 3061TIP3    H1 9147   6.724   4.060   1.510
 3061TIP3    H2 9148   6.618   4.123   1.597
 3062TIP3   OH2 9149   3.401   3.093   1.500
 3062TIP3    H1 9150   3.436   3.081   1.412
 3062TIP3    H2 9151   3.413   3.007   1.541
 3063TIP3   OH2 9152   6.639   3.852   0.087
 3063TIP3    H1 9153   6.727   3.886   0.102
 3063TIP3    H2 9154   6.644   3.759   0.111
 3064TIP3   OH2 9155   6.225   5.125   5.547
 3064TIP3    H1 9156   6.219   5.110   5.453
 3064TIP3    H2 9157   6.298   5.186   5.557
 3065TIP3   OH2 9158   0.959   3.910   2.107
 3065TIP3    H1 9159   0.878   3.935   2.061
 3065TIP3    H2 9160   0.934   3.831   2.156
 3066TIP3   OH2 9161   1.564   0.173   4.164
 3066TIP3    H1 9162   1.656   0.160   4.142
 3066TIP3    H2 9163   1.516   0.146   4.086
 3067TIP3   OH2 9164   6.610   1.307   4.109
 3067TIP3    H1 9165   6.692   1.320   4.158
 3067TIP3    H2 9166   6.550   1.371   4.146
 3068TIP3   OH2 9167   1.760   0.203   4.524
 3068TIP3    H1 9168   1.775   0.298   4.524
 3068TIP3    H2 9169   1.772   0.177   4.615
 3069TIP3   OH2 9170   3.532   3.734   5.121
 3069TIP3    H1 9171   3.590   3.779   5.060
 3069TIP3    H2 9172   3.454   3.789   5.124
 3070TIP3   OH2 9173   0.691   6.436   5.130
 3070TIP3    H1 9174   0.722   6.387   5.206
 3070TIP3    H2 9175   0.694   6.372   5.058
 3071TIP3   OH2 9176   3.024   3.766   3.018
 3071TIP3    H1 9177   3.025   3.705   2.945
 3071TIP3    H2 9178   3.112   3.804   3.019
 3072TIP3   OH2 9179   4.044   5.195   1.145
 3072TIP3    H1 9180   3.995   5.189   1.227
 3072TIP3    H2 9181   3.978   5.189   1.076
 3073TIP3   OH2 9182   6.858   4.248   0.042
 3073TIP3    H1 9183   6.896   4.333   0.021
 3073TIP3    H2 9184   6.786   4.238  -0.021
 3074TIP3   OH2 9185   0.512   5.843   1.594
 3074TIP3    H1 9186   0.420   5.843   1.567
 3074TIP3    H2 9187   0.509   5.823   1.688
 3075TIP3   OH2 9188   2.620   1.715   2.902
 3075TIP3    H1 9189   2.537   1.722   2.854
 3075TIP3    H2 9190   2.658   1.633   2.873
 3076TIP3   OH2 9191   2.923   4.434   0.014
 3076TIP3    H1 9192   2.954   4.470  -0.069
 3076TIP3    H2 9193   2.997   4.383   0.047
 3077TIP3   OH2 9194   5.046   0.346   5.678
 3077TIP3    H1 9195   5.142   0.345   5.673
 3077TIP3    H2 9196   5.018   0.343   5.586
 3078TIP3   OH2 9197   6.836   0.062   5.222
 3078TIP3    H1 9198   6.924   0.098   5.232
 3078TIP3    H2 9199   6.803   0.101   5.141
 3079TIP3   OH2 9200   0.692   2.444   3.467
 3079TIP3    H1 9201   0.725   2.367   3.421
 3079TIP3    H2 9202   0.598   2.445   3.450
 3080TIP3   OH2 9203   6.758   2.735   3.375
 3080TIP3    H1 9204   6.754   2.750   3.280
 3080TIP3    H2 9205   6.818   2.661   3.385
 3081TIP3   OH2 9206   1.529   3.008   2.352
 3081TIP3    H1 9207   1.559   2.997   2.262
 3081TIP3    H2 9208   1.604   3.044   2.399
 3082TIP3   OH2 9209   2.940   4.834   3.065
 3082TIP3    H1 9210   3.009   4.770   3.080
 3082TIP3    H2 9211   2.986   4.918   3.061
 3083TIP3   OH2 9212  -0.011   2.721   5.777
 3083TIP3    H1 9213   0.006   2.667   5.700
 3083TIP3    H2 9214   0.068   2.712   5.831
 3084TIP3   OH2 9215   4.973   6.783   1.806
 3084TIP3    H1 9216   4.907   6.845   1.837
 3084TIP3    H2 9217   4.963   6.783   1.711
 3085TIP3   OH2 9218   4.651   1.428   0.626
 3085TIP3    H1 9219   4.557   1.447   0.631
 3085TIP3    H2 9220   4.657   1.354   0.564
 3086TIP3   OH2 9221   1.720   5.075   3.517
 3086TIP3    H1 9222   1.802   5.072   3.469
 3086TIP3    H2 9223   1.741   5.120   3.599
 3087TIP3   OH2 9224   0.589   2.089   3.416
 3087TIP3    H1 9225   0.679   2.122   3.417
 3087TIP3    H2 9226   0.562   2.095   3.324
 3088TIP3   OH2 9227   1.573   6.725   4.167
 3088TIP3    H1 9228   1.534   6.672   4.098
 3088TIP3    H2 9229   1.516   6.711   4.243
 3089TIP3   OH2 9230   4.419   0.167   4.945
 3089TIP3    H1 9231   4.355   0.205   4.885
 3089TIP3    H2 9232   4.367   0.139   5.020
 3090TIP3   OH2 9233   0.577   6.289   1.685
 3090TIP3    H1 9234   0.663   6.331   1.689
 3090TIP3    H2 9235   0.567   6.245   1.769
 3091TIP3   OH2 9236   4.573   0.717   3.186
 3091TIP3    H1 9237   4.663   0.705   3.158
 3091TIP3    H2 9238   4.558   0.812   3.180
 3092TIP3   OH2 9239   7.076   6.541   0.366
 3092TIP3    H1 9240   7.094   6.624   0.409
 3092TIP3    H2 9241   7.029   6.489   0.431
 3093TIP3   OH2 9242   2.264   5.394   1.601
 3093TIP3    H1 9243   2.353   5.427   1.609
 3093TIP3    H2 9244   2.264   5.311   1.649
 3094TIP3   OH2 9245   0.488   6.388   3.087
 3094TIP3    H1 9246   0.519   6.298   3.094
 3094TIP3    H2 9247   0.567   6.441   3.099
 3095TIP3   OH2 9248   2.988   5.649   1.062
 3095TIP3    H1 9249   3.062   5.692   1.104
 3095TIP3    H2 9250   2.934   5.721   1.029
 3096TIP3   OH2 9251   3.323   6.328   0.930
 3096TIP3    H1 9252   3.382   6.398   0.958
 3096TIP3    H2 9253   3.237   6.355   0.961
 3097TIP3   OH2 9254   3.406   4.344   5.042
 3097TIP3    H1 9255   3.452   4.274   4.995
 3097TIP3    H2 9256   3.365   4.396   4.973
 3098TIP3   OH2 9257   1.259   2.371   5.507
 3098TIP3    H1 9258   1.229   2.288   5.470
 3098TIP3    H2 9259   1.243   2.435   5.438
 3099TIP3   OH2 9260   2.419   2.377   3.366
 3099TIP3    H1 9261   2.368   2.311   3.318
 3099TIP3    H2 9262   2.510   2.358   3.343
 3100TIP3   OH2 9263   0.571   3.846   3.509
 3100TIP3    H1 9264   0.595   3.807   3.425
 3100TIP3    H2 9265   0.497   3.792   3.540
 3101TIP3   OH2 9266   2.208   4.431   3.514
 3101TIP3    H1 9267   2.164   4.446   3.597
 3101TIP3    H2 9268   2.293   4.394   3.538
 3102TIP3   OH2 9269   5.701   3.519   2.353
 3102TIP3    H1 9270   5.771   3.466   2.316
 3102TIP3    H2 9271   5.641   3.535   2.280
 3103TIP3   OH2 9272   3.632   3.113   2.777
 3103TIP3    H1 9273   3.645   3.152   2.864
 3103TIP3    H2 9274   3.658   3.181   2.716
 3104TIP3   OH2 9275   0.925   0.519   4.654
 3104TIP3    H1 9276   0.844   0.568   4.668
 3104TIP3    H2 9277   0.905   0.460   4.582
 3105TIP3   OH2 9278   0.225   1.465   2.216
 3105TIP3    H1 9279   0.198   1.413   2.292
 3105TIP3    H2 9280   0.321   1.467   2.222
 3106TIP3   OH2 9281   4.928   5.676  -0.026
 3106TIP3    H1 9282   4.836   5.649  -0.018
 3106TIP3    H2 9283   4.960   5.681   0.063
 3107TIP3   OH2 9284   0.082   6.711   0.763
 3107TIP3    H1 9285   0.090   6.784   0.824
 3107TIP3    H2 9286   0.166   6.666   0.768
 3108TIP3   OH2 9287   0.766   1.577   5.814
 3108TIP3    H1 9288   0.674   1.572   5.841
 3108TIP3    H2 9289   0.807   1.502   5.856
 3109TIP3   OH2 9290   5.404   6.243   1.384
 3109TIP3    H1 9291   5.312   6.227   1.362
 3109TIP3    H2 9292   5.401   6.308   1.454
 3110TIP3   OH2 9293   4.199   4.263   4.006
 3110TIP3    H1 9294   4.171   4.350   3.980
 3110TIP3    H2 9295   4.163   4.251   4.093
 3111TIP3   OH2 9296   2.536   5.880   4.879
 3111TIP3    H1 9297   2.553   5.880   4.973
 3111TIP3    H2 9298   2.528   5.787   4.856
 3112TIP3   OH2 9299   6.363   2.599   1.407
 3112TIP3    H1 9300   6.346   2.575   1.498
 3112TIP3    H2 9301   6.409   2.523   1.370
 3113TIP3   OH2 9302   0.357   2.129   0.986
 3113TIP3    H1 9303   0.361   2.199   1.052
 3113TIP3    H2 9304   0.344   2.050   1.037
 3114TIP3   OH2 9305   5.085   0.934   5.796
 3114TIP3    H1 9306   5.068   0.841   5.778
 3114TIP3    H2 9307   5.018   0.958   5.860
 3115TIP3   OH2 9308   5.919   0.143   0.085
 3115TIP3    H1 9309   5.840   0.189   0.057
 3115TIP3    H2 9310   5.989   0.178   0.029
 3116TIP3   OH2 9311   0.352   2.999   2.793
 3116TIP3    H1 9312   0.320   2.936   2.728
 3116TIP3    H2 9313   0.304   3.080   2.775
 3117TIP3   OH2 9314   5.625   0.778   0.892
 3117TIP3    H1 9315   5.584   0.700   0.853
 3117TIP3    H2 9316   5.719   0.764   0.880
 3118TIP3   OH2 9317   3.591   2.558   0.332
 3118TIP3    H1 9318   3.647   2.598   0.266
 3118TIP3    H2 9319   3.642   2.485   0.366
 3119TIP3   OH2 9320   5.217   1.897   4.405
 3119TIP3    H1 9321   5.152   1.901   4.475
 3119TIP3    H2 9322   5.299   1.924   4.446
 3120TIP3   OH2 9323   5.797   0.547   2.950
 3120TIP3    H1 9324   5.890   0.567   2.941
 3120TIP3    H2 9325   5.792   0.452   2.936
 3121TIP3   OH2 9326   6.811   3.662   4.511
 3121TIP3    H1 9327   6.817   3.686   4.418
 3121TIP3    H2 9328   6.901   3.639   4.535
 3122TIP3   OH2 9329   3.121   3.779   1.222
 3122TIP3    H1 9330   3.062   3.752   1.292
 3122TIP3    H2 9331   3.200   3.810   1.268
 3123TIP3   OH2 9332   6.248   2.437   3.501
 3123TIP3    H1 9333   6.325   2.494   3.489
 3123TIP3    H2 9334   6.256   2.405   3.591
 3124TIP3   OH2 9335   6.220   1.085   2.362
 3124TIP3    H1 9336   6.271   1.142   2.305
 3124TIP3    H2 9337   6.138   1.071   2.314
 3125TIP3   OH2 9338   5.574   1.772   1.829
 3125TIP3    H1 9339   5.587   1.849   1.884
 3125TIP3    H2 9340   5.609   1.699   1.880
 3126TIP3   OH2 9341   4.476   4.883   4.265
 3126TIP3    H1 9342   4.458   4.802   4.311
 3126TIP3    H2 9343   4.543   4.927   4.317
 3127TIP3   OH2 9344   1.308   1.232   1.242
 3127TIP3    H1 9345   1.298   1.327   1.238
 3127TIP3    H2 9346   1.346   1.215   1.328
 3128TIP3   OH2 9347   1.894   2.627   4.565
 3128TIP3    H1 9348   1.813   2.578   4.581
 3128TIP3    H2 9349   1.896   2.641   4.471
 3129TIP3   OH2 9350   2.294   6.536   1.016
 3129TIP3    H1 9351   2.364   6.600   1.033
 3129TIP3    H2 9352   2.276   6.546   0.923
 3130TIP3   OH2 9353   6.088   1.188   3.763
 3130TIP3    H1 9354   6.081   1.093   3.750
 3130TIP3    H2 9355   6.089   1.199   3.858
 3131TIP3   OH2 9356   3.657   4.243   2.950
 3131TIP3    H1 9357   3.595   4.204   3.012
 3131TIP3    H2 9358   3.670   4.176   2.883
 3132TIP3   OH2 9359   2.208   3.388   0.928
 3132TIP3    H1 9360   2.272   3.334   0.973
 3132TIP3    H2 9361   2.130   3.387   0.984
 3133TIP3   OH2 9362   5.987   2.412   5.048
 3133TIP3    H1 9363   6.049   2.342   5.071
 3133TIP3    H2 9364   5.928   2.372   4.984
 3134TIP3   OH2 9365   6.594   5.274   3.259
 3134TIP3    H1 9366   6.632   5.263   3.172
 3134TIP3    H2 9367   6.661   5.242   3.319
 3135TIP3   OH2 9368   1.195   4.525   2.095
 3135TIP3    H1 9369   1.109   4.562   2.117
 3135TIP3    H2 9370   1.180   4.431   2.092
 3136TIP3   OH2 9371   4.446   2.620   2.727
 3136TIP3    H1 9372   4.532   2.612   2.686
 3136TIP3    H2 9373   4.450   2.702   2.776
 3137TIP3   OH2 9374   0.849   6.615   1.952
 3137TIP3    H1 9375   0.908   6.662   1.893
 3137TIP3    H2 9376   0.845   6.526   1.917
 3138TIP3   OH2 9377   0.307   5.183   2.220
 3138TIP3    H1 9378   0.390   5.226   2.240
 3138TIP3    H2 9379   0.329   5.090   2.213
 3139TIP3   OH2 9380   6.353   4.339   3.585
 3139TIP3    H1 9381   6.368   4.362   3.494
 3139TIP3    H2 9382   6.332   4.245   3.583
 3140TIP3   OH2 9383   3.714   5.346   0.634
 3140TIP3    H1 9384   3.799   5.357   0.592
 3140TIP3    H2 9385   3.732   5.296   0.714
 3141TIP3   OH2 9386   1.270   3.068   2.864
 3141TIP3    H1 9387   1.285   3.042   2.955
 3141TIP3    H2 9388   1.259   3.163   2.868
 3142TIP3   OH2 9389   3.572   5.611   5.333
 3142TIP3    H1 9390   3.655   5.655   5.312
 3142TIP3    H2 9391   3.574   5.602   5.428
 3143TIP3   OH2 9392   6.601   2.387   3.085
 3143TIP3    H1 9393   6.653   2.401   3.005
 3143TIP3    H2 9394   6.523   2.341   3.056
 3144TIP3   OH2 9395   6.606   6.674   4.843
 3144TIP3    H1 9396   6.646   6.706   4.924
 3144TIP3    H2 9397   6.524   6.632   4.872
 3145TIP3   OH2 9398   6.651   1.164   3.602
 3145TIP3    H1 9399   6.640   1.206   3.687
 3145TIP3    H2 9400   6.562   1.151   3.569
 3146TIP3   OH2 9401   3.134   5.425   2.745
 3146TIP3    H1 9402   3.081   5.351   2.714
 3146TIP3    H2 9403   3.197   5.440   2.675
 3147TIP3   OH2 9404   0.409   3.097   1.697
 3147TIP3    H1 9405   0.380   3.009   1.675
 3147TIP3    H2 9406   0.340   3.154   1.665
 3148TIP3   OH2 9407   1.723   3.754   4.291
 3148TIP3    H1 9408   1.691   3.772   4.202
 3148TIP3    H2 9409   1.660   3.693   4.328
 3149TIP3   OH2 9410   0.043   2.274   4.638
 3149TIP3    H1 9411   0.039   2.361   4.677
 3149TIP3    H2 9412  -0.016   2.221   4.691
 3150TIP3   OH2 9413   4.315   3.561   4.067
 3150TIP3    H1 9414   4.383   3.548   4.000
 3150TIP3    H2 9415   4.320   3.483   4.122
 3151TIP3   OH2 9416   3.424   0.432   4.148
 3151TIP3    H1 9417   3.412   0.453   4.056
 3151TIP3    H2 9418   3.364   0.359   4.164
 3152TIP3   OH2 9419   3.644   6.043   1.300
 3152TIP3    H1 9420   3.559   6.000   1.300
 3152TIP3    H2 9421   3.637   6.112   1.234
 3153TIP3   OH2 9422   3.195   0.254   2.587
 3153TIP3    H1 9423   3.152   0.169   2.580
 3153TIP3    H2 9424   3.169   0.301   2.508
 3154TIP3   OH2 9425   1.131   2.415   2.508
 3154TIP3    H1 9426   1.097   2.369   2.585
 3154TIP3    H2 9427   1.070   2.393   2.438
 3155TIP3   OH2 9428   4.747   1.381   5.289
 3155TIP3    H1 9429   4.731   1.306   5.231
 3155TIP3    H2 9430   4.785   1.343   5.368
 3156TIP3   OH2 9431   6.239   5.716   2.347
 3156TIP3    H1 9432   6.146   5.721   2.372
 3156TIP3    H2 9433   6.260   5.623   2.350
 3157TIP3   OH2 9434   2.460   2.770   1.718
 3157TIP3    H1 9435   2.507   2.804   1.794
 3157TIP3    H2 9436   2.370   2.758   1.749
 3158TIP3   OH2 9437   0.244   3.282   1.602
 3158TIP3    H1 9438   0.177   3.294   1.535
 3158TIP3    H2 9439   0.316   3.338   1.574
 3159TIP3   OH2 9440   1.922   4.342   3.727
 3159TIP3    H1 9441   1.868   4.396   3.784
 3159TIP3    H2 9442   1.870   4.328   3.648
 3160TIP3   OH2 9443   6.209   2.879   5.775
 3160TIP3    H1 9444   6.234   2.869   5.683
 3160TIP3    H2 9445   6.240   2.967   5.798
 3161TIP3   OH2 9446   4.108   3.079   2.194
 3161TIP3    H1 9447   4.141   3.055   2.107
 3161TIP3    H2 9448   4.120   3.173   2.199
 3162TIP3   OH2 9449   0.180   3.975   5.742
 3162TIP3    H1 9450   0.139   3.935   5.665
 3162TIP3    H2 9451   0.110   4.029   5.780
 3163TIP3   OH2 9452   0.133   3.122   5.258
 3163TIP3    H1 9453   0.197   3.120   5.187
 3163TIP3    H2 9454   0.168   3.186   5.320
 3164TIP3   OH2 9455   0.998   1.359   3.847
 3164TIP3    H1 9456   0.924   1.362   3.786
 3164TIP3    H2 9457   0.957   1.356   3.934
 3165TIP3   OH2 9458   6.689   3.793   4.056
 3165TIP3    H1 9459   6.733   3.742   4.123
 3165TIP3    H2 9460   6.696   3.740   3.976
 3166TIP3   OH2 9461   4.558   5.473   5.084
 3166TIP3    H1 9462   4.496   5.523   5.032
 3166TIP3    H2 9463   4.607   5.538   5.134
 3167TIP3   OH2 9464   2.653   4.821   3.116
 3167TIP3    H1 9465   2.627   4.907   3.082
 3167TIP3    H2 9466   2.748   4.822   3.115
 3168TIP3   OH2 9467   7.073   2.358   3.649
 3168TIP3    H1 9468   7.049   2.450   3.637
 3168TIP3    H2 9469   7.023   2.311   3.583
 3169TIP3   OH2 9470   1.471   5.478   2.585
 3169TIP3    H1 9471   1.487   5.514   2.498
 3169TIP3    H2 9472   1.378   5.458   2.586
 3170TIP3   OH2 9473   1.083   6.417   1.033
 3170TIP3    H1 9474   1.100   6.352   1.100
 3170TIP3    H2 9475   1.168   6.432   0.991
 3171TIP3   OH2 9476   6.733   2.546   2.047
 3171TIP3    H1 9477   6.821   2.543   2.084
 3171TIP3    H2 9478   6.732   2.624   1.992
 3172TIP3   OH2 9479   5.597   4.373   4.740
 3172TIP3    H1 9480   5.676   4.409   4.780
 3172TIP3    H2 9481   5.568   4.304   4.800
 3173TIP3   OH2 9482   4.044   4.134   0.137
 3173TIP3    H1 9483   3.970   4.101   0.086
 3173TIP3    H2 9484   4.032   4.094   0.223
 3174TIP3   OH2 9485   0.776   5.658   3.355
 3174TIP3    H1 9486   0.784   5.592   3.423
 3174TIP3    H2 9487   0.727   5.615   3.285
 3175TIP3   OH2 9488   5.710   5.351   0.189
 3175TIP3    H1 9489   5.718   5.400   0.107
 3175TIP3    H2 9490   5.642   5.286   0.171
 3176TIP3   OH2 9491   2.793   3.866   3.109
 3176TIP3    H1 9492   2.790   3.943   3.051
 3176TIP3    H2 9493   2.873   3.820   3.083
 3177TIP3   OH2 9494   7.232   6.205   2.349
 3177TIP3    H1 9495   7.317   6.190   2.390
 3177TIP3    H2 9496   7.173   6.143   2.392
 3178TIP3   OH2 9497   6.547   0.044   1.069
 3178TIP3    H1 9498   6.561   0.103   1.143
 3178TIP3    H2 9499   6.574  -0.042   1.102
 3179TIP3   OH2 9500   6.782   5.967   4.454
 3179TIP3    H1 9501   6.752   5.893   4.401
 3179TIP3    H2 9502   6.750   5.948   4.542
 3180TIP3   OH2 9503   4.437   6.561   2.192
 3180TIP3    H1 9504   4.479   6.539   2.109
 3180TIP3    H2 9505   4.360   6.505   2.196
 3181TIP3   OH2 9506   0.510   2.963   0.560
 3181TIP3    H1 9507   0.490   3.017   0.637
 3181TIP3    H2 9508   0.453   2.996   0.491
 3182TIP3   OH2 9509   2.423   0.257   3.696
 3182TIP3    H1 9510   2.384   0.303   3.622
 3182TIP3    H2 9511   2.499   0.310   3.720
 3183TIP3   OH2 9512   5.501   5.872   4.490
 3183TIP3    H1 9513   5.561   5.941   4.462
 3183TIP3    H2 9514   5.430   5.919   4.534
 3184TIP3   OH2 9515   4.131   5.871   0.929
 3184TIP3    H1 9516   4.047   5.853   0.970
 3184TIP3    H2 9517   4.125   5.962   0.900
 3185TIP3   OH2 9518   1.477   0.401   4.372
 3185TIP3    H1 9519   1.390   0.390   4.334
 3185TIP3    H2 9520   1.528   0.328   4.339
 3186TIP3   OH2 9521   0.125   1.503   3.323
 3186TIP3    H1 9522   0.070   1.428   3.345
 3186TIP3    H2 9523   0.098   1.526   3.234
 3187TIP3   OH2 9524   1.744   5.322   1.597
 3187TIP3    H1 9525   1.657   5.358   1.576
 3187TIP3    H2 9526   1.805   5.382   1.555
 3188TIP3   OH2 9527   5.717   2.360   2.754
 3188TIP3    H1 9528   5.703   2.281   2.806
 3188TIP3    H2 9529   5.692   2.432   2.811
 3189TIP3   OH2 9530   4.913   5.979   3.338
 3189TIP3    H1 9531   4.966   6.047   3.378
 3189TIP3    H2 9532   4.973   5.904   3.330
 3190TIP3   OH2 9533   3.233   4.843   1.036
 3190TIP3    H1 9534   3.227   4.769   1.096
 3190TIP3    H2 9535   3.146   4.884   1.040
 3191TIP3   OH2 9536   4.944   4.992   0.939
 3191TIP3    H1 9537   4.946   4.914   0.885
 3191TIP3    H2 9538   4.977   5.062   0.882
 3192TIP3   OH2 9539   0.257   3.133   3.322
 3192TIP3    H1 9540   0.226   3.063   3.379
 3192TIP3    H2 9541   0.182   3.156   3.268
 3193TIP3   OH2 9542   5.089   1.230   5.056
 3193TIP3    H1 9543   5.149   1.213   4.983
 3193TIP3    H2 9544   5.103   1.322   5.077
 3194TIP3   OH2 9545   6.323   5.939   5.178
 3194TIP3    H1 9546   6.329   6.034   5.178
 3194TIP3    H2 9547   6.246   5.920   5.124
 3195TIP3   OH2 9548   3.907   3.882   2.052
 3195TIP3    H1 9549   3.931   3.956   1.996
 3195TIP3    H2 9550   3.953   3.807   2.013
 3196TIP3   OH2 9551   6.624   1.215   5.327
 3196TIP3    H1 9552   6.593   1.124   5.329
 3196TIP3    H2 9553   6.696   1.218   5.390
 3197TIP3   OH2 9554   4.630   4.272   1.748
 3197TIP3    H1 9555   4.599   4.309   1.665
 3197TIP3    H2 9556   4.724   4.264   1.737
 3198TIP3   OH2 9557   6.393   2.000   5.026
 3198TIP3    H1 9558   6.444   1.943   5.083
 3198TIP3    H2 9559   6.307   1.959   5.021
 3199TIP3   OH2 9560   3.736   1.530   5.130
 3199TIP3    H1 9561   3.651   1.491   5.108
 3199TIP3    H2 9562   3.792   1.510   5.055
 3200TIP3   OH2 9563   4.335   5.072   5.279
 3200TIP3    H1 9564   4.353   5.108   5.192
 3200TIP3    H2 9565   4.242   5.048   5.276
 3201TIP3   OH2 9566   6.285   2.298   4.447
 3201TIP3    H1 9567   6.339   2.230   4.487
 3201TIP3    H2 9568   6.247   2.257   4.369
 3202TIP3   OH2 9569   5.434   6.297   3.995
 3202TIP3    H1 9570   5.441   6.392   3.988
 3202TIP3    H2 9571   5.343   6.280   4.017
 3203TIP3   OH2 9572   1.399   5.572   0.085
 3203TIP3    H1 9573   1.368   5.497   0.035
 3203TIP3    H2 9574   1.430   5.634   0.019
 3204TIP3   OH2 9575   5.504   0.915   2.119
 3204TIP3    H1 9576   5.485   0.912   2.025
 3204TIP3    H2 9577   5.574   0.979   2.127
 3205TIP3   OH2 9578   0.989   2.509   1.218
 3205TIP3    H1 9579   0.955   2.426   1.251
 3205TIP3    H2 9580   0.922   2.574   1.239
 3206TIP3   OH2 9581   3.324   6.380   3.763
 3206TIP3    H1 9582   3.262   6.308   3.766
 3206TIP3    H2 9583   3.293   6.436   3.692
 3207TIP3   OH2 9584   5.011   3.191   0.600
 3207TIP3    H1 9585   4.927   3.236   0.610
 3207TIP3    H2 9586   5.056   3.205   0.684
 3208TIP3   OH2 9587   1.728   3.101   1.103
 3208TIP3    H1 9588   1.727   3.177   1.044
 3208TIP3    H2 9589   1.728   3.139   1.191
 3209TIP3   OH2 9590   0.967   0.207   5.322
 3209TIP3    H1 9591   0.934   0.158   5.247
 3209TIP3    H2 9592   0.994   0.291   5.286
 3210TIP3   OH2 9593   5.476   6.163   4.725
 3210TIP3    H1 9594   5.553   6.105   4.730
 3210TIP3    H2 9595   5.470   6.185   4.632
 3211TIP3   OH2 9596   4.326   2.377   5.224
 3211TIP3    H1 9597   4.253   2.345   5.171
 3211TIP3    H2 9598   4.403   2.335   5.186
 3212TIP3   OH2 9599   1.661   5.182   0.830
 3212TIP3    H1 9600   1.725   5.254   0.831
 3212TIP3    H2 9601   1.647   5.163   0.737
 3213TIP3   OH2 9602   4.840   4.706   1.403
 3213TIP3    H1 9603   4.855   4.800   1.406
 3213TIP3    H2 9604   4.925   4.668   1.425
 3214TIP3   OH2 9605   6.419   0.224   0.860
 3214TIP3    H1 9606   6.499   0.223   0.913
 3214TIP3    H2 9607   6.451   0.235   0.771
 3215TIP3   OH2 9608   0.649   5.182   1.557
 3215TIP3    H1 9609   0.734   5.203   1.517
 3215TIP3    H2 9610   0.587   5.186   1.484
 3216TIP3   OH2 9611   0.807   2.933   2.451
 3216TIP3    H1 9612   0.725   2.946   2.403
 3216TIP3    H2 9613   0.815   2.838   2.459
 3217TIP3   OH2 9614   4.841   6.486   5.410
 3217TIP3    H1 9615   4.817   6.432   5.334
 3217TIP3    H2 9616   4.820   6.576   5.383
 3218TIP3   OH2 9617   1.966   3.481   2.504
 3218TIP3    H1 9618   1.880   3.511   2.534
 3218TIP3    H2 9619   1.971   3.391   2.535
 3219TIP3   OH2 9620   2.366   5.878   3.585
 3219TIP3    H1 9621   2.405   5.799   3.548
 3219TIP3    H2 9622   2.272   5.861   3.584
 3220TIP3   OH2 9623   3.729   5.611   3.538
 3220TIP3    H1 9624   3.642   5.606   3.498
 3220TIP3    H2 9625   3.756   5.701   3.525
 3221TIP3   OH2 9626   4.375   1.077   3.451
 3221TIP3    H1 9627   4.365   1.023   3.529
 3221TIP3    H2 9628   4.447   1.137   3.471
 3222TIP3   OH2 9629   3.932   2.373   0.909
 3222TIP3    H1 9630   4.014   2.328   0.893
 3222TIP3    H2 9631   3.865   2.311   0.879
 3223TIP3   OH2 9632   2.024   5.586   3.795
 3223TIP3    H1 9633   2.060   5.620   3.876
 3223TIP3    H2 9634   2.100   5.576   3.737
 3224TIP3   OH2 9635   2.941   4.822   4.975
 3224TIP3    H1 9636   2.904   4.784   4.895
 3224TIP3    H2 9637   3.023   4.774   4.988
 3225TIP3   OH2 9638   1.035   3.272   3.263
 3225TIP3    H1 9639   1.015   3.279   3.356
 3225TIP3    H2 9640   0.976   3.204   3.231
 3226TIP3   OH2 9641   2.576   3.879   3.654
 3226TIP3    H1 9642   2.503   3.844   3.706
 3226TIP3    H2 9643   2.633   3.804   3.639
 3227TIP3   OH2 9644   3.205   3.961   2.402
 3227TIP3    H1 9645   3.146   3.984   2.329
 3227TIP3    H2 9646   3.155   3.984   2.481
 3228TIP3   OH2 9647   4.265   6.037   3.637
 3228TIP3    H1 9648   4.229   5.951   3.657
 3228TIP3    H2 9649   4.188   6.093   3.624
 3229TIP3   OH2 9650   3.158   5.987   0.155
 3229TIP3    H1 9651   3.114   6.066   0.183
 3229TIP3    H2 9652   3.190   5.947   0.237
 3230TIP3   OH2 9653   3.449   1.495   0.553
 3230TIP3    H1 9654   3.453   1.490   0.457
 3230TIP3    H2 9655   3.358   1.516   0.572
 3231TIP3   OH2 9656   6.319   4.025   4.605
 3231TIP3    H1 9657   6.263   4.035   4.528
 3231TIP3    H2 9658   6.380   3.955   4.582
 3232TIP3   OH2 9659   6.147   0.578   5.146
 3232TIP3    H1 9660   6.158   0.530   5.227
 3232TIP3    H2 9661   6.054   0.567   5.124
 3233TIP3   OH2 9662   4.502   5.945   2.831
 3233TIP3    H1 9663   4.413   5.936   2.864
 3233TIP3    H2 9664   4.544   6.006   2.892
 3234TIP3   OH2 9665   3.901   3.500   3.450
 3234TIP3    H1 9666   3.834   3.524   3.513
 3234TIP3    H2 9667   3.901   3.571   3.386
 3235TIP3   OH2 9668   1.818   5.152   4.323
 3235TIP3    H1 9669   1.727   5.181   4.312
 3235TIP3    H2 9670   1.833   5.091   4.251
 3236TIP3   OH2 9671   2.329   4.120   1.957
 3236TIP3    H1 9672   2.234   4.114   1.970
 3236TIP3    H2 9673   2.353   4.035   1.918
 3237TIP3   OH2 9674   6.774   6.328   1.310
 3237TIP3    H1 9675   6.713   6.265   1.270
 3237TIP3    H2 9676   6.718   6.402   1.334
 3238TIP3   OH2 9677   1.453   5.313   1.517
 3238TIP3    H1 9678   1.427   5.231   1.558
 3238TIP3    H2 9679   1.493   5.287   1.434
 3239TIP3   OH2 9680   3.980   1.274   0.632
 3239TIP3    H1 9681   4.017   1.307   0.550
 3239TIP3    H2 9682   3.943   1.351   0.675
 3240TIP3   OH2 9683   1.261   2.052   3.821
 3240TIP3    H1 9684   1.351   2.025   3.805
 3240TIP3    H2 9685   1.269   2.136   3.866
 3241TIP3   OH2 9686   2.913   3.511   4.480
 3241TIP3    H1 9687   2.839   3.499   4.422
 3241TIP3    H2 9688   2.944   3.600   4.464
 3242TIP3   OH2 9689   5.410   5.696   0.406
 3242TIP3    H1 9690   5.341   5.757   0.379
 3242TIP3    H2 9691   5.377   5.656   0.486
 3243TIP3   OH2 9692   0.105   3.401   4.704
 3243TIP3    H1 9693   0.148   3.386   4.620
 3243TIP3    H2 9694   0.101   3.315   4.745
 3244TIP3   OH2 9695   1.786   6.354   5.742
 3244TIP3    H1 9696   1.711   6.396   5.784
 3244TIP3    H2 9697   1.761   6.262   5.735
 3245TIP3   OH2 9698   4.015   1.127   4.260
 3245TIP3    H1 9699   3.938   1.184   4.263
 3245TIP3    H2 9700   4.084   1.183   4.224
 3246TIP3   OH2 9701   5.565   4.865   4.277
 3246TIP3    H1 9702   5.583   4.867   4.371
 3246TIP3    H2 9703   5.637   4.915   4.238
 3247TIP3   OH2 9704   6.749   4.524   5.433
 3247TIP3    H1 9705   6.770   4.583   5.506
 3247TIP3    H2 9706   6.654   4.525   5.429
 3248TIP3   OH2 9707   0.277   5.085   3.349
 3248TIP3    H1 9708   0.299   5.004   3.304
 3248TIP3    H2 9709   0.193   5.111   3.312
 3249TIP3   OH2 9710   5.157   4.026   2.416
 3249TIP3    H1 9711   5.094   4.089   2.381
 3249TIP3    H2 9712   5.168   3.962   2.347
 3250TIP3   OH2 9713   2.082   3.884   2.744
 3250TIP3    H1 9714   2.159   3.828   2.728
 3250TIP3    H2 9715   2.017   3.853   2.681
 3251TIP3   OH2 9716   2.712   6.134   5.274
 3251TIP3    H1 9717   2.726   6.094   5.360
 3251TIP3    H2 9718   2.676   6.220   5.294
 3252TIP3   OH2 9719   2.440   5.236   3.806
 3252TIP3    H1 9720   2.454   5.326   3.834
 3252TIP3    H2 9721   2.505   5.185   3.855
 3253TIP3   OH2 9722   2.652   0.275   1.122
 3253TIP3    H1 9723   2.738   0.309   1.147
 3253TIP3    H2 9724   2.590   0.335   1.163
 3254TIP3   OH2 9725   1.608   3.844   4.589
 3254TIP3    H1 9726   1.680   3.897   4.622
 3254TIP3    H2 9727   1.637   3.816   4.502
 3255TIP3   OH2 9728   5.577   5.303   3.284
 3255TIP3    H1 9729   5.554   5.338   3.370
 3255TIP3    H2 9730   5.505   5.242   3.264
 3256TIP3   OH2 9731   1.427   1.770   5.455
 3256TIP3    H1 9732   1.355   1.758   5.517
 3256TIP3    H2 9733   1.489   1.826   5.501
 3257TIP3   OH2 9734   2.287   3.610   4.973
 3257TIP3    H1 9735   2.259   3.531   5.020
 3257TIP3    H2 9736   2.299   3.675   5.042
 3258TIP3   OH2 9737   0.524   0.300   4.898
 3258TIP3    H1 9738   0.502   0.314   4.806
 3258TIP3    H2 9739   0.491   0.212   4.917
 3259TIP3   OH2 9740   6.596   4.410   1.181
 3259TIP3    H1 9741   6.605   4.348   1.108
 3259TIP3    H2 9742   6.565   4.491   1.141
 3260TIP3   OH2 9743   0.312   1.773   1.570
 3260TIP3    H1 9744   0.267   1.842   1.620
 3260TIP3    H2 9745   0.401   1.773   1.605
 3261TIP3   OH2 9746   1.334   1.101   0.134
 3261TIP3    H1 9747   1.392   1.069   0.204
 3261TIP3    H2 9748   1.253   1.125   0.179
 3262TIP3   OH2 9749   3.544   3.226   5.659
 3262TIP3    H1 9750   3.572   3.289   5.593
 3262TIP3    H2 9751   3.450   3.243   5.670
 3263TIP3   OH2 9752   6.473   6.115   4.501
 3263TIP3    H1 9753   6.489   6.209   4.507
 3263TIP3    H2 9754   6.534   6.076   4.563
 3264TIP3   OH2 9755   2.447   3.828   5.392
 3264TIP3    H1 9756   2.368   3.819   5.339
 3264TIP3    H2 9757   2.416   3.859   5.476
 3265TIP3   OH2 9758   3.622   3.561   0.993
 3265TIP3    H1 9759   3.676   3.640   0.992
 3265TIP3    H2 9760   3.670   3.500   1.049
 3266TIP3   OH2 9761   3.592   6.433   2.478
 3266TIP3    H1 9762   3.631   6.426   2.391
 3266TIP3    H2 9763   3.608   6.347   2.519
 3267TIP3   OH2 9764   5.908   2.334   0.748
 3267TIP3    H1 9765   5.840   2.393   0.781
 3267TIP3    H2 9766   5.927   2.277   0.823
 3268TIP3   OH2 9767   5.370   3.062   3.892
 3268TIP3    H1 9768   5.459   3.070   3.855
 3268TIP3    H2 9769   5.312   3.081   3.818
 3269TIP3   OH2 9770   3.034   4.286   0.255
 3269TIP3    H1 9771   3.083   4.247   0.327
 3269TIP3    H2 9772   2.942   4.277   0.280
 3270TIP3   OH2 9773   5.135   6.278   3.790
 3270TIP3    H1 9774   5.067   6.260   3.725
 3270TIP3    H2 9775   5.088   6.317   3.863
 3271TIP3   OH2 9776   6.312   4.230   2.644
 3271TIP3    H1 9777   6.238   4.178   2.677
 3271TIP3    H2 9778   6.318   4.206   2.552
 3272TIP3   OH2 9779   3.260   2.912   5.079
 3272TIP3    H1 9780   3.259   2.927   5.174
 3272TIP3    H2 9781   3.192   2.847   5.065
 3273TIP3   OH2 9782   6.367   1.212   5.657
 3273TIP3    H1 9783   6.283   1.193   5.617
 3273TIP3    H2 9784   6.429   1.152   5.615
 3274TIP3   OH2 9785   0.968   6.008   2.620
 3274TIP3    H1 9786   1.028   6.021   2.693
 3274TIP3    H2 9787   1.024   5.988   2.545
 3275TIP3   OH2 9788   1.668   6.231   2.889
 3275TIP3    H1 9789   1.743   6.230   2.830
 3275TIP3    H2 9790   1.642   6.140   2.897
 3276TIP3   OH2 9791   5.350   4.388   0.536
 3276TIP3    H1 9792   5.399   4.337   0.471
 3276TIP3    H2 9793   5.259   4.385   0.505
 3277TIP3   OH2 9794   3.258   0.950   0.669
 3277TIP3    H1 9795   3.293   1.020   0.724
 3277TIP3    H2 9796   3.334   0.896   0.648
 3278TIP3   OH2 9797   7.167   1.512   0.195
 3278TIP3    H1 9798   7.109   1.487   0.123
 3278TIP3    H2 9799   7.210   1.592   0.165
 3279TIP3   OH2 9800   0.462   6.607   1.042
 3279TIP3    H1 9801   0.487   6.699   1.049
 3279TIP3    H2 9802   0.450   6.578   1.133
 3280TIP3   OH2 9803   1.695   1.319   4.319
 3280TIP3    H1 9804   1.611   1.302   4.277
 3280TIP3    H2 9805   1.679   1.395   4.374
 3281TIP3   OH2 9806   5.600   5.951   4.992
 3281TIP3    H1 9807   5.650   5.972   5.071
 3281TIP3    H2 9808   5.621   6.021   4.931
 3282TIP3   OH2 9809   7.097   2.628   2.362
 3282TIP3    H1 9810   7.137   2.713   2.345
 3282TIP3    H2 9811   7.147   2.591   2.435
 3283TIP3   OH2 9812   0.355   5.320   4.834
 3283TIP3    H1 9813   0.359   5.412   4.861
 3283TIP3    H2 9814   0.433   5.281   4.874
 3284TIP3   OH2 9815   1.663   5.506   2.941
 3284TIP3    H1 9816   1.726   5.521   2.871
 3284TIP3    H2 9817   1.616   5.427   2.914
 3285TIP3   OH2 9818   4.899   6.092   4.714
 3285TIP3    H1 9819   4.824   6.132   4.671
 3285TIP3    H2 9820   4.973   6.147   4.690
 3286TIP3   OH2 9821   1.651   3.223   1.341
 3286TIP3    H1 9822   1.729   3.190   1.386
 3286TIP3    H2 9823   1.620   3.294   1.398
 3287TIP3   OH2 9824   1.227   5.332   2.103
 3287TIP3    H1 9825   1.322   5.326   2.088
 3287TIP3    H2 9826   1.190   5.263   2.048
 3288TIP3   OH2 9827   0.875   4.362   3.971
 3288TIP3    H1 9828   0.894   4.336   4.061
 3288TIP3    H2 9829   0.779   4.363   3.966
 3289TIP3   OH2 9830   0.691   6.588   5.555
 3289TIP3    H1 9831   0.777   6.561   5.525
 3289TIP3    H2 9832   0.709   6.645   5.630
 3290TIP3   OH2 9833   1.928   3.605   4.749
 3290TIP3    H1 9834   1.842   3.578   4.716
 3290TIP3    H2 9835   1.960   3.529   4.798
 3291TIP3   OH2 9836   2.283   1.920   2.557
 3291TIP3    H1 9837   2.289   2.009   2.521
 3291TIP3    H2 9838   2.311   1.864   2.484
 3292TIP3   OH2 9839   6.255   6.736   5.797
 3292TIP3    H1 9840   6.235   6.795   5.869
 3292TIP3    H2 9841   6.195   6.663   5.809
 3293TIP3   OH2 9842   0.133   1.662   5.676
 3293TIP3    H1 9843   0.205   1.685   5.617
 3293TIP3    H2 9844   0.100   1.746   5.708
 3294TIP3   OH2 9845   2.030   2.610   2.293
 3294TIP3    H1 9846   1.985   2.543   2.344
 3294TIP3    H2 9847   2.027   2.688   2.348
 3295TIP3   OH2 9848   4.336   4.978   2.687
 3295TIP3    H1 9849   4.245   4.958   2.710
 3295TIP3    H2 9850   4.356   5.057   2.737
 3296TIP3   OH2 9851   0.745   4.937   0.775
 3296TIP3    H1 9852   0.677   4.869   0.769
 3296TIP3    H2 9853   0.827   4.888   0.784
 3297TIP3   OH2 9854   5.719   0.302   0.445
 3297TIP3    H1 9855   5.653   0.309   0.376
 3297TIP3    H2 9856   5.761   0.217   0.430
 3298TIP3   OH2 9857   0.795   5.248   0.399
 3298TIP3    H1 9858   0.886   5.250   0.429
 3298TIP3    H2 9859   0.759   5.332   0.428
 3299TIP3   OH2 9860   0.419   4.047   3.670
 3299TIP3    H1 9861   0.468   3.993   3.608
 3299TIP3    H2 9862   0.484   4.108   3.705
 3300TIP3   OH2 9863   3.186   0.570   3.844
 3300TIP3    H1 9864   3.114   0.589   3.903
 3300TIP3    H2 9865   3.145   0.556   3.759
 3301TIP3   OH2 9866   7.230   5.274   1.380
 3301TIP3    H1 9867   7.176   5.328   1.438
 3301TIP3    H2 9868   7.171   5.206   1.348
 3302TIP3   OH2 9869   4.533   3.063   4.857
 3302TIP3    H1 9870   4.572   3.103   4.780
 3302TIP3    H2 9871   4.601   3.068   4.924
 3303TIP3   OH2 9872   4.301   4.770   0.402
 3303TIP3    H1 9873   4.359   4.779   0.326
 3303TIP3    H2 9874   4.354   4.725   0.468
 3304TIP3   OH2 9875   6.455   1.704   1.691
 3304TIP3    H1 9876   6.364   1.680   1.674
 3304TIP3    H2 9877   6.457   1.726   1.784
 3305TIP3   OH2 9878   6.774   1.293   1.179
 3305TIP3    H1 9879   6.749   1.383   1.198
 3305TIP3    H2 9880   6.846   1.274   1.239
 3306TIP3   OH2 9881   6.810   5.407   4.460
 3306TIP3    H1 9882   6.790   5.478   4.398
 3306TIP3    H2 9883   6.777   5.328   4.417
 3307TIP3   OH2 9884   2.360   1.714   2.771
 3307TIP3    H1 9885   2.330   1.747   2.687
 3307TIP3    H2 9886   2.284   1.668   2.807
 3308TIP3   OH2 9887   1.425   0.252   0.605
 3308TIP3    H1 9888   1.409   0.307   0.528
 3308TIP3    H2 9889   1.499   0.196   0.579
 3309TIP3   OH2 9890   2.808   1.464   1.595
 3309TIP3    H1 9891   2.729   1.435   1.549
 3309TIP3    H2 9892   2.840   1.538   1.543
 3310TIP3   OH2 9893   6.711   5.874   2.712
 3310TIP3    H1 9894   6.671   5.955   2.681
 3310TIP3    H2 9895   6.708   5.815   2.637
 3311TIP3   OH2 9896   5.183   2.512   3.462
 3311TIP3    H1 9897   5.185   2.584   3.399
 3311TIP3    H2 9898   5.094   2.515   3.498
 3312TIP3   OH2 9899   5.463   5.874   5.724
 3312TIP3    H1 9900   5.522   5.799   5.727
 3312TIP3    H2 9901   5.384   5.841   5.680
 3313TIP3   OH2 9902   5.733   5.977   4.018
 3313TIP3    H1 9903   5.659   5.930   4.058
 3313TIP3    H2 9904   5.726   6.066   4.052
 3314TIP3   OH2 9905   4.751   2.963   2.496
 3314TIP3    H1 9906   4.702   2.952   2.415
 3314TIP3    H2 9907   4.702   3.030   2.545
 3315TIP3   OH2 9908   3.881   3.869   4.394
 3315TIP3    H1 9909   3.799   3.916   4.381
 3315TIP3    H2 9910   3.920   3.864   4.307
 3316TIP3   OH2 9911   4.758   4.620   2.517
 3316TIP3    H1 9912   4.736   4.713   2.509
 3316TIP3    H2 9913   4.776   4.608   2.610
 3317TIP3   OH2 9914   5.265   2.747   0.868
 3317TIP3    H1 9915   5.256   2.815   0.800
 3317TIP3    H2 9916   5.185   2.756   0.920
 3318TIP3   OH2 9917   3.619   0.636   2.190
 3318TIP3    H1 9918   3.556   0.565   2.187
 3318TIP3    H2 9919   3.603   0.686   2.110
 3319TIP3   OH2 9920   1.690   4.976   1.317
 3319TIP3    H1 9921   1.639   4.910   1.270
 3319TIP3    H2 9922   1.636   4.998   1.393
 3320TIP3   OH2 9923   3.000   3.460   2.992
 3320TIP3    H1 9924   3.057   3.385   3.009
 3320TIP3    H2 9925   3.013   3.478   2.898
 3321TIP3   OH2 9926   2.353   3.796   3.787
 3321TIP3    H1 9927   2.320   3.707   3.798
 3321TIP3    H2 9928   2.372   3.827   3.875
 3322TIP3   OH2 9929   7.182   0.137   2.825
 3322TIP3    H1 9930   7.093   0.146   2.859
 3322TIP3    H2 9931   7.175   0.160   2.732
 3323TIP3   OH2 9932   6.690   2.391   3.558
 3323TIP3    H1 9933   6.645   2.473   3.579
 3323TIP3    H2 9934   6.744   2.373   3.635
 3324TIP3   OH2 9935   6.083   3.652   5.602
 3324TIP3    H1 9936   6.083   3.742   5.571
 3324TIP3    H2 9937   5.999   3.616   5.572
 3325TIP3   OH2 9938   0.477   6.073   5.167
 3325TIP3    H1 9939   0.406   6.108   5.220
 3325TIP3    H2 9940   0.553   6.125   5.193
 3326TIP3   OH2 9941   7.053   6.086   1.006
 3326TIP3    H1 9942   7.136   6.115   1.044
 3326TIP3    H2 9943   7.020   6.162   0.959
 3327TIP3   OH2 9944   2.605   0.236   2.047
 3327TIP3    H1 9945   2.687   0.223   2.000
 3327TIP3    H2 9946   2.630   0.232   2.140
 3328TIP3   OH2 9947   0.170   2.731   5.259
 3328TIP3    H1 9948   0.156   2.640   5.234
 3328TIP3    H2 9949   0.248   2.757   5.211
 3329TIP3   OH2 9950   5.290   2.543   0.680
 3329TIP3    H1 9951   5.198   2.567   0.664
 3329TIP3    H2 9952   5.302   2.559   0.774
 3330TIP3   OH2 9953   6.662   4.322   1.430
 3330TIP3    H1 9954   6.588   4.318   1.490
 3330TIP3    H2 9955   6.623   4.331   1.343
 3331TIP3   OH2 9956   6.044   5.115   3.295
 3331TIP3    H1 9957   6.063   5.192   3.348
 3331TIP3    H2 9958   5.976   5.144   3.234
 3332TIP3   OH2 9959   1.455   6.359   4.451
 3332TIP3    H1 9960   1.432   6.274   4.489
 3332TIP3    H2 9961   1.394   6.371   4.379
 3333TIP3   OH2 9962   6.313   4.675   2.260
 3333TIP3    H1 9963   6.372   4.730   2.312
 3333TIP3    H2 9964   6.277   4.613   2.324
 3334TIP3   OH2 9965   5.789   4.458   4.430
 3334TIP3    H1 9966   5.851   4.530   4.438
 3334TIP3    H2 9967   5.708   4.498   4.402
 3335TIP3   OH2 9968   5.788   6.722   3.096
 3335TIP3    H1 9969   5.721   6.787   3.114
 3335TIP3    H2 9970   5.845   6.763   3.032
 3336TIP3   OH2 9971   6.820   6.112   2.250
 3336TIP3    H1 9972   6.783   6.028   2.223
 3336TIP3    H2 9973   6.856   6.096   2.337
 3337TIP3   OH2 9974   0.125   1.547   0.670
 3337TIP3    H1 9975   0.158   1.577   0.756
 3337TIP3    H2 9976   0.037   1.583   0.664
 3338TIP3   OH2 9977   4.800   1.976   1.964
 3338TIP3    H1 9978   4.797   2.039   2.036
 3338TIP3    H2 9979   4.776   2.027   1.887
 3339TIP3   OH2 9980   6.976   6.803   4.058
 3339TIP3    H1 9981   7.034   6.750   4.114
 3339TIP3    H2 9982   6.944   6.742   3.992
 3340TIP3   OH2 9983   7.070   5.123   5.414
 3340TIP3    H1 9984   7.115   5.052   5.370
 3340TIP3    H2 9985   7.140   5.176   5.452
 3341TIP3   OH2 9986   5.548   5.289   5.711
 3341TIP3    H1 9987   5.499   5.310   5.790
 3341TIP3    H2 9988   5.590   5.371   5.686
 3342TIP3   OH2 9989   5.455   4.709   1.477
 3342TIP3    H1 9990   5.363   4.720   1.500
 3342TIP3    H2 9991   5.468   4.766   1.401
 3343TIP3   OH2 9992   3.828   3.110   0.493
 3343TIP3    H1 9993   3.836   3.015   0.490
 3343TIP3    H2 9994   3.859   3.134   0.580
 3344TIP3   OH2 9995   4.610   4.052   3.983
 3344TIP3    H1 9996   4.699   4.039   3.949
 3344TIP3    H2 9997   4.593   3.974   4.036
 3345TIP3   OH2 9998   1.052   1.100   1.222
 3345TIP3    H1 9999   0.999   1.103   1.301
 3345TIP3    H210000   1.133   1.146   1.245
 3346TIP3   OH210001   7.058   5.088   1.254
 3346TIP3    H110002   7.085   5.013   1.202
 3346TIP3    H210003   7.045   5.053   1.342
 3347TIP3   OH210004   2.347   6.056   2.881
 3347TIP3    H110005   2.415   6.081   2.943
 3347TIP3    H210006   2.391   5.997   2.819
 3348TIP3   OH210007   6.353   3.968   3.788
 3348TIP3    H110008   6.372   3.875   3.780
 3348TIP3    H210009   6.262   3.972   3.820
 3349TIP3   OH210010   1.554   6.597   4.777
 3349TIP3    H110011   1.508   6.565   4.855
 3349TIP3    H210012   1.601   6.522   4.743
 3350TIP3   OH210013   5.652   2.744   0.106
 3350TIP3    H110014   5.717   2.674   0.116
 3350TIP3    H210015   5.632   2.771   0.196
 3351TIP3   OH210016   6.963   2.292   5.294
 3351TIP3    H110017   6.929   2.334   5.215
 3351TIP3    H210018   6.944   2.198   5.281
 3352TIP3   OH210019   5.425   1.769   3.547
 3352TIP3    H110020   5.487   1.712   3.503
 3352TIP3    H210021   5.465   1.788   3.632
 3353TIP3   OH210022   4.126   3.841   2.581
 3353TIP3    H110023   4.206   3.794   2.558
 3353TIP3    H210024   4.082   3.855   2.497
 3354TIP3   OH210025   6.514   2.123   5.802
 3354TIP3    H110026   6.552   2.211   5.795
 3354TIP3    H210027   6.534   2.095   5.891
 3355TIP3   OH210028   2.810   2.972   4.887
 3355TIP3    H110029   2.804   3.038   4.819
 3355TIP3    H210030   2.722   2.968   4.925
 3356TIP3   OH210031   4.005   1.932   0.868
 3356TIP3    H110032   3.929   1.991   0.865
 3356TIP3    H210033   4.064   1.972   0.932
 3357TIP3   OH210034   4.664   5.009   4.841
 3357TIP3    H110035   4.611   4.931   4.857
 3357TIP3    H210036   4.619   5.055   4.771
 3358TIP3   OH210037   4.661   4.095   0.585
 3358TIP3    H110038   4.599   4.151   0.538
 3358TIP3    H210039   4.611   4.059   0.658
 3359TIP3   OH210040   4.719   2.413   5.473
 3359TIP3    H110041   4.634   2.451   5.452
 3359TIP3    H210042   4.699   2.326   5.509
 3360TIP3   OH210043   0.203   2.929   0.658
 3360TIP3    H110044   0.111   2.906   0.646
 3360TIP3    H210045   0.210   3.020   0.629
 3361TIP3   OH210046   5.373   3.809   2.693
 3361TIP3    H110047   5.407   3.772   2.612
 3361TIP3    H210048   5.418   3.761   2.762
 3362TIP3   OH210049   6.191   3.657   0.787
 3362TIP3    H110050   6.120   3.610   0.744
 3362TIP3    H210051   6.191   3.744   0.747
 3363TIP3   OH210052   6.177   2.366   1.499
 3363TIP3    H110053   6.110   2.426   1.465
 3363TIP3    H210054   6.212   2.411   1.576
 3364TIP3   OH210055   0.185   1.421   5.846
 3364TIP3    H110056   0.214   1.447   5.934
 3364TIP3    H210057   0.223   1.334   5.833
 3365TIP3   OH210058   1.693   4.548   5.632
 3365TIP3    H110059   1.627   4.509   5.574
 3365TIP3    H210060   1.642   4.585   5.704
 3366TIP3   OH210061   1.542   1.075   5.406
 3366TIP3    H110062   1.512   1.157   5.445
 3366TIP3    H210063   1.589   1.031   5.477
 3367TIP3   OH210064   5.398   4.538   2.690
 3367TIP3    H110065   5.442   4.605   2.742
 3367TIP3    H210066   5.318   4.520   2.738
 3368TIP3   OH210067   3.164   4.467   4.160
 3368TIP3    H110068   3.155   4.560   4.182
 3368TIP3    H210069   3.240   4.464   4.101
 3369TIP3   OH210070   0.454   1.685   3.103
 3369TIP3    H110071   0.483   1.722   3.019
 3369TIP3    H210072   0.522   1.621   3.125
 3370TIP3   OH210073   4.234   1.357   4.710
 3370TIP3    H110074   4.221   1.379   4.618
 3370TIP3    H210075   4.268   1.267   4.709
 3371TIP3   OH210076   7.151   2.858   0.610
 3371TIP3    H110077   7.062   2.893   0.618
 3371TIP3    H210078   7.139   2.763   0.605
 3372TIP3   OH210079   5.316   2.836   5.832
 3372TIP3    H110080   5.334   2.761   5.888
 3372TIP3    H210081   5.357   2.814   5.748
 3373TIP3   OH210082   4.922   5.763   3.645
 3373TIP3    H110083   4.901   5.748   3.553
 3373TIP3    H210084   4.839   5.789   3.684
 3374TIP3   OH210085   3.521   0.910  -0.023
 3374TIP3    H110086   3.558   0.897   0.064
 3374TIP3    H210087   3.434   0.946  -0.007
 3375TIP3   OH210088   2.930   3.192   1.963
 3375TIP3    H110089   2.963   3.126   2.024
 3375TIP3    H210090   2.894   3.261   2.018
 3376TIP3   OH210091   6.282   3.377   3.109
 3376TIP3    H110092   6.278   3.466   3.075
 3376TIP3    H210093   6.263   3.386   3.203
 3377TIP3   OH210094   2.053   3.906   1.040
 3377TIP3    H110095   2.083   3.825   0.999
 3377TIP3    H210096   2.112   3.919   1.114
 3378TIP3   OH210097   5.733   5.682   0.147
 3378TIP3    H110098   5.791   5.611   0.119
 3378TIP3    H210099   5.649   5.640   0.164
 3379TIP3   OH210100   4.016   4.896   5.759
 3379TIP3    H110101   4.058   4.981   5.770
 3379TIP3    H210102   4.082   4.841   5.716
 3380TIP3   OH210103   3.637  -0.062   4.569
 3380TIP3    H110104   3.668   0.024   4.599
 3380TIP3    H210105   3.567  -0.042   4.508
 3381TIP3   OH210106   6.219   3.303   2.809
 3381TIP3    H110107   6.188   3.296   2.899
 3381TIP3    H210108   6.246   3.395   2.800
 3382TIP3   OH210109   1.612   1.196   2.650
 3382TIP3    H110110   1.542   1.232   2.596
 3382TIP3    H210111   1.645   1.121   2.599
 3383TIP3   OH210112   2.647   6.373   1.346
 3383TIP3    H110113   2.715   6.358   1.412
 3383TIP3    H210114   2.687   6.435   1.284
 3384TIP3   OH210115   5.500   6.076   2.117
 3384TIP3    H110116   5.462   6.124   2.044
 3384TIP3    H210117   5.481   5.984   2.098
 3385TIP3   OH210118   0.604   6.023   5.740
 3385TIP3    H110119   0.581   6.095   5.682
 3385TIP3    H210120   0.622   6.065   5.824
 3386TIP3   OH210121   5.542   3.285   0.827
 3386TIP3    H110122   5.452   3.302   0.854
 3386TIP3    H210123   5.540   3.288   0.731
 3387TIP3   OH210124   1.241   0.274   4.191
 3387TIP3    H110125   1.325   0.247   4.156
 3387TIP3    H210126   1.181   0.203   4.168
 3388TIP3   OH210127   5.310   0.818   4.047
 3388TIP3    H110128   5.215   0.829   4.033
 3388TIP3    H210129   5.316   0.756   4.120
 3389TIP3   OH210130   0.501   0.089   4.648
 3389TIP3    H110131   0.468   0.062   4.562
 3389TIP3    H210132   0.446   0.163   4.673
 3390TIP3   OH210133   6.194   3.615   5.098
 3390TIP3    H110134   6.237   3.668   5.165
 3390TIP3    H210135   6.110   3.591   5.136
 3391TIP3   OH210136   6.569   4.631   3.555
 3391TIP3    H110137   6.627   4.624   3.631
 3391TIP3    H210138   6.548   4.540   3.534
 3392TIP3   OH210139   2.747   2.811   5.518
 3392TIP3    H110140   2.733   2.905   5.509
 3392TIP3    H210141   2.814   2.803   5.586
 3393TIP3   OH210142   3.624   6.496   5.662
 3393TIP3    H110143   3.660   6.570   5.711
 3393TIP3    H210144   3.529   6.510   5.662
 3394TIP3   OH210145   6.940   1.741   1.878
 3394TIP3    H110146   6.965   1.733   1.786
 3394TIP3    H210147   6.910   1.654   1.903
 3395TIP3   OH210148   6.836   0.168   5.493
 3395TIP3    H110149   6.869   0.123   5.416
 3395TIP3    H210150   6.760   0.116   5.521
 3396TIP3   OH210151   0.261   3.714   2.086
 3396TIP3    H110152   0.232   3.711   1.995
 3396TIP3    H210153   0.326   3.784   2.089
 3397TIP3   OH210154   5.038   6.006   0.414
 3397TIP3    H110155   5.001   5.950   0.483
 3397TIP3    H210156   4.966   6.017   0.352
 3398TIP3   OH210157   3.695   0.094   4.811
 3398TIP3    H110158   3.625   0.157   4.826
 3398TIP3    H210159   3.718   0.062   4.898
 3399TIP3   OH210160   3.857   2.162   2.600
 3399TIP3    H110161   3.948   2.175   2.575
 3399TIP3    H210162   3.806   2.195   2.526
 3400TIP3   OH210163   3.538   2.102   2.374
 3400TIP3    H110164   3.529   2.063   2.461
 3400TIP3    H210165   3.575   2.032   2.320
 3401TIP3   OH210166   5.015   5.104   5.506
 3401TIP3    H110167   5.046   5.081   5.419
 3401TIP3    H210168   5.027   5.025   5.558
 3402TIP3   OH210169   2.199   5.659   2.743
 3402TIP3    H110170   2.185   5.586   2.683
 3402TIP3    H210171   2.166   5.736   2.696
 3403TIP3   OH210172   1.036   2.645   0.149
 3403TIP3    H110173   1.082   2.701   0.087
 3403TIP3    H210174   0.945   2.644   0.118
 3404TIP3   OH210175   3.898   6.065   1.544
 3404TIP3    H110176   3.816   6.114   1.538
 3404TIP3    H210177   3.960   6.127   1.585
 3405TIP3   OH210178   3.436   4.915   2.881
 3405TIP3    H110179   3.485   4.996   2.870
 3405TIP3    H210180   3.352   4.942   2.920
 3406TIP3   OH210181   3.119   6.054   4.786
 3406TIP3    H110182   3.109   6.063   4.881
 3406TIP3    H210183   3.210   6.028   4.774
 3407TIP3   OH210184   0.025   3.945   2.529
 3407TIP3    H110185  -0.046   3.883   2.516
 3407TIP3    H210186   0.104   3.897   2.502
 3408TIP3   OH210187   5.809   4.936   2.041
 3408TIP3    H110188   5.761   4.923   2.122
 3408TIP3    H210189   5.794   5.028   2.019
 3409TIP3   OH210190   0.955   6.339   5.140
 3409TIP3    H110191   0.949   6.391   5.061
 3409TIP3    H210192   0.996   6.257   5.112
 3410TIP3   OH210193   4.167   2.048   4.100
 3410TIP3    H110194   4.234   2.109   4.128
 3410TIP3    H210195   4.085   2.087   4.130
 3411TIP3   OH210196   1.287   6.370   1.341
 3411TIP3    H110197   1.293   6.380   1.436
 3411TIP3    H210198   1.205   6.412   1.317
 3412TIP3   OH210199   5.383   2.015   2.080
 3412TIP3    H110200   5.355   1.936   2.127
 3412TIP3    H210201   5.371   2.086   2.144
 3413TIP3   OH210202   7.095   1.514   1.304
 3413TIP3    H110203   7.048   1.450   1.357
 3413TIP3    H210204   7.086   1.482   1.214
 3414TIP3   OH210205   7.096   4.523   1.610
 3414TIP3    H110206   7.060   4.507   1.697
 3414TIP3    H210207   7.104   4.436   1.572
 3415TIP3   OH210208   3.531   6.254   5.073
 3415TIP3    H110209   3.578   6.175   5.048
 3415TIP3    H210210   3.572   6.281   5.155
 3416TIP3   OH210211   7.127   1.551   4.417
 3416TIP3    H110212   7.219   1.540   4.442
 3416TIP3    H210213   7.108   1.475   4.361
 3417TIP3   OH210214   6.259   6.653   0.714
 3417TIP3    H110215   6.178   6.675   0.761
 3417TIP3    H210216   6.293   6.576   0.759
 3418TIP3   OH210217   2.495   4.517   0.562
 3418TIP3    H110218   2.404   4.502   0.537
 3418TIP3    H210219   2.537   4.431   0.557
 3419TIP3   OH210220   6.570   2.458   2.244
 3419TIP3    H110221   6.595   2.468   2.152
 3419TIP3    H210222   6.627   2.519   2.291
 3420TIP3   OH210223   0.632   6.352   2.623
 3420TIP3    H110224   0.609   6.277   2.678
 3420TIP3    H210225   0.607   6.325   2.534
 3421TIP3   OH210226   0.196   0.532   4.247
 3421TIP3    H110227   0.262   0.588   4.206
 3421TIP3    H210228   0.238   0.446   4.253
 3422TIP3   OH210229   6.025   4.474   4.648
 3422TIP3    H110230   6.075   4.555   4.658
 3422TIP3    H210231   5.948   4.500   4.599
 3423TIP3   OH210232   1.581   0.306   2.548
 3423TIP3    H110233   1.526   0.272   2.618
 3423TIP3    H210234   1.592   0.399   2.569
 3424TIP3   OH210235   6.947   4.375   1.292
 3424TIP3    H110236   6.894   4.295   1.284
 3424TIP3    H210237   6.937   4.418   1.207
 3425TIP3   OH210238   3.228   2.439   4.048
 3425TIP3    H110239   3.295   2.443   4.117
 3425TIP3    H210240   3.147   2.465   4.092
 3426TIP3   OH210241   3.864   1.514   4.254
 3426TIP3    H110242   3.823   1.600   4.261
 3426TIP3    H210243   3.879   1.487   4.344
 3427TIP3   OH210244   4.743   5.962   2.997
 3427TIP3    H110245   4.721   5.888   2.940
 3427TIP3    H210246   4.793   5.922   3.069
 3428TIP3   OH210247   4.401   5.267   4.159
 3428TIP3    H110248   4.456   5.197   4.125
 3428TIP3    H210249   4.332   5.222   4.209
 3429TIP3   OH210250   5.366   4.996   0.818
 3429TIP3    H110251   5.431   5.007   0.887
 3429TIP3    H210252   5.322   4.914   0.839
 3430TIP3   OH210253   2.431   6.177   1.784
 3430TIP3    H110254   2.351   6.229   1.786
 3430TIP3    H210255   2.487   6.220   1.720
 3431TIP3   OH210256   3.268   3.527   0.659
 3431TIP3    H110257   3.308   3.458   0.712
 3431TIP3    H210258   3.225   3.585   0.722
 3432TIP3   OH210259   2.639   2.377   3.689
 3432TIP3    H110260   2.694   2.339   3.620
 3432TIP3    H210261   2.640   2.471   3.671
 3433TIP3   OH210262   0.563   4.084   5.385
 3433TIP3    H110263   0.548   3.991   5.401
 3433TIP3    H210264   0.605   4.116   5.465
 3434TIP3   OH210265   5.905   0.312   3.371
 3434TIP3    H110266   5.888   0.398   3.331
 3434TIP3    H210267   5.822   0.265   3.360
 3435TIP3   OH210268   6.848   1.951   5.804
 3435TIP3    H110269   6.908   1.878   5.815
 3435TIP3    H210270   6.787   1.943   5.877
 3436TIP3   OH210271   4.830   5.226   2.038
 3436TIP3    H110272   4.812   5.294   2.103
 3436TIP3    H210273   4.812   5.143   2.083
 3437TIP3   OH210274   4.638   6.257   4.437
 3437TIP3    H110275   4.666   6.176   4.396
 3437TIP3    H210276   4.553   6.276   4.398
 3438TIP3   OH210277   6.958   0.219   3.774
 3438TIP3    H110278   6.871   0.184   3.795
 3438TIP3    H210279   6.941   0.284   3.706
 3439TIP3   OH210280   2.496   1.187   3.329
 3439TIP3    H110281   2.486   1.149   3.416
 3439TIP3    H210282   2.408   1.187   3.292
 3440TIP3   OH210283   4.804   0.407   4.194
 3440TIP3    H110284   4.835   0.383   4.106
 3440TIP3    H210285   4.883   0.412   4.247
 3441TIP3   OH210286   6.686   4.982   0.315
 3441TIP3    H110287   6.734   5.019   0.240
 3441TIP3    H210288   6.597   4.973   0.284
 3442TIP3   OH210289   4.966   6.245   1.644
 3442TIP3    H110290   4.946   6.303   1.717
 3442TIP3    H210291   5.009   6.169   1.685
 3443TIP3   OH210292   4.333   3.136   3.439
 3443TIP3    H110293   4.354   3.194   3.512
 3443TIP3    H210294   4.418   3.109   3.404
 3444TIP3   OH210295   2.175   1.590   3.739
 3444TIP3    H110296   2.254   1.602   3.685
 3444TIP3    H210297   2.110   1.647   3.699
 3445TIP3   OH210298   2.166   4.825   2.154
 3445TIP3    H110299   2.126   4.902   2.113
 3445TIP3    H210300   2.195   4.856   2.240
 3446TIP3   OH210301   3.969   3.426   3.941
 3446TIP3    H110302   4.011   3.483   3.877
 3446TIP3    H210303   4.041   3.380   3.983
 3447TIP3   OH210304   0.451   6.236   0.545
 3447TIP3    H110305   0.385   6.248   0.613
 3447TIP3    H210306   0.531   6.274   0.583
 3448TIP3   OH210307   3.965   6.537   3.588
 3448TIP3    H110308   3.932   6.458   3.632
 3448TIP3    H210309   3.991   6.506   3.501
 3449TIP3   OH210310   6.085   4.298   2.157
 3449TIP3    H110311   6.013   4.247   2.122
 3449TIP3    H210312   6.162   4.242   2.148
 3450TIP3   OH210313   5.155   3.490   0.582
 3450TIP3    H110314   5.185   3.418   0.638
 3450TIP3    H210315   5.213   3.562   0.603
 3451TIP3   OH210316   2.864   6.355   1.542
 3451TIP3    H110317   2.930   6.412   1.502
 3451TIP3    H210318   2.914   6.300   1.604
 3452TIP3   OH210319   6.586   2.117   2.205
 3452TIP3    H110320   6.666   2.159   2.237
 3452TIP3    H210321   6.587   2.133   2.111
 3453TIP3   OH210322   6.698   0.798   0.503
 3453TIP3    H110323   6.668   0.857   0.434
 3453TIP3    H210324   6.665   0.837   0.584
 3454TIP3   OH210325   6.835   1.952   3.372
 3454TIP3    H110326   6.792   1.921   3.293
 3454TIP3    H210327   6.898   2.017   3.342
 3455TIP3   OH210328   5.191   3.554   2.894
 3455TIP3    H110329   5.199   3.641   2.932
 3455TIP3    H210330   5.124   3.563   2.825
 3456TIP3   OH210331   5.630   3.508   3.836
 3456TIP3    H110332   5.680   3.587   3.857
 3456TIP3    H210333   5.551   3.540   3.794
 3457TIP3   OH210334   3.359   5.641   4.616
 3457TIP3    H110335   3.339   5.674   4.704
 3457TIP3    H210336   3.306   5.695   4.558
 3458TIP3   OH210337   6.386   3.449   2.025
 3458TIP3    H110338   6.416   3.516   1.963
 3458TIP3    H210339   6.465   3.398   2.043
 3459TIP3   OH210340   3.232   5.677   4.861
 3459TIP3    H110341   3.279   5.709   4.938
 3459TIP3    H210342   3.166   5.618   4.896
 3460TIP3   OH210343   5.702   4.788   1.613
 3460TIP3    H110344   5.621   4.794   1.562
 3460TIP3    H210345   5.768   4.759   1.549
 3461TIP3   OH210346   5.160   5.079   2.759
 3461TIP3    H110347   5.162   5.153   2.698
 3461TIP3    H210348   5.191   5.004   2.707
 3462TIP3   OH210349   2.166   1.733   0.146
 3462TIP3    H110350   2.196   1.811   0.100
 3462TIP3    H210351   2.135   1.674   0.077
 3463TIP3   OH210352   6.883   6.379   5.814
 3463TIP3    H110353   6.868   6.304   5.756
 3463TIP3    H210354   6.796   6.409   5.838
 3464TIP3   OH210355   4.458   2.742   3.255
 3464TIP3    H110356   4.503   2.708   3.333
 3464TIP3    H210357   4.510   2.818   3.229
 3465TIP3   OH210358   1.383   3.558   3.046
 3465TIP3    H110359   1.443   3.576   3.118
 3465TIP3    H210360   1.349   3.643   3.020
 3466TIP3   OH210361   0.462   6.266   5.400
 3466TIP3    H110362   0.391   6.323   5.373
 3466TIP3    H210363   0.429   6.221   5.478
 3467TIP3   OH210364   6.475   1.131   3.955
 3467TIP3    H110365   6.522   1.199   4.004
 3467TIP3    H210366   6.386   1.133   3.992
 3468TIP3   OH210367   0.480   0.457   3.797
 3468TIP3    H110368   0.496   0.551   3.787
 3468TIP3    H210369   0.384   0.449   3.793
 3469TIP3   OH210370   5.901   0.428   0.667
 3469TIP3    H110371   5.987   0.386   0.667
 3469TIP3    H210372   5.845   0.369   0.617
 3470TIP3   OH210373   0.785   5.884   4.553
 3470TIP3    H110374   0.695   5.903   4.528
 3470TIP3    H210375   0.785   5.888   4.649
 3471TIP3   OH210376   2.228   0.480   3.850
 3471TIP3    H110377   2.307   0.529   3.826
 3471TIP3    H210378   2.262   0.393   3.872
 3472TIP3   OH210379   5.745   2.236   5.484
 3472TIP3    H110380   5.764   2.324   5.454
 3472TIP3    H210381   5.831   2.196   5.497
 3473TIP3   OH210382   1.911   1.113   5.109
 3473TIP3    H110383   1.975   1.152   5.049
 3473TIP3    H210384   1.882   1.034   5.063
 3474TIP3   OH210385   7.233   1.151   1.313
 3474TIP3    H110386   7.233   1.177   1.221
 3474TIP3    H210387   7.142   1.123   1.330
 3475TIP3   OH210388   7.101   2.228   0.534
 3475TIP3    H110389   7.172   2.251   0.594
 3475TIP3    H210390   7.032   2.291   0.552
 3476TIP3   OH210391   2.789   2.711   2.359
 3476TIP3    H110392   2.712   2.659   2.378
 3476TIP3    H210393   2.755   2.789   2.315
 3477TIP3   OH210394   0.329   0.033   0.348
 3477TIP3    H110395   0.236   0.011   0.355
 3477TIP3    H210396   0.333   0.105   0.284
 3478TIP3   OH210397   1.720   2.133   2.383
 3478TIP3    H110398   1.660   2.203   2.358
 3478TIP3    H210399   1.807   2.172   2.380
 3479TIP3   OH210400   2.630   5.753   3.077
 3479TIP3    H110401   2.702   5.801   3.036
 3479TIP3    H210402   2.595   5.698   3.007
 3480TIP3   OH210403   3.472   2.431   3.615
 3480TIP3    H110404   3.535   2.503   3.611
 3480TIP3    H210405   3.413   2.447   3.541
 3481TIP3   OH210406   6.830   6.406   2.533
 3481TIP3    H110407   6.792   6.357   2.605
 3481TIP3    H210408   6.924   6.411   2.553
 3482TIP3   OH210409   5.125   5.636   3.000
 3482TIP3    H110410   5.202   5.628   2.944
 3482TIP3    H210411   5.131   5.724   3.036
 3483TIP3   OH210412   0.444   3.408   1.433
 3483TIP3    H110413   0.455   3.496   1.398
 3483TIP3    H210414   0.497   3.352   1.376
 3484TIP3   OH210415   4.118   5.141   3.863
 3484TIP3    H110416   4.112   5.231   3.896
 3484TIP3    H210417   4.029   5.118   3.839
 3485TIP3   OH210418   7.079   4.262   5.577
 3485TIP3    H110419   6.999   4.241   5.624
 3485TIP3    H210420   7.049   4.294   5.492
 3486TIP3   OH210421   7.022   3.541   2.027
 3486TIP3    H110422   7.035   3.500   1.941
 3486TIP3    H210423   6.979   3.624   2.008
 3487TIP3   OH210424   1.449   0.758   0.216
 3487TIP3    H110425   1.418   0.837   0.259
 3487TIP3    H210426   1.421   0.687   0.273
 3488TIP3   OH210427   0.348   3.969   2.104
 3488TIP3    H110428   0.284   3.990   2.036
 3488TIP3    H210429   0.364   4.052   2.149
 3489TIP3   OH210430   6.342   6.080   5.834
 3489TIP3    H110431   6.313   6.050   5.748
 3489TIP3    H210432   6.409   6.018   5.860
 3490TIP3   OH210433   5.463   4.421   5.053
 3490TIP3    H110434   5.432   4.381   5.134
 3490TIP3    H210435   5.533   4.364   5.023
 3491TIP3   OH210436   5.189   5.691   1.411
 3491TIP3    H110437   5.272   5.656   1.377
 3491TIP3    H210438   5.215   5.768   1.463
 3492TIP3   OH210439   6.073   1.170   0.617
 3492TIP3    H110440   6.164   1.201   0.618
 3492TIP3    H210441   6.070   1.106   0.546
 3493TIP3   OH210442   4.745   6.609   3.742
 3493TIP3    H110443   4.695   6.654   3.674
 3493TIP3    H210444   4.679   6.582   3.805
 3494TIP3   OH210445   3.079   6.431   0.980
 3494TIP3    H110446   3.053   6.478   0.901
 3494TIP3    H210447   2.998   6.423   1.031
 3495TIP3   OH210448   4.426   2.147   2.752
 3495TIP3    H110449   4.479   2.126   2.675
 3495TIP3    H210450   4.336   2.142   2.721
 3496TIP3   OH210451   4.969   0.918   2.940
 3496TIP3    H110452   5.023   0.984   2.982
 3496TIP3    H210453   4.886   0.962   2.922
 3497TIP3   OH210454   6.628   0.392   1.112
 3497TIP3    H110455   6.542   0.431   1.094
 3497TIP3    H210456   6.646   0.415   1.203
 3498TIP3   OH210457   0.615   5.867   3.963
 3498TIP3    H110458   0.573   5.868   3.877
 3498TIP3    H210459   0.709   5.868   3.944
 3499TIP3   OH210460   5.373   4.860   0.462
 3499TIP3    H110461   5.355   4.903   0.378
 3499TIP3    H210462   5.380   4.767   0.441
 3500TIP3   OH210463   5.307   5.701   3.551
 3500TIP3    H110464   5.369   5.773   3.545
 3500TIP3    H210465   5.361   5.622   3.539
 3501TIP3   OH210466   4.284   4.096   2.438
 3501TIP3    H110467   4.267   4.083   2.531
 3501TIP3    H210468   4.227   4.169   2.413
 3502TIP3   OH210469   0.654   0.348   2.931
 3502TIP3    H110470   0.615   0.371   3.015
 3502TIP3    H210471   0.683   0.432   2.895
 3503TIP3   OH210472   4.159   4.294   3.452
 3503TIP3    H110473   4.225   4.228   3.474
 3503TIP3    H210474   4.080   4.266   3.497
 3504TIP3   OH210475   2.367   1.618   1.956
 3504TIP3    H110476   2.461   1.634   1.966
 3504TIP3    H210477   2.336   1.691   1.904
 3505TIP3   OH210478   6.089   2.520   0.172
 3505TIP3    H110479   6.149   2.491   0.103
 3505TIP3    H210480   6.144   2.570   0.233
 3506TIP3   OH210481   6.421   4.951   0.205
 3506TIP3    H110482   6.336   4.938   0.164
 3506TIP3    H210483   6.409   5.029   0.260
 3507TIP3   OH210484   0.177   4.702   0.555
 3507TIP3    H110485   0.128   4.638   0.607
 3507TIP3    H210486   0.238   4.649   0.503
 3508TIP3   OH210487   0.692   1.334   4.889
 3508TIP3    H110488   0.675   1.425   4.911
 3508TIP3    H210489   0.748   1.302   4.960
 3509TIP3   OH210490   7.177   1.560   4.062
 3509TIP3    H110491   7.220   1.475   4.057
 3509TIP3    H210492   7.195   1.601   3.977
 3510TIP3   OH210493   4.321   5.128   4.775
 3510TIP3    H110494   4.288   5.211   4.742
 3510TIP3    H210495   4.399   5.111   4.722
 3511TIP3   OH210496   6.706   5.475   0.228
 3511TIP3    H110497   6.730   5.400   0.281
 3511TIP3    H210498   6.675   5.438   0.145
 3512TIP3   OH210499   6.968   4.832   2.142
 3512TIP3    H110500   7.030   4.903   2.128
 3512TIP3    H210501   6.984   4.771   2.070
 3513TIP3   OH210502   7.022   6.585   4.301
 3513TIP3    H110503   7.051   6.502   4.264
 3513TIP3    H210504   7.025   6.572   4.396
 3514TIP3   OH210505   1.224   1.913   4.643
 3514TIP3    H110506   1.154   1.931   4.581
 3514TIP3    H210507   1.304   1.937   4.596
 3515TIP3   OH210508   5.089   0.429   3.549
 3515TIP3    H110509   5.135   0.358   3.505
 3515TIP3    H210510   5.038   0.471   3.480
 3516TIP3   OH210511   3.633   0.931   0.398
 3516TIP3    H110512   3.539   0.945   0.404
 3516TIP3    H210513   3.665   0.949   0.486
 3517TIP3   OH210514   6.976   1.808   1.304
 3517TIP3    H110515   6.886   1.803   1.336
 3517TIP3    H210516   6.977   1.883   1.245
 3518TIP3   OH210517   1.692   2.632   0.447
 3518TIP3    H110518   1.777   2.625   0.490
 3518TIP3    H210519   1.696   2.714   0.398
 3519TIP3   OH210520   2.599   4.427   5.338
 3519TIP3    H110521   2.589   4.345   5.386
 3519TIP3    H210522   2.694   4.443   5.339
 3520TIP3   OH210523   3.125   6.017   3.441
 3520TIP3    H110524   3.134   5.924   3.422
 3520TIP3    H210525   3.160   6.061   3.363
 3521TIP3   OH210526   1.523   2.780   5.449
 3521TIP3    H110527   1.483   2.760   5.534
 3521TIP3    H210528   1.449   2.796   5.390
 3522TIP3   OH210529   3.352   5.252   3.798
 3522TIP3    H110530   3.277   5.201   3.769
 3522TIP3    H210531   3.386   5.205   3.874
 3523TIP3   OH210532   6.381   3.036   1.746
 3523TIP3    H110533   6.408   3.055   1.656
 3523TIP3    H210534   6.316   3.103   1.766
 3524TIP3   OH210535   6.182   2.592   3.100
 3524TIP3    H110536   6.245   2.595   3.028
 3524TIP3    H210537   6.222   2.534   3.165
 3525TIP3   OH210538   6.905   4.728   5.227
 3525TIP3    H110539   6.878   4.638   5.240
 3525TIP3    H210540   6.864   4.754   5.144
 3526TIP3   OH210541   6.208   3.263   3.903
 3526TIP3    H110542   6.207   3.313   3.984
 3526TIP3    H210543   6.165   3.319   3.839
 3527TIP3   OH210544   2.334   0.475   4.488
 3527TIP3    H110545   2.359   0.532   4.561
 3527TIP3    H210546   2.279   0.529   4.432
 3528TIP3   OH210547   1.029   2.981   4.749
 3528TIP3    H110548   0.983   3.065   4.741
 3528TIP3    H210549   1.121   3.004   4.756
 3529TIP3   OH210550   4.830   0.802   2.460
 3529TIP3    H110551   4.912   0.808   2.509
 3529TIP3    H210552   4.857   0.780   2.371
 3530TIP3   OH210553   2.378   5.821   5.786
 3530TIP3    H110554   2.408   5.897   5.736
 3530TIP3    H210555   2.354   5.756   5.719
 3531TIP3   OH210556   4.637   4.222   2.202
 3531TIP3    H110557   4.638   4.139   2.250
 3531TIP3    H210558   4.707   4.274   2.242
 3532TIP3   OH210559   2.513   6.121   5.500
 3532TIP3    H110560   2.424   6.156   5.490
 3532TIP3    H210561   2.552   6.172   5.571
 3533TIP3   OH210562   5.339   5.511   5.433
 3533TIP3    H110563   5.292   5.455   5.494
 3533TIP3    H210564   5.283   5.587   5.422
 3534TIP3   OH210565   2.488   1.037   0.166
 3534TIP3    H110566   2.581   1.054   0.183
 3534TIP3    H210567   2.442   1.106   0.213
 3535TIP3   OH210568   0.707   6.325   1.998
 3535TIP3    H110569   0.760   6.324   2.078
 3535TIP3    H210570   0.770   6.327   1.927
 3536TIP3   OH210571   6.356   0.524   1.111
 3536TIP3    H110572   6.363   0.612   1.147
 3536TIP3    H210573   6.266   0.497   1.132
 3537TIP3   OH210574   2.572   4.673   3.622
 3537TIP3    H110575   2.622   4.674   3.540
 3537TIP3    H210576   2.549   4.581   3.635
 3538TIP3   OH210577   4.979   5.183   3.580
 3538TIP3    H110578   4.918   5.177   3.506
 3538TIP3    H210579   4.927   5.216   3.652
 3539TIP3   OH210580   7.105   1.494   5.758
 3539TIP3    H110581   7.056   1.571   5.784
 3539TIP3    H210582   7.065   1.422   5.808
 3540TIP3   OH210583   0.469   6.658   5.411
 3540TIP3    H110584   0.548   6.627   5.455
 3540TIP3    H210585   0.491   6.658   5.318
 3541TIP3   OH210586   0.751   2.634   0.963
 3541TIP3    H110587   0.828   2.691   0.956
 3541TIP3    H210588   0.722   2.644   1.054
 3542TIP3   OH210589   6.134   1.634   4.668
 3542TIP3    H110590   6.040   1.636   4.653
 3542TIP3    H210591   6.146   1.564   4.733
 3543TIP3   OH210592   7.203   5.991   4.877
 3543TIP3    H110593   7.256   5.957   4.805
 3543TIP3    H210594   7.113   5.986   4.846
 3544TIP3   OH210595   5.166   2.332   4.019
 3544TIP3    H110596   5.087   2.378   3.988
 3544TIP3    H210597   5.222   2.326   3.941
 3545TIP3   OH210598   2.834   4.603   4.115
 3545TIP3    H110599   2.789   4.685   4.137
 3545TIP3    H210600   2.825   4.549   4.193
 3546TIP3   OH210601   4.726   2.723   0.311
 3546TIP3    H110602   4.696   2.813   0.297
 3546TIP3    H210603   4.674   2.671   0.250
 3547TIP3   OH210604   5.156   4.278   0.310
 3547TIP3    H110605   5.154   4.187   0.339
 3547TIP3    H210606   5.200   4.275   0.225
 3548TIP3   OH210607   2.737   0.370   2.477
 3548TIP3    H110608   2.784   0.309   2.420
 3548TIP3    H210609   2.739   0.328   2.563
 3549TIP3   OH210610   4.597   3.180   4.214
 3549TIP3    H110611   4.618   3.093   4.249
 3549TIP3    H210612   4.550   3.162   4.132
 3550TIP3   OH210613   7.038   0.781   2.180
 3550TIP3    H110614   7.115   0.810   2.131
 3550TIP3    H210615   6.973   0.850   2.165
 3551TIP3   OH210616   3.854   1.426   4.891
 3551TIP3    H110617   3.930   1.395   4.940
 3551TIP3    H210618   3.884   1.432   4.800
 3552TIP3   OH210619   4.172   0.737   3.872
 3552TIP3    H110620   4.213   0.655   3.846
 3552TIP3    H210621   4.091   0.742   3.821
 3553TIP3   OH210622   3.395   1.798   5.582
 3553TIP3    H110623   3.400   1.713   5.540
 3553TIP3    H210624   3.433   1.859   5.519
 3554TIP3   OH210625   0.405   1.962   4.374
 3554TIP3    H110626   0.355   1.915   4.441
 3554TIP3    H210627   0.342   1.976   4.303
 3555TIP3   OH210628   7.172   1.299   4.636
 3555TIP3    H110629   7.192   1.252   4.555
 3555TIP3    H210630   7.257   1.331   4.666
 3556TIP3   OH210631   2.756   2.913   4.010
 3556TIP3    H110632   2.718   2.840   4.057
 3556TIP3    H210633   2.691   2.936   3.943
 3557TIP3   OH210634   4.665   0.177   2.774
 3557TIP3    H110635   4.685   0.251   2.831
 3557TIP3    H210636   4.577   0.196   2.741
 3558TIP3   OH210637   0.713   4.702   0.168
 3558TIP3    H110638   0.654   4.771   0.137
 3558TIP3    H210639   0.698   4.629   0.108
 3559TIP3   OH210640   3.702   3.137   2.070
 3559TIP3    H110641   3.763   3.208   2.051
 3559TIP3    H210642   3.745   3.059   2.035
 3560TIP3   OH210643   1.047   6.578   0.076
 3560TIP3    H110644   1.076   6.499   0.030
 3560TIP3    H210645   0.985   6.546   0.142
 3561TIP3   OH210646   3.978   2.990   3.318
 3561TIP3    H110647   3.912   3.059   3.322
 3561TIP3    H210648   4.006   2.979   3.409
 3562TIP3   OH210649   6.388   0.805   3.249
 3562TIP3    H110650   6.428   0.855   3.177
 3562TIP3    H210651   6.405   0.713   3.226
 3563TIP3   OH210652   6.197   3.077   2.259
 3563TIP3    H110653   6.124   3.094   2.319
 3563TIP3    H210654   6.155   3.042   2.180
 3564TIP3   OH210655   2.349   1.154   2.238
 3564TIP3    H110656   2.423   1.093   2.248
 3564TIP3    H210657   2.377   1.213   2.168
 3565TIP3   OH210658   5.596   5.591   5.380
 3565TIP3    H110659   5.619   5.622   5.468
 3565TIP3    H210660   5.510   5.550   5.391
 3566TIP3   OH210661   1.088   5.448   0.162
 3566TIP3    H110662   0.994   5.436   0.156
 3566TIP3    H210663   1.102   5.540   0.137
 3567TIP3   OH210664   2.729   5.217   3.193
 3567TIP3    H110665   2.668   5.162   3.243
 3567TIP3    H210666   2.784   5.258   3.260
 3568TIP3   OH210667   4.464   5.342   4.658
 3568TIP3    H110668   4.541   5.320   4.606
 3568TIP3    H210669   4.498   5.357   4.746
 3569TIP3   OH210670   2.618   4.478   3.270
 3569TIP3    H110671   2.622   4.393   3.314
 3569TIP3    H210672   2.543   4.472   3.211
 3570TIP3   OH210673   5.489   2.175   3.552
 3570TIP3    H110674   5.535   2.143   3.474
 3570TIP3    H210675   5.402   2.197   3.522
 3571TIP3   OH210676   0.963   6.571   2.726
 3571TIP3    H110677   1.003   6.658   2.717
 3571TIP3    H210678   0.995   6.540   2.811
 3572TIP3   OH210679   0.351   0.139   2.683
 3572TIP3    H110680   0.325   0.086   2.607
 3572TIP3    H210681   0.439   0.169   2.661
 3573TIP3   OH210682   5.980   3.617   3.568
 3573TIP3    H110683   5.894   3.660   3.574
 3573TIP3    H210684   5.990   3.597   3.476
 3574TIP3   OH210685   1.799   0.704   0.168
 3574TIP3    H110686   1.739   0.778   0.180
 3574TIP3    H210687   1.759   0.633   0.218
 3575TIP3   OH210688   6.902   4.393   2.759
 3575TIP3    H110689   6.843   4.469   2.756
 3575TIP3    H210690   6.925   4.385   2.852
 3576TIP3   OH210691   6.247   0.936   1.896
 3576TIP3    H110692   6.321   0.959   1.841
 3576TIP3    H210693   6.180   0.905   1.835
 3577TIP3   OH210694   2.538   4.239   0.533
 3577TIP3    H110695   2.490   4.240   0.616
 3577TIP3    H210696   2.473   4.212   0.468
 3578TIP3   OH210697   0.214   5.904   2.116
 3578TIP3    H110698   0.156   5.852   2.172
 3578TIP3    H210699   0.174   5.900   2.029
 3579TIP3   OH210700   6.004   3.396   0.942
 3579TIP3    H110701   6.003   3.481   0.986
 3579TIP3    H210702   5.913   3.382   0.915
 3580TIP3   OH210703   1.669   1.537   2.440
 3580TIP3    H110704   1.663   1.563   2.532
 3580TIP3    H210705   1.587   1.567   2.401
 3581TIP3   OH210706   5.022   3.280   3.688
 3581TIP3    H110707   4.973   3.223   3.630
 3581TIP3    H210708   5.107   3.238   3.698
 3582TIP3   OH210709   0.041   0.866   2.036
 3582TIP3    H110710   0.117   0.916   2.067
 3582TIP3    H210711   0.025   0.901   1.948
 3583TIP3   OH210712   6.690   6.619   1.951
 3583TIP3    H110713   6.782   6.637   1.973
 3583TIP3    H210714   6.672   6.535   1.994
 3584TIP3   OH210715   3.905   1.256   1.182
 3584TIP3    H110716   3.968   1.315   1.140
 3584TIP3    H210717   3.824   1.306   1.187
 3585TIP3   OH210718   6.187   4.319   0.152
 3585TIP3    H110719   6.266   4.372   0.136
 3585TIP3    H210720   6.211   4.262   0.225
 3586TIP3   OH210721   7.049   1.441   1.033
 3586TIP3    H110722   7.046   1.466   0.941
 3586TIP3    H210723   7.050   1.345   1.032
 3587TIP3   OH210724   2.567   1.811   3.510
 3587TIP3    H110725   2.619   1.740   3.546
 3587TIP3    H210726   2.569   1.879   3.577
 3588TIP3   OH210727   3.039   6.284   4.054
 3588TIP3    H110728   3.016   6.366   4.098
 3588TIP3    H210729   2.970   6.273   3.988
 3589TIP3   OH210730   2.652   1.855   0.599
 3589TIP3    H110731   2.616   1.939   0.626
 3589TIP3    H210732   2.599   1.829   0.524
 3590TIP3   OH210733   0.433   5.476   5.927
 3590TIP3    H110734   0.451   5.495   5.835
 3590TIP3    H210735   0.443   5.382   5.934
 3591TIP3   OH210736   5.989   4.721   0.888
 3591TIP3    H110737   6.069   4.709   0.835
 3591TIP3    H210738   5.945   4.637   0.886
 3592TIP3   OH210739   5.480   3.143   5.377
 3592TIP3    H110740   5.459   3.053   5.402
 3592TIP3    H210741   5.401   3.176   5.336
 3593TIP3   OH210742   6.346   1.242   0.596
 3593TIP3    H110743   6.414   1.269   0.658
 3593TIP3    H210744   6.392   1.233   0.513
 3594TIP3   OH210745   1.321   4.982   2.555
 3594TIP3    H110746   1.310   5.043   2.629
 3594TIP3    H210747   1.281   5.027   2.481
 3595TIP3   OH210748   3.105   4.901   0.752
 3595TIP3    H110749   3.161   4.933   0.681
 3595TIP3    H210750   3.117   4.965   0.822
 3596TIP3   OH210751   2.283   5.796   4.592
 3596TIP3    H110752   2.256   5.822   4.680
 3596TIP3    H210753   2.234   5.855   4.534
 3597TIP3   OH210754   3.907   3.832   5.140
 3597TIP3    H110755   3.985   3.871   5.180
 3597TIP3    H210756   3.919   3.737   5.151
 3598TIP3   OH210757   6.716   0.718   5.693
 3598TIP3    H110758   6.746   0.777   5.624
 3598TIP3    H210759   6.697   0.636   5.647
 3599TIP3   OH210760   3.432   4.048   0.923
 3599TIP3    H110761   3.365   4.076   0.986
 3599TIP3    H210762   3.507   4.105   0.941
 3600TIP3   OH210763   3.547   0.338   4.766
 3600TIP3    H110764   3.625   0.329   4.711
 3600TIP3    H210765   3.524   0.431   4.758
 3601TIP3   OH210766   6.000   4.782   1.909
 3601TIP3    H110767   5.957   4.845   1.967
 3601TIP3    H210768   5.967   4.697   1.937
 3602TIP3   OH210769   1.478   2.707   5.866
 3602TIP3    H110770   1.435   2.621   5.863
 3602TIP3    H210771   1.455   2.748   5.782
 3603TIP3   OH210772   3.875   1.559   3.676
 3603TIP3    H110773   3.821   1.614   3.618
 3603TIP3    H210774   3.961   1.600   3.673
 3604TIP3   OH210775   0.450   6.468   0.383
 3604TIP3    H110776   0.440   6.428   0.297
 3604TIP3    H210777   0.452   6.394   0.444
 3605TIP3   OH210778   0.899   0.796   2.726
 3605TIP3    H110779   0.976   0.739   2.728
 3605TIP3    H210780   0.931   0.879   2.762
 3606TIP3   OH210781   1.941   6.221   3.523
 3606TIP3    H110782   2.024   6.190   3.558
 3606TIP3    H210783   1.964   6.297   3.470
 3607TIP3   OH210784   3.894   4.547   0.380
 3607TIP3    H110785   3.859   4.464   0.347
 3607TIP3    H210786   3.818   4.591   0.419
 3608TIP3   OH210787   1.192   3.895   1.077
 3608TIP3    H110788   1.148   3.882   0.993
 3608TIP3    H210789   1.241   3.977   1.065
 3609TIP3   OH210790   0.200   0.710   3.982
 3609TIP3    H110791   0.147   0.766   4.038
 3609TIP3    H210792   0.160   0.719   3.895
 3610TIP3   OH210793   4.664   4.761   1.155
 3610TIP3    H110794   4.756   4.733   1.149
 3610TIP3    H210795   4.668   4.855   1.171
 3611TIP3   OH210796   4.039   0.110   1.998
 3611TIP3    H110797   4.083   0.037   2.042
 3611TIP3    H210798   4.110   0.163   1.963
 3612TIP3   OH210799   4.074   0.173   0.546
 3612TIP3    H110800   4.158   0.219   0.559
 3612TIP3    H210801   4.048   0.197   0.457
 3613TIP3   OH210802   1.288   2.187   5.879
 3613TIP3    H110803   1.240   2.119   5.926
 3613TIP3    H210804   1.303   2.149   5.792
 3614TIP3   OH210805   3.253   0.725   5.579
 3614TIP3    H110806   3.170   0.746   5.622
 3614TIP3    H210807   3.227   0.677   5.500
 3615TIP3   OH210808   3.144   3.128   0.100
 3615TIP3    H110809   3.083   3.159   0.032
 3615TIP3    H210810   3.095   3.059   0.146
 3616TIP3   OH210811   0.749   0.585   4.007
 3616TIP3    H110812   0.827   0.627   4.043
 3616TIP3    H210813   0.759   0.595   3.912
 3617TIP3   OH210814   6.950   2.259   3.412
 3617TIP3    H110815   6.969   2.224   3.325
 3617TIP3    H210816   6.860   2.292   3.406
 3618TIP3   OH210817   1.266   6.088   2.569
 3618TIP3    H110818   1.235   6.113   2.483
 3618TIP3    H210819   1.346   6.139   2.582
 3619TIP3   OH210820   6.764   2.823   1.436
 3619TIP3    H110821   6.858   2.833   1.445
 3619TIP3    H210822   6.749   2.729   1.441
 3620TIP3   OH210823   5.484   5.583   0.171
 3620TIP3    H110824   5.448   5.655   0.224
 3620TIP3    H210825   5.409   5.526   0.154
 3621TIP3   OH210826   2.159   5.478   2.245
 3621TIP3    H110827   2.075   5.521   2.231
 3621TIP3    H210828   2.142   5.386   2.224
 3622TIP3   OH210829   5.648   1.776   1.066
 3622TIP3    H110830   5.565   1.730   1.078
 3622TIP3    H210831   5.676   1.798   1.155
 3623TIP3   OH210832   5.374   3.541   5.773
 3623TIP3    H110833   5.344   3.505   5.856
 3623TIP3    H210834   5.294   3.551   5.721
 3624TIP3   OH210835   5.598   6.076   1.449
 3624TIP3    H110836   5.514   6.121   1.442
 3624TIP3    H210837   5.632   6.076   1.360
 3625TIP3   OH210838   5.071   4.956   5.266
 3625TIP3    H110839   5.012   4.882   5.248
 3625TIP3    H210840   5.158   4.915   5.273
 3626TIP3   OH210841   2.101   5.908   3.713
 3626TIP3    H110842   2.013   5.897   3.676
 3626TIP3    H210843   2.096   5.990   3.761
 3627TIP3   OH210844   3.460   1.243   4.795
 3627TIP3    H110845   3.541   1.206   4.761
 3627TIP3    H210846   3.443   1.193   4.875
 3628TIP3   OH210847   2.461   6.624   5.730
 3628TIP3    H110848   2.518   6.698   5.747
 3628TIP3    H210849   2.489   6.557   5.792
 3629TIP3   OH210850   6.744   4.149   2.768
 3629TIP3    H110851   6.796   4.228   2.755
 3629TIP3    H210852   6.739   4.108   2.682
 3630TIP3   OH210853   2.354   1.118   5.839
 3630TIP3    H110854   2.390   1.040   5.796
 3630TIP3    H210855   2.371   1.104   5.932
 3631TIP3   OH210856   2.054   0.141   1.560
 3631TIP3    H110857   1.997   0.214   1.583
 3631TIP3    H210858   2.133   0.155   1.613
 3632TIP3   OH210859   5.343   6.718   3.743
 3632TIP3    H110860   5.307   6.764   3.819
 3632TIP3    H210861   5.269   6.710   3.683
 3633TIP3   OH210862   3.550   4.762   3.261
 3633TIP3    H110863   3.589   4.716   3.187
 3633TIP3    H210864   3.480   4.814   3.222
 3634TIP3   OH210865   1.357   2.630   0.078
 3634TIP3    H110866   1.372   2.724   0.070
 3634TIP3    H210867   1.375   2.596  -0.009
 3635TIP3   OH210868   0.351   2.528   2.703
 3635TIP3    H110869   0.370   2.490   2.617
 3635TIP3    H210870   0.316   2.615   2.683
 3636TIP3   OH210871   7.116   5.797   5.532
 3636TIP3    H110872   7.071   5.866   5.484
 3636TIP3    H210873   7.152   5.739   5.465
 3637TIP3   OH210874   2.000   3.868   5.181
 3637TIP3    H110875   2.006   3.868   5.086
 3637TIP3    H210876   1.919   3.821   5.201
 3638TIP3   OH210877   0.194   0.259   4.968
 3638TIP3    H110878   0.250   0.306   5.030
 3638TIP3    H210879   0.141   0.201   5.023
 3639TIP3   OH210880   5.972   4.361   2.518
 3639TIP3    H110881   6.057   4.380   2.480
 3639TIP3    H210882   5.917   4.338   2.443
 3640TIP3   OH210883   6.309   1.983   1.763
 3640TIP3    H110884   6.252   1.907   1.770
 3640TIP3    H210885   6.250   2.055   1.740
 3641TIP3   OH210886   5.954   1.483   5.585
 3641TIP3    H110887   6.044   1.513   5.573
 3641TIP3    H210888   5.934   1.500   5.677
 3642TIP3   OH210889   1.798   1.668   2.973
 3642TIP3    H110890   1.822   1.677   2.881
 3642TIP3    H210891   1.856   1.729   3.019
 3643TIP3   OH210892   6.056   3.065   0.892
 3643TIP3    H110893   6.106   3.043   0.814
 3643TIP3    H210894   6.001   3.139   0.866
 3644TIP3   OH210895   4.083   1.486   2.207
 3644TIP3    H110896   4.175   1.461   2.199
 3644TIP3    H210897   4.081   1.545   2.283
 3645TIP3   OH210898   2.676   4.334   2.823
 3645TIP3    H110899   2.699   4.424   2.799
 3645TIP3    H210900   2.589   4.341   2.861
 3646TIP3   OH210901   3.453   2.816   0.923
 3646TIP3    H110902   3.358   2.827   0.919
 3646TIP3    H210903   3.487   2.905   0.912
 3647TIP3   OH210904   0.083   4.755   1.080
 3647TIP3    H110905   0.150   4.733   1.015
 3647TIP3    H210906   0.105   4.702   1.156
 3648TIP3   OH210907   4.276   6.190   2.178
 3648TIP3    H110908   4.358   6.215   2.135
 3648TIP3    H210909   4.293   6.101   2.210
 3649TIP3   OH210910   2.059   6.287   4.379
 3649TIP3    H110911   2.151   6.262   4.369
 3649TIP3    H210912   2.036   6.326   4.295
 3650TIP3   OH210913   2.853   6.774   5.768
 3650TIP3    H110914   2.864   6.791   5.674
 3650TIP3    H210915   2.761   6.796   5.786
 3651TIP3   OH210916   3.641   3.780   2.066
 3651TIP3    H110917   3.584   3.803   1.992
 3651TIP3    H210918   3.716   3.839   2.058
 3652TIP3   OH210919   2.024   2.026   1.750
 3652TIP3    H110920   2.007   2.117   1.774
 3652TIP3    H210921   2.036   2.029   1.655
 3653TIP3   OH210922   4.491   0.530   5.241
 3653TIP3    H110923   4.529   0.460   5.188
 3653TIP3    H210924   4.561   0.595   5.249
 3654TIP3   OH210925   6.180   2.447   5.399
 3654TIP3    H110926   6.234   2.387   5.347
 3654TIP3    H210927   6.238   2.474   5.471
 3655TIP3   OH210928   4.244   5.526   3.753
 3655TIP3    H110929   4.256   5.525   3.848
 3655TIP3    H210930   4.329   5.498   3.717
 3656TIP3   OH210931   4.108   5.986   0.083
 3656TIP3    H110932   4.055   5.923   0.132
 3656TIP3    H210933   4.050   6.016   0.013
 3657TIP3   OH210934   0.471   0.637   5.025
 3657TIP3    H110935   0.450   0.637   4.931
 3657TIP3    H210936   0.566   0.625   5.027
 3658TIP3   OH210937   2.404   2.482   2.679
 3658TIP3    H110938   2.425   2.472   2.772
 3658TIP3    H210939   2.475   2.535   2.643
 3659TIP3   OH210940   7.022   6.449   2.031
 3659TIP3    H110941   6.986   6.368   2.067
 3659TIP3    H210942   7.094   6.471   2.090
 3660TIP3   OH210943   6.980   0.002   1.575
 3660TIP3    H110944   6.949   0.030   1.489
 3660TIP3    H210945   7.042   0.070   1.602
 3661TIP3   OH210946   6.334   4.653   0.110
 3661TIP3    H110947   6.291   4.719   0.056
 3661TIP3    H210948   6.302   4.669   0.199
 3662TIP3   OH210949   4.852   3.957   1.750
 3662TIP3    H110950   4.770   3.952   1.700
 3662TIP3    H210951   4.825   3.973   1.840
 3663TIP3   OH210952   0.359   6.745   2.897
 3663TIP3    H110953   0.306   6.773   2.971
 3663TIP3    H210954   0.356   6.649   2.900
 3664TIP3   OH210955   1.849   0.974   4.601
 3664TIP3    H110956   1.805   1.002   4.521
 3664TIP3    H210957   1.942   0.974   4.578
 3665TIP3   OH210958   0.492   0.089   1.788
 3665TIP3    H110959   0.483   0.017   1.726
 3665TIP3    H210960   0.547   0.153   1.743
 3666TIP3   OH210961   1.583   6.505   5.832
 3666TIP3    H110962   1.585   6.567   5.906
 3666TIP3    H210963   1.502   6.456   5.845
 3667TIP3   OH210964   3.809   4.248   5.650
 3667TIP3    H110965   3.747   4.291   5.708
 3667TIP3    H210966   3.859   4.189   5.707
 3668TIP3   OH210967   5.204   1.029   1.918
 3668TIP3    H110968   5.215   0.937   1.894
 3668TIP3    H210969   5.289   1.068   1.900
 3669TIP3   OH210970   3.871   5.165   1.344
 3669TIP3    H110971   3.927   5.092   1.369
 3669TIP3    H210972   3.782   5.132   1.353
 3670TIP3   OH210973   4.622   1.361   3.160
 3670TIP3    H110974   4.713   1.343   3.184
 3670TIP3    H210975   4.622   1.453   3.134
 3671TIP3   OH210976   2.649   3.859   2.412
 3671TIP3    H110977   2.645   3.908   2.495
 3671TIP3    H210978   2.621   3.923   2.346
 3672TIP3   OH210979   1.395   1.726   4.033
 3672TIP3    H110980   1.326   1.706   3.969
 3672TIP3    H210981   1.476   1.701   3.989
 3673TIP3   OH210982   6.011   0.384   1.404
 3673TIP3    H110983   5.951   0.402   1.476
 3673TIP3    H210984   6.097   0.379   1.445
 3674TIP3   OH210985   6.010   2.193   5.624
 3674TIP3    H110986   6.021   2.143   5.544
 3674TIP3    H210987   6.046   2.137   5.693
 3675TIP3   OH210988   6.801   3.614  -0.023
 3675TIP3    H110989   6.785   3.699  -0.064
 3675TIP3    H210990   6.897   3.605  -0.023
 3676TIP3   OH210991   4.346   3.996   2.757
 3676TIP3    H110992   4.431   4.011   2.799
 3676TIP3    H210993   4.313   3.916   2.799
 3677TIP3   OH210994   6.149   1.470   4.904
 3677TIP3    H110995   6.120   1.550   4.948
 3677TIP3    H210996   6.080   1.406   4.922
 3678TIP3   OH210997   6.397   5.194   0.346
 3678TIP3    H110998   6.340   5.263   0.311
 3678TIP3    H210999   6.438   5.235   0.422
 3679TIP3   OH211000   1.237   2.851   5.211
 3679TIP3    H111001   1.243   2.912   5.285
 3679TIP3    H211002   1.257   2.905   5.135
 3680TIP3   OH211003   3.079   5.839   3.037
 3680TIP3    H111004   3.146   5.907   3.031
 3680TIP3    H211005   2.999   5.885   3.062
 3681TIP3   OH211006   4.832   4.659   5.085
 3681TIP3    H111007   4.821   4.754   5.077
 3681TIP3    H211008   4.919   4.649   5.124
 3682TIP3   OH211009   1.019   2.903   5.484
 3682TIP3    H111010   1.037   2.813   5.513
 3682TIP3    H211011   1.105   2.943   5.477
 3683TIP3   OH211012   3.531   1.790   1.170
 3683TIP3    H111013   3.602   1.729   1.153
 3683TIP3    H211014   3.451   1.739   1.157
 3684TIP3   OH211015   0.220   6.794   0.452
 3684TIP3    H111016   0.183   6.842   0.378
 3684TIP3    H211017   0.208   6.702   0.429
 3685TIP3   OH211018   3.593   2.950   4.376
 3685TIP3    H111019   3.585   2.860   4.345
 3685TIP3    H211020   3.669   2.984   4.329
 3686TIP3   OH211021   2.395   3.877   0.927
 3686TIP3    H111022   2.402   3.799   0.981
 3686TIP3    H211023   2.362   3.944   0.985
 3687TIP3   OH211024   4.748   6.650   2.074
 3687TIP3    H111025   4.792   6.575   2.114
 3687TIP3    H211026   4.689   6.612   2.009
 3688TIP3   OH211027   5.542   1.206   1.313
 3688TIP3    H111028   5.463   1.259   1.326
 3688TIP3    H211029   5.601   1.262   1.263
 3689TIP3   OH211030   4.106   2.123   3.783
 3689TIP3    H111031   4.072   2.142   3.871
 3689TIP3    H211032   4.039   2.069   3.742
 3690TIP3   OH211033   1.093   4.949   4.573
 3690TIP3    H111034   1.010   4.928   4.616
 3690TIP3    H211035   1.151   4.975   4.645
 3691TIP3   OH211036   3.357   5.181   2.610
 3691TIP3    H111037   3.266   5.152   2.605
 3691TIP3    H211038   3.393   5.161   2.524
 3692TIP3   OH211039   0.083   2.593   1.988
 3692TIP3    H111040   0.041   2.664   1.940
 3692TIP3    H211041   0.112   2.632   2.070
 3693TIP3   OH211042   4.045   2.064   5.570
 3693TIP3    H111043   4.036   2.134   5.505
 3693TIP3    H211044   4.018   2.105   5.652
 3694TIP3   OH211045   4.943   3.742   2.019
 3694TIP3    H111046   4.943   3.838   2.015
 3694TIP3    H211047   4.884   3.716   1.948
 3695TIP3   OH211048   4.412   5.189   5.031
 3695TIP3    H111049   4.503   5.206   5.052
 3695TIP3    H211050   4.406   5.202   4.936
 3696TIP3   OH211051   3.777   1.554   3.948
 3696TIP3    H111052   3.800   1.579   3.858
 3696TIP3    H211053   3.861   1.550   3.994
 3697TIP3   OH211054   2.779   5.842   2.810
 3697TIP3    H111055   2.815   5.753   2.809
 3697TIP3    H211056   2.807   5.880   2.726
 3698TIP3   OH211057   4.838   1.070   4.466
 3698TIP3    H111058   4.900   1.138   4.440
 3698TIP3    H211059   4.894   0.995   4.489
 3699TIP3   OH211060   5.910   5.550   1.015
 3699TIP3    H111061   5.886   5.463   1.046
 3699TIP3    H211062   5.833   5.604   1.032
 3700TIP3   OH211063   2.468   4.939   4.494
 3700TIP3    H111064   2.517   4.905   4.569
 3700TIP3    H211065   2.441   4.861   4.445
 3701TIP3   OH211066   2.643   3.642   4.918
 3701TIP3    H111067   2.649   3.546   4.924
 3701TIP3    H211068   2.590   3.667   4.993
 3702TIP3   OH211069   1.122   6.172   3.645
 3702TIP3    H111070   1.070   6.092   3.654
 3702TIP3    H211071   1.125   6.208   3.734
 3703TIP3   OH211072   0.911   3.435   3.785
 3703TIP3    H111073   0.846   3.504   3.799
 3703TIP3    H211074   0.930   3.403   3.873
 3704TIP3   OH211075   2.098   0.914   4.143
 3704TIP3    H111076   2.073   0.839   4.089
 3704TIP3    H211077   2.130   0.875   4.225
 3705TIP3   OH211078   0.663   1.218   3.403
 3705TIP3    H111079   0.718   1.295   3.417
 3705TIP3    H211080   0.725   1.145   3.399
 3706TIP3   OH211081   1.491   5.135   3.673
 3706TIP3    H111082   1.555   5.193   3.714
 3706TIP3    H211083   1.438   5.102   3.745
 3707TIP3   OH211084   1.980   6.060   5.486
 3707TIP3    H111085   2.062   6.095   5.452
 3707TIP3    H211086   2.005   6.015   5.567
 3708TIP3   OH211087   2.469   2.068   5.154
 3708TIP3    H111088   2.384   2.113   5.161
 3708TIP3    H211089   2.520   2.101   5.228
 3709TIP3   OH211090   2.421   0.947   0.587
 3709TIP3    H111091   2.505   0.901   0.592
 3709TIP3    H211092   2.388   0.927   0.499
 3710TIP3   OH211093   4.693   2.612   1.280
 3710TIP3    H111094   4.726   2.697   1.251
 3710TIP3    H211095   4.715   2.552   1.209
 3711TIP3   OH211096   5.409   2.789   1.780
 3711TIP3    H111097   5.430   2.772   1.688
 3711TIP3    H211098   5.487   2.832   1.815
 3712TIP3   OH211099   6.083   6.773   5.222
 3712TIP3    H111100   6.154   6.733   5.272
 3712TIP3    H211101   6.003   6.740   5.264
 3713TIP3   OH211102   3.399   4.746   1.836
 3713TIP3    H111103   3.477   4.800   1.829
 3713TIP3    H211104   3.387   4.734   1.930
 3714TIP3   OH211105   2.680   4.200   0.876
 3714TIP3    H111106   2.676   4.234   0.965
 3714TIP3    H211107   2.588   4.187   0.851
 3715TIP3   OH211108   6.854   4.683   0.370
 3715TIP3    H111109   6.776   4.709   0.321
 3715TIP3    H211110   6.833   4.704   0.461
 3716TIP3   OH211111   2.519   3.620   4.465
 3716TIP3    H111112   2.543   3.531   4.491
 3716TIP3    H211113   2.593   3.651   4.413
 3717TIP3   OH211114   2.378   1.995   3.416
 3717TIP3    H111115   2.414   1.907   3.430
 3717TIP3    H211116   2.376   2.034   3.504
 3718TIP3   OH211117   4.382   2.291   1.891
 3718TIP3    H111118   4.375   2.348   1.968
 3718TIP3    H211119   4.363   2.349   1.817
 3719TIP3   OH211120   4.249   0.206   1.865
 3719TIP3    H111121   4.338   0.218   1.898
 3719TIP3    H211122   4.252   0.240   1.776
 3720TIP3   OH211123   6.191   6.713   1.181
 3720TIP3    H111124   6.173   6.775   1.251
 3720TIP3    H211125   6.157   6.756   1.102
 3721TIP3   OH211126   4.378   2.431   3.460
 3721TIP3    H111127   4.402   2.510   3.507
 3721TIP3    H211128   4.285   2.419   3.478
 3722TIP3   OH211129   6.387   0.248   5.576
 3722TIP3    H111130   6.316   0.304   5.544
 3722TIP3    H211131   6.421   0.294   5.653
 3723TIP3   OH211132   2.901   3.386   2.509
 3723TIP3    H111133   2.978   3.365   2.561
 3723TIP3    H211134   2.907   3.480   2.493
 3724TIP3   OH211135   2.226   1.406   1.296
 3724TIP3    H111136   2.265   1.323   1.321
 3724TIP3    H211137   2.271   1.472   1.350
 3725TIP3   OH211138   4.721   3.726   5.469
 3725TIP3    H111139   4.754   3.691   5.552
 3725TIP3    H211140   4.638   3.682   5.455
 3726TIP3   OH211141   3.755   0.871   5.715
 3726TIP3    H111142   3.834   0.818   5.728
 3726TIP3    H211143   3.786   0.962   5.720
 3727TIP3   OH211144   2.490   0.702   5.428
 3727TIP3    H111145   2.443   0.785   5.428
 3727TIP3    H211146   2.430   0.640   5.470
 3728TIP3   OH211147   6.587   3.285   3.583
 3728TIP3    H111148   6.578   3.360   3.524
 3728TIP3    H211149   6.498   3.253   3.596
 3729TIP3   OH211150   4.287   4.305   5.522
 3729TIP3    H111151   4.241   4.348   5.594
 3729TIP3    H211152   4.358   4.365   5.500
 3730TIP3   OH211153   5.178   4.040   4.665
 3730TIP3    H111154   5.268   4.034   4.634
 3730TIP3    H211155   5.131   4.086   4.596
 3731TIP3   OH211156   1.996   3.866   1.462
 3731TIP3    H111157   1.956   3.928   1.524
 3731TIP3    H211158   1.925   3.845   1.401
 3732TIP3   OH211159   2.940   3.452   4.756
 3732TIP3    H111160   2.927   3.499   4.674
 3732TIP3    H211161   2.898   3.367   4.742
 3733TIP3   OH211162   5.671   6.717   5.539
 3733TIP3    H111163   5.715   6.644   5.583
 3733TIP3    H211164   5.689   6.792   5.595
 3734TIP3   OH211165   2.299   2.876   4.597
 3734TIP3    H111166   2.261   2.962   4.612
 3734TIP3    H211167   2.247   2.839   4.525
 3735TIP3   OH211168   3.001   3.004   4.049
 3735TIP3    H111169   2.911   2.974   4.039
 3735TIP3    H211170   3.002   3.091   4.009
 3736TIP3   OH211171   5.225   2.909   2.591
 3736TIP3    H111172   5.172   2.829   2.598
 3736TIP3    H211173   5.308   2.879   2.553
 3737TIP3   OH211174   0.309   1.361   4.985
 3737TIP3    H111175   0.396   1.342   5.021
 3737TIP3    H211176   0.270   1.422   5.048
 3738TIP3   OH211177   6.867   6.728   0.194
 3738TIP3    H111178   6.884   6.638   0.221
 3738TIP3    H211179   6.925   6.743   0.120
 3739TIP3   OH211180   0.190   6.662   1.201
 3739TIP3    H111181   0.277   6.627   1.220
 3739TIP3    H211182   0.184   6.661   1.105
 3740TIP3   OH211183   2.025   6.449   3.372
 3740TIP3    H111184   2.078   6.424   3.296
 3740TIP3    H211185   1.949   6.494   3.335
 3741TIP3   OH211186   7.176   2.778   4.426
 3741TIP3    H111187   7.228   2.852   4.394
 3741TIP3    H211188   7.136   2.811   4.507
 3742TIP3   OH211189   0.406   5.093   1.289
 3742TIP3    H111190   0.397   5.048   1.204
 3742TIP3    H211191   0.475   5.157   1.275
 3743TIP3   OH211192   3.573   4.536   0.225
 3743TIP3    H111193   3.485   4.512   0.196
 3743TIP3    H211194   3.578   4.505   0.315
 3744TIP3   OH211195   3.222   3.630   2.440
 3744TIP3    H111196   3.223   3.550   2.386
 3744TIP3    H211197   3.248   3.700   2.379
 3745TIP3   OH211198   5.185   0.820   0.160
 3745TIP3    H111199   5.109   0.858   0.115
 3745TIP3    H211200   5.246   0.893   0.170
 3746TIP3   OH211201   2.825   0.074   5.152
 3746TIP3    H111202   2.894   0.010   5.137
 3746TIP3    H211203   2.754   0.047   5.094
 3747TIP3   OH211204   5.660   2.426   4.986
 3747TIP3    H111205   5.707   2.499   4.946
 3747TIP3    H211206   5.573   2.462   5.005
 3748TIP3   OH211207   1.876   4.980   4.112
 3748TIP3    H111208   1.865   4.959   4.019
 3748TIP3    H211209   1.971   4.988   4.123
 3749TIP3   OH211210   3.602   3.922   0.701
 3749TIP3    H111211   3.544   3.964   0.764
 3749TIP3    H211212   3.606   3.831   0.728
 3750TIP3   OH211213   3.414   5.284   0.815
 3750TIP3    H111214   3.351   5.357   0.814
 3750TIP3    H211215   3.496   5.323   0.787
 3751TIP3   OH211216   2.953   5.628   4.415
 3751TIP3    H111217   2.968   5.640   4.509
 3751TIP3    H211218   2.886   5.692   4.393
 3752TIP3   OH211219   4.356   1.502   0.601
 3752TIP3    H111220   4.338   1.596   0.601
 3752TIP3    H211221   4.343   1.475   0.692
 3753TIP3   OH211222   0.331   2.668   4.239
 3753TIP3    H111223   0.353   2.576   4.250
 3753TIP3    H211224   0.343   2.684   4.146
 3754TIP3   OH211225   1.869   1.321   1.627
 3754TIP3    H111226   1.846   1.229   1.616
 3754TIP3    H211227   1.933   1.339   1.558
 3755TIP3   OH211228   5.695   1.412   1.045
 3755TIP3    H111229   5.783   1.436   1.075
 3755TIP3    H211230   5.681   1.465   0.966
 3756TIP3   OH211231   3.701   0.494   5.546
 3756TIP3    H111232   3.793   0.483   5.524
 3756TIP3    H211233   3.690   0.444   5.627
 3757TIP3   OH211234   4.709   3.134   1.956
 3757TIP3    H111235   4.754   3.097   2.032
 3757TIP3    H211236   4.619   3.104   1.965
 3758TIP3   OH211237   4.548   0.079   4.381
 3758TIP3    H111238   4.489   0.049   4.451
 3758TIP3    H211239   4.546   0.174   4.388
 3759TIP3   OH211240   3.289   4.462   4.571
 3759TIP3    H111241   3.198   4.477   4.547
 3759TIP3    H211242   3.327   4.416   4.495
 3760TIP3   OH211243   5.791   3.730   3.815
 3760TIP3    H111244   5.813   3.820   3.790
 3760TIP3    H211245   5.748   3.693   3.737
 3761TIP3   OH211246   5.963   2.502   2.571
 3761TIP3    H111247   5.871   2.477   2.559
 3761TIP3    H211248   6.002   2.429   2.618
 3762TIP3   OH211249   0.414   5.675   3.022
 3762TIP3    H111250   0.489   5.619   3.042
 3762TIP3    H211251   0.356   5.665   3.098
 3763TIP3   OH211252   7.213   2.543   5.551
 3763TIP3    H111253   7.271   2.469   5.565
 3763TIP3    H211254   7.127   2.511   5.578
 3764TIP3   OH211255   6.652   2.169   4.241
 3764TIP3    H111256   6.655   2.236   4.309
 3764TIP3    H211257   6.565   2.131   4.248
 3765TIP3   OH211258   5.873   0.550   5.095
 3765TIP3    H111259   5.846   0.641   5.080
 3765TIP3    H211260   5.793   0.499   5.083
 3766TIP3   OH211261   3.829   0.173   0.051
 3766TIP3    H111262   3.733   0.175   0.049
 3766TIP3    H211263   3.853   0.117  -0.022
 3767TIP3   OH211264   0.678   5.467   0.549
 3767TIP3    H111265   0.609   5.521   0.510
 3767TIP3    H211266   0.717   5.523   0.617
 3768TIP3   OH211267   5.727   3.934   2.916
 3768TIP3    H111268   5.779   3.988   2.975
 3768TIP3    H211269   5.735   3.975   2.831
 3769TIP3   OH211270   1.227   1.960   2.858
 3769TIP3    H111271   1.243   1.941   2.951
 3769TIP3    H211272   1.227   2.055   2.853
 3770TIP3   OH211273   3.601   1.784   1.427
 3770TIP3    H111274   3.618   1.691   1.441
 3770TIP3    H211275   3.575   1.790   1.335
 3771TIP3   OH211276   0.798   5.724   4.173
 3771TIP3    H111277   0.862   5.764   4.232
 3771TIP3    H211278   0.848   5.659   4.124
 3772TIP3   OH211279   4.758   4.270   4.122
 3772TIP3    H111280   4.793   4.183   4.102
 3772TIP3    H211281   4.675   4.253   4.167
 3773TIP3   OH211282   0.855   6.656   5.111
 3773TIP3    H111283   0.869   6.666   5.205
 3773TIP3    H211284   0.783   6.594   5.104
 3774TIP3   OH211285   2.534   1.367   2.345
 3774TIP3    H111286   2.537   1.453   2.387
 3774TIP3    H211287   2.472   1.378   2.273
 3775TIP3   OH211288   4.858   5.185   5.749
 3775TIP3    H111289   4.780   5.239   5.736
 3775TIP3    H211290   4.884   5.159   5.660
 3776TIP3   OH211291   4.696   0.278   5.380
 3776TIP3    H111292   4.624   0.245   5.327
 3776TIP3    H211293   4.697   0.222   5.458
 3777TIP3   OH211294   0.309   6.521   0.802
 3777TIP3    H111295   0.399   6.515   0.767
 3777TIP3    H211296   0.320   6.558   0.889
 3778TIP3   OH211297   2.930   5.181   2.989
 3778TIP3    H111298   2.850   5.176   3.041
 3778TIP3    H211299   2.906   5.233   2.912
 3779TIP3   OH211300   3.336   3.531   4.069
 3779TIP3    H111301   3.351   3.513   3.976
 3779TIP3    H211302   3.263   3.593   4.070
 3780TIP3   OH211303   4.516   4.251   2.508
 3780TIP3    H111304   4.524   4.159   2.534
 3780TIP3    H211305   4.465   4.292   2.578
 3781TIP3   OH211306   0.797   0.580   1.630
 3781TIP3    H111307   0.777   0.600   1.722
 3781TIP3    H211308   0.874   0.634   1.611
 3782TIP3   OH211309   6.167   3.254   4.203
 3782TIP3    H111310   6.141   3.167   4.233
 3782TIP3    H211311   6.219   3.290   4.274
 3783TIP3   OH211312   6.281   5.358   2.770
 3783TIP3    H111313   6.261   5.276   2.726
 3783TIP3    H211314   6.344   5.335   2.838
 3784TIP3   OH211315   2.064   5.783   4.186
 3784TIP3    H111316   2.079   5.699   4.228
 3784TIP3    H211317   2.108   5.776   4.101
 3785TIP3   OH211318   4.642   5.711   5.678
 3785TIP3    H111319   4.556   5.696   5.717
 3785TIP3    H211320   4.659   5.804   5.692
 3786TIP3   OH211321   6.669   0.051   2.956
 3786TIP3    H111322   6.662  -0.021   2.893
 3786TIP3    H211323   6.608   0.117   2.924
 3787TIP3   OH211324   3.729   6.195   2.920
 3787TIP3    H111325   3.823   6.178   2.924
 3787TIP3    H211326   3.722   6.279   2.875
 3788TIP3   OH211327   2.691   1.765   0.221
 3788TIP3    H111328   2.646   1.797   0.143
 3788TIP3    H211329   2.639   1.801   0.294
 3789TIP3   OH211330   5.376   2.843   5.535
 3789TIP3    H111331   5.293   2.885   5.553
 3789TIP3    H211332   5.360   2.749   5.548
 3790TIP3   OH211333   1.166   3.083   1.914
 3790TIP3    H111334   1.193   3.143   1.845
 3790TIP3    H211335   1.071   3.076   1.905
 3791TIP3   OH211336   2.174   5.368   4.630
 3791TIP3    H111337   2.164   5.278   4.600
 3791TIP3    H211338   2.266   5.376   4.654
 3792TIP3   OH211339   3.844   6.793   3.617
 3792TIP3    H111340   3.883   6.707   3.635
 3792TIP3    H211341   3.873   6.848   3.690
 3793TIP3   OH211342   0.021   3.068   0.444
 3793TIP3    H111343  -0.009   3.045   0.356
 3793TIP3    H211344   0.001   2.992   0.498
 3794TIP3   OH211345   3.657   6.038   5.606
 3794TIP3    H111346   3.724   6.104   5.624
 3794TIP3    H211347   3.577   6.088   5.590
 3795TIP3   OH211348   3.882   4.827   5.517
 3795TIP3    H111349   3.909   4.843   5.607
 3795TIP3    H211350   3.842   4.909   5.488
 3796TIP3   OH211351   6.266   3.122   3.065
 3796TIP3    H111352   6.282   3.087   3.153
 3796TIP3    H211353   6.281   3.216   3.074
 3797TIP3   OH211354   5.705   2.697   4.551
 3797TIP3    H111355   5.695   2.673   4.459
 3797TIP3    H211356   5.655   2.778   4.560
 3798TIP3   OH211357   2.875   2.583   0.445
 3798TIP3    H111358   2.880   2.508   0.385
 3798TIP3    H211359   2.928   2.558   0.520
 3799TIP3   OH211360   0.408   3.531   5.459
 3799TIP3    H111361   0.411   3.435   5.463
 3799TIP3    H211362   0.434   3.559   5.547
 3800TIP3   OH211363   2.072   1.698   5.575
 3800TIP3    H111364   2.132   1.706   5.649
 3800TIP3    H211365   1.986   1.719   5.612
 3801TIP3   OH211366   4.654   3.984   2.487
 3801TIP3    H111367   4.746   3.965   2.503
 3801TIP3    H211368   4.635   3.941   2.403
 3802TIP3   OH211369   2.168   0.032   0.822
 3802TIP3    H111370   2.211  -0.047   0.854
 3802TIP3    H211371   2.235   0.077   0.772
 3803TIP3   OH211372   3.141   6.523   4.891
 3803TIP3    H111373   3.195   6.444   4.900
 3803TIP3    H211374   3.061   6.502   4.940
 3804TIP3   OH211375   0.782   2.913   3.331
 3804TIP3    H111376   0.778   2.836   3.388
 3804TIP3    H211377   0.734   2.980   3.380
 3805TIP3   OH211378   5.441   2.341   5.702
 3805TIP3    H111379   5.527   2.317   5.739
 3805TIP3    H211380   5.391   2.260   5.705
 3806TIP3   OH211381   7.038   4.288   4.405
 3806TIP3    H111382   7.089   4.289   4.486
 3806TIP3    H211383   7.094   4.245   4.341
 3807TIP3   OH211384   2.629   2.428   0.049
 3807TIP3    H111385   2.654   2.520   0.057
 3807TIP3    H211386   2.583   2.409   0.130
 3808TIP3   OH211387   1.046   2.627   5.731
 3808TIP3    H111388   1.063   2.633   5.825
 3808TIP3    H211389   0.973   2.567   5.723
 3809TIP3   OH211390   5.279   6.760   4.034
 3809TIP3    H111391   5.291   6.675   4.076
 3809TIP3    H211392   5.343   6.818   4.076
 3810TIP3   OH211393   1.642   0.479   0.774
 3810TIP3    H111394   1.673   0.413   0.712
 3810TIP3    H211395   1.720   0.530   0.796
 3811TIP3   OH211396   3.588   0.807   4.537
 3811TIP3    H111397   3.517   0.751   4.506
 3811TIP3    H211398   3.666   0.752   4.531
 3812TIP3   OH211399   4.850   5.663   3.087
 3812TIP3    H111400   4.806   5.681   3.003
 3812TIP3    H211401   4.927   5.611   3.063
 3813TIP3   OH211402   0.258   0.608   4.498
 3813TIP3    H111403   0.178   0.652   4.527
 3813TIP3    H211404   0.228   0.546   4.431
 3814TIP3   OH211405   3.009   1.780   0.818
 3814TIP3    H111406   3.099   1.768   0.848
 3814TIP3    H211407   2.959   1.793   0.899
 3815TIP3   OH211408   4.561   5.204   3.674
 3815TIP3    H111409   4.504   5.144   3.723
 3815TIP3    H211410   4.599   5.150   3.605
 3816TIP3   OH211411   1.875   1.924   0.822
 3816TIP3    H111412   1.949   1.902   0.879
 3816TIP3    H211413   1.906   1.906   0.733
 3817TIP3   OH211414   4.757   0.133   3.327
 3817TIP3    H111415   4.811   0.069   3.280
 3817TIP3    H211416   4.762   0.106   3.418
 3818TIP3   OH211417   4.480   4.734   4.504
 3818TIP3    H111418   4.401   4.680   4.502
 3818TIP3    H211419   4.535   4.693   4.571
 3819TIP3   OH211420   3.767   2.646   4.799
 3819TIP3    H111421   3.730   2.677   4.716
 3819TIP3    H211422   3.700   2.669   4.864
 3820TIP3   OH211423   5.932   3.186   2.756
 3820TIP3    H111424   5.982   3.174   2.675
 3820TIP3    H211425   5.974   3.127   2.819
 3821TIP3   OH211426   4.800   0.307   3.684
 3821TIP3    H111427   4.784   0.343   3.772
 3821TIP3    H211428   4.777   0.378   3.625
 3822TIP3   OH211429   3.181   1.786   0.408
 3822TIP3    H111430   3.256   1.742   0.368
 3822TIP3    H211431   3.132   1.716   0.451
 3823TIP3   OH211432   2.671   1.858   1.274
 3823TIP3    H111433   2.626   1.933   1.312
 3823TIP3    H211434   2.604   1.811   1.225
 3824TIP3   OH211435   3.688   0.705   1.620
 3824TIP3    H111436   3.763   0.759   1.642
 3824TIP3    H211437   3.638   0.758   1.557
 3825TIP3   OH211438   4.254   1.032   1.530
 3825TIP3    H111439   4.347   1.019   1.511
 3825TIP3    H211440   4.245   1.006   1.622
 3826TIP3   OH211441   4.601   1.604   3.069
 3826TIP3    H111442   4.573   1.695   3.079
 3826TIP3    H211443   4.659   1.605   2.993
 3827TIP3   OH211444   5.447   3.140   4.276
 3827TIP3    H111445   5.520   3.089   4.241
 3827TIP3    H211446   5.488   3.199   4.340
 3828TIP3   OH211447   3.197   3.902   4.385
 3828TIP3    H111448   3.252   3.893   4.308
 3828TIP3    H211449   3.241   3.968   4.438
 3829TIP3   OH211450   1.279   6.306   2.798
 3829TIP3    H111451   1.296   6.236   2.861
 3829TIP3    H211452   1.194   6.284   2.760
 3830TIP3   OH211453   3.138   5.438   0.084
 3830TIP3    H111454   3.197   5.503   0.045
 3830TIP3    H211455   3.194   5.361   0.098
 3831TIP3   OH211456   1.402   2.909   0.055
 3831TIP3    H111457   1.481   2.943   0.097
 3831TIP3    H211458   1.330   2.955   0.098
 3832TIP3   OH211459   2.001   6.318   4.897
 3832TIP3    H111460   2.028   6.228   4.916
 3832TIP3    H211461   2.076   6.356   4.851
 3833TIP3   OH211462   2.942   0.379   4.712
 3833TIP3    H111463   2.920   0.289   4.690
 3833TIP3    H211464   3.000   0.372   4.788
 3834TIP3   OH211465   3.780   2.279   1.187
 3834TIP3    H111466   3.837   2.308   1.116
 3834TIP3    H211467   3.838   2.230   1.246
 3835TIP3   OH211468   0.895   5.194   5.332
 3835TIP3    H111469   0.802   5.182   5.348
 3835TIP3    H211470   0.937   5.123   5.379
 3836TIP3   OH211471   5.071   6.545   5.810
 3836TIP3    H111472   4.978   6.555   5.788
 3836TIP3    H211473   5.081   6.591   5.893
 3837TIP3   OH211474   0.315   0.933   0.805
 3837TIP3    H111475   0.231   0.891   0.825
 3837TIP3    H211476   0.292   1.025   0.789
 3838TIP3   OH211477   2.446   0.463   0.180
 3838TIP3    H111478   2.479   0.384   0.136
 3838TIP3    H211479   2.423   0.522   0.108
 3839TIP3   OH211480   5.198   3.109   4.194
 3839TIP3    H111481   5.143   3.034   4.214
 3839TIP3    H211482   5.277   3.096   4.247
 3840TIP3   OH211483   5.636   1.131   3.826
 3840TIP3    H111484   5.701   1.192   3.790
 3840TIP3    H211485   5.639   1.145   3.920
 3841TIP3   OH211486   0.605   6.688   3.826
 3841TIP3    H111487   0.536   6.634   3.786
 3841TIP3    H211488   0.575   6.703   3.915
 3842TIP3   OH211489   1.120   5.202   0.485
 3842TIP3    H111490   1.205   5.243   0.502
 3842TIP3    H211491   1.057   5.259   0.528
 3843TIP3   OH211492   5.720   3.426   0.993
 3843TIP3    H111493   5.667   3.474   1.057
 3843TIP3    H211494   5.655   3.385   0.935
 3844TIP3   OH211495   1.903   0.871   4.958
 3844TIP3    H111496   1.974   0.808   4.968
 3844TIP3    H211497   1.853   0.840   4.883
 3845TIP3   OH211498   2.136   2.398   2.759
 3845TIP3    H111499   2.184   2.462   2.707
 3845TIP3    H211500   2.093   2.342   2.695
 3846TIP3   OH211501   1.377   3.350   2.852
 3846TIP3    H111502   1.370   3.426   2.909
 3846TIP3    H211503   1.421   3.382   2.773
 3847TIP3   OH211504   0.137   5.562   0.166
 3847TIP3    H111505   0.049   5.584   0.135
 3847TIP3    H211506   0.147   5.469   0.146
 3848TIP3   OH211507   2.291   1.328   3.578
 3848TIP3    H111508   2.319   1.240   3.554
 3848TIP3    H211509   2.195   1.324   3.576
 3849TIP3   OH211510   5.937   1.258   4.888
 3849TIP3    H111511   5.859   1.284   4.937
 3849TIP3    H211512   5.927   1.163   4.876
 3850TIP3   OH211513   1.434   0.532   4.055
 3850TIP3    H111514   1.409   0.598   4.120
 3850TIP3    H211515   1.524   0.510   4.077
 3851TIP3   OH211516   6.845   6.323   5.527
 3851TIP3    H111517   6.886   6.280   5.452
 3851TIP3    H211518   6.884   6.410   5.530
 3852TIP3   OH211519   2.532   5.027   1.343
 3852TIP3    H111520   2.452   5.077   1.358
 3852TIP3    H211521   2.512   4.971   1.269
 3853TIP3   OH211522   0.947   4.714   2.415
 3853TIP3    H111523   1.012   4.676   2.475
 3853TIP3    H211524   0.912   4.789   2.463
 3854TIP3   OH211525   3.163   4.293   2.429
 3854TIP3    H111526   3.091   4.258   2.376
 3854TIP3    H211527   3.241   4.280   2.375
 3855TIP3   OH211528   3.639   0.996   3.743
 3855TIP3    H111529   3.628   1.027   3.653
 3855TIP3    H211530   3.588   1.057   3.796
 3856TIP3   OH211531   6.581   3.595   3.000
 3856TIP3    H111532   6.501   3.619   3.046
 3856TIP3    H211533   6.624   3.678   2.981
 3857TIP3   OH211534   5.304   3.070   1.736
 3857TIP3    H111535   5.264   3.032   1.814
 3857TIP3    H211536   5.395   3.087   1.761
 3858TIP3   OH211537   7.010   3.767   2.556
 3858TIP3    H111538   7.028   3.676   2.579
 3858TIP3    H211539   6.952   3.763   2.481
 3859TIP3   OH211540   2.940   3.891   4.629
 3859TIP3    H111541   2.988   3.809   4.633
 3859TIP3    H211542   2.983   3.947   4.693
 3860TIP3   OH211543   4.666   6.647   5.231
 3860TIP3    H111544   4.657   6.663   5.137
 3860TIP3    H211545   4.577   6.632   5.262
 3861TIP3   OH211546   3.167   6.546   3.591
 3861TIP3    H111547   3.072   6.548   3.601
 3861TIP3    H211548   3.190   6.634   3.560
 3862TIP3   OH211549   6.979   2.964   1.179
 3862TIP3    H111550   6.978   3.024   1.253
 3862TIP3    H211551   7.029   3.009   1.111
 3863TIP3   OH211552   2.183   6.666   3.830
 3863TIP3    H111553   2.247   6.613   3.783
 3863TIP3    H211554   2.164   6.616   3.909
 3864TIP3   OH211555   4.089   0.997   3.026
 3864TIP3    H111556   4.162   0.989   3.088
 3864TIP3    H211557   4.063   1.089   3.033
 3865TIP3   OH211558   1.418   2.314   4.749
 3865TIP3    H111559   1.379   2.310   4.661
 3865TIP3    H211560   1.399   2.229   4.788
 3866TIP3   OH211561   0.561   6.072   4.498
 3866TIP3    H111562   0.594   6.042   4.414
 3866TIP3    H211563   0.466   6.063   4.491
 3867TIP3   OH211564   6.684   3.932   2.094
 3867TIP3    H111565   6.590   3.916   2.093
 3867TIP3    H211566   6.707   3.948   2.002
 3868TIP3   OH211567   0.760   6.313   0.589
 3868TIP3    H111568   0.805   6.318   0.505
 3868TIP3    H211569   0.830   6.320   0.654
 3869TIP3   OH211570   3.261   2.889   5.353
 3869TIP3    H111571   3.226   2.811   5.398
 3869TIP3    H211572   3.203   2.960   5.381
 3870TIP3   OH211573   1.424   2.783   1.263
 3870TIP3    H111574   1.429   2.706   1.320
 3870TIP3    H211575   1.480   2.762   1.189
 3871TIP3   OH211576   6.424   0.800   0.157
 3871TIP3    H111577   6.357   0.819   0.223
 3871TIP3    H211578   6.396   0.717   0.118
 3872TIP3   OH211579   3.413   2.824   2.397
 3872TIP3    H111580   3.418   2.753   2.333
 3872TIP3    H211581   3.491   2.877   2.381
 3873TIP3   OH211582   3.129   3.717   4.043
 3873TIP3    H111583   3.169   3.786   4.096
 3873TIP3    H211584   3.083   3.662   4.105
 3874TIP3   OH211585   5.033   4.376   1.970
 3874TIP3    H111586   4.993   4.437   1.908
 3874TIP3    H211587   4.995   4.291   1.947
 3875TIP3   OH211588   5.637   1.884   0.617
 3875TIP3    H111589   5.674   1.842   0.695
 3875TIP3    H211590   5.680   1.970   0.613
 3876TIP3   OH211591   5.966   2.892   0.241
 3876TIP3    H111592   5.916   2.930   0.313
 3876TIP3    H211593   6.022   2.826   0.282
 3877TIP3   OH211594   6.652   5.095   1.039
 3877TIP3    H111595   6.705   5.109   0.960
 3877TIP3    H211596   6.697   5.145   1.107
 3878TIP3   OH211597   6.222   1.694   0.143
 3878TIP3    H111598   6.142   1.642   0.145
 3878TIP3    H211599   6.247   1.696   0.051
 3879TIP3   OH211600   0.039   3.471   0.802
 3879TIP3    H111601   0.037   3.398   0.740
 3879TIP3    H211602  -0.034   3.526   0.776
 3880TIP3   OH211603   3.847   1.746   0.475
 3880TIP3    H111604   3.916   1.731   0.540
 3880TIP3    H211605   3.876   1.824   0.428
 3881TIP3   OH211606   5.936   0.687   0.546
 3881TIP3    H111607   5.859   0.684   0.489
 3881TIP3    H211608   5.931   0.605   0.596
 3882TIP3   OH211609   2.549   3.974   4.288
 3882TIP3    H111610   2.579   3.990   4.198
 3882TIP3    H211611   2.600   3.899   4.318
 3883TIP3   OH211612   5.897   5.684   3.749
 3883TIP3    H111613   5.932   5.772   3.757
 3883TIP3    H211614   5.964   5.635   3.702
 3884TIP3   OH211615   7.083   1.665   0.597
 3884TIP3    H111616   7.067   1.759   0.604
 3884TIP3    H211617   7.066   1.644   0.505
 3885TIP3   OH211618   4.317   4.533   4.615
 3885TIP3    H111619   4.227   4.557   4.637
 3885TIP3    H211620   4.354   4.499   4.696
 3886TIP3   OH211621   2.690   1.769   4.927
 3886TIP3    H111622   2.730   1.808   5.005
 3886TIP3    H211623   2.756   1.711   4.892
 3887TIP3   OH211624   3.852   4.472   1.058
 3887TIP3    H111625   3.768   4.516   1.043
 3887TIP3    H211626   3.859   4.466   1.154
 3888TIP3   OH211627   6.914   2.129   2.269
 3888TIP3    H111628   6.879   2.051   2.312
 3888TIP3    H211629   6.960   2.094   2.192
 3889TIP3   OH211630   2.487   3.046   5.194
 3889TIP3    H111631   2.434   3.001   5.261
 3889TIP3    H211632   2.427   3.059   5.121
 3890TIP3   OH211633   3.413   1.590   4.934
 3890TIP3    H111634   3.469   1.572   4.859
 3890TIP3    H211635   3.418   1.511   4.988
 3891TIP3   OH211636   5.755   0.148   3.151
 3891TIP3    H111637   5.691   0.212   3.182
 3891TIP3    H211638   5.705   0.089   3.095
 3892TIP3   OH211639   6.298   0.939   5.143
 3892TIP3    H111640   6.236   0.886   5.092
 3892TIP3    H211641   6.252   1.021   5.158
 3893TIP3   OH211642   2.940   2.793   3.122
 3893TIP3    H111643   2.971   2.846   3.195
 3893TIP3    H211644   2.901   2.856   3.062
 3894TIP3   OH211645   7.129   5.141   3.501
 3894TIP3    H111646   7.135   5.047   3.519
 3894TIP3    H211647   7.069   5.174   3.568
 3895TIP3   OH211648   5.098   4.719   4.128
 3895TIP3    H111649   5.170   4.775   4.159
 3895TIP3    H211650   5.084   4.657   4.200
 3896TIP3   OH211651   1.349   5.776   0.759
 3896TIP3    H111652   1.331   5.707   0.694
 3896TIP3    H211653   1.264   5.801   0.793
 3897TIP3   OH211654   3.440   3.470   0.367
 3897TIP3    H111655   3.503   3.433   0.429
 3897TIP3    H211656   3.452   3.565   0.375
 3898TIP3   OH211657   5.629   3.005   5.090
 3898TIP3    H111658   5.619   2.972   5.180
 3898TIP3    H211659   5.582   2.942   5.036
 3899TIP3   OH211660   5.714   6.209   0.276
 3899TIP3    H111661   5.649   6.139   0.289
 3899TIP3    H211662   5.783   6.190   0.340
 3900TIP3   OH211663   1.708   2.983   2.108
 3900TIP3    H111664   1.706   2.954   2.017
 3900TIP3    H211665   1.664   3.068   2.108
 3901TIP3   OH211666   1.088   6.167   2.262
 3901TIP3    H111667   1.142   6.242   2.289
 3901TIP3    H211668   1.149   6.094   2.259
 3902TIP3   OH211669   7.178   0.693   2.393
 3902TIP3    H111670   7.144   0.713   2.306
 3902TIP3    H211671   7.177   0.778   2.439
 3903TIP3   OH211672   5.216   4.651   1.940
 3903TIP3    H111673   5.128   4.679   1.913
 3903TIP3    H211674   5.263   4.639   1.858
 3904TIP3   OH211675   1.917   3.058   3.355
 3904TIP3    H111676   1.823   3.071   3.363
 3904TIP3    H211677   1.951   3.061   3.444
 3905TIP3   OH211678   1.398   0.348   5.891
 3905TIP3    H111679   1.333   0.280   5.906
 3905TIP3    H211680   1.393   0.365   5.797
 3906TIP3   OH211681   4.262   0.841   5.757
 3906TIP3    H111682   4.173   0.811   5.738
 3906TIP3    H211683   4.274   0.916   5.698
 3907TIP3   OH211684   4.764   2.806   4.623
 3907TIP3    H111685   4.782   2.821   4.530
 3907TIP3    H211686   4.802   2.883   4.667
 3908TIP3   OH211687   6.657   6.564   1.344
 3908TIP3    H111688   6.598   6.577   1.418
 3908TIP3    H211689   6.653   6.646   1.296
 3909TIP3   OH211690   1.538   3.176   3.921
 3909TIP3    H111691   1.467   3.115   3.902
 3909TIP3    H211692   1.569   3.151   4.008
 3910TIP3   OH211693   2.776   0.051   0.655
 3910TIP3    H111694   2.772   0.146   0.642
 3910TIP3    H211695   2.708   0.016   0.597
 3911TIP3   OH211696   1.384   1.782   0.380
 3911TIP3    H111697   1.394   1.758   0.288
 3911TIP3    H211698   1.307   1.838   0.381
 3912TIP3   OH211699   3.949   2.199   5.790
 3912TIP3    H111700   3.980   2.274   5.840
 3912TIP3    H211701   3.854   2.200   5.802
 3913TIP3   OH211702   4.957   5.412   2.995
 3913TIP3    H111703   5.039   5.461   2.990
 3913TIP3    H211704   4.940   5.405   3.089
 3914TIP3   OH211705   1.765   2.901   0.302
 3914TIP3    H111706   1.822   2.879   0.228
 3914TIP3    H211707   1.712   2.974   0.271
 3915TIP3   OH211708   3.009   5.655   5.079
 3915TIP3    H111709   2.955   5.716   5.029
 3915TIP3    H211710   2.947   5.589   5.112
 3916TIP3   OH211711   4.436   2.695   3.607
 3916TIP3    H111712   4.481   2.777   3.627
 3916TIP3    H211713   4.486   2.628   3.654
 3917TIP3   OH211714   5.796   2.369   4.073
 3917TIP3    H111715   5.876   2.413   4.044
 3917TIP3    H211716   5.814   2.276   4.064
 3918TIP3   OH211717   3.982   0.207   0.297
 3918TIP3    H111718   4.045   0.276   0.273
 3918TIP3    H211719   3.934   0.189   0.216
 3919TIP3   OH211720   2.524   1.429   1.107
 3919TIP3    H111721   2.469   1.496   1.066
 3919TIP3    H211722   2.524   1.356   1.045
 3920TIP3   OH211723   5.956   6.454   3.998
 3920TIP3    H111724   5.880   6.479   4.051
 3920TIP3    H211725   6.028   6.508   4.031
 3921TIP3   OH211726   3.207   1.335   2.938
 3921TIP3    H111727   3.230   1.383   3.017
 3921TIP3    H211728   3.260   1.255   2.942
 3922TIP3   OH211729   1.377   3.051   1.069
 3922TIP3    H111730   1.465   3.014   1.069
 3922TIP3    H211731   1.319   2.976   1.085
 3923TIP3   OH211732   4.030   0.715   5.704
 3923TIP3    H111733   4.071   0.676   5.626
 3923TIP3    H211734   3.996   0.640   5.753
 3924TIP3   OH211735   4.155   1.201   1.321
 3924TIP3    H111736   4.170   1.128   1.382
 3924TIP3    H211737   4.072   1.180   1.279
 3925TIP3   OH211738   2.385   4.765   1.980
 3925TIP3    H111739   2.447   4.736   2.047
 3925TIP3    H211740   2.308   4.793   2.029
 3926TIP3   OH211741   3.857   1.438   4.534
 3926TIP3    H111742   3.764   1.417   4.530
 3926TIP3    H211743   3.898   1.359   4.571
 3927TIP3   OH211744   3.259   4.434   4.838
 3927TIP3    H111745   3.164   4.424   4.826
 3927TIP3    H211746   3.294   4.441   4.750
 3928TIP3   OH211747   2.721   2.627   2.711
 3928TIP3    H111748   2.808   2.659   2.689
 3928TIP3    H211749   2.735   2.539   2.746
 3929TIP3   OH211750   4.456   1.404   3.380
 3929TIP3    H111751   4.522   1.357   3.431
 3929TIP3    H211752   4.469   1.373   3.290
 3930TIP3   OH211753   5.465   4.329   3.516
 3930TIP3    H111754   5.532   4.386   3.478
 3930TIP3    H211755   5.426   4.380   3.586
 3931TIP3   OH211756   5.061   0.155   1.946
 3931TIP3    H111757   5.048   0.192   1.859
 3931TIP3    H211758   5.001   0.205   2.002
 3932TIP3   OH211759   3.524   1.378   2.986
 3932TIP3    H111760   3.480   1.373   3.071
 3932TIP3    H211761   3.589   1.308   2.988
 3933TIP3   OH211762   6.127   1.827   0.547
 3933TIP3    H111763   6.103   1.897   0.608
 3933TIP3    H211764   6.151   1.873   0.466
 3934TIP3   OH211765   1.772   1.340   1.876
 3934TIP3    H111766   1.811   1.358   1.790
 3934TIP3    H211767   1.833   1.281   1.918
 3935TIP3   OH211768   1.507   1.861   4.823
 3935TIP3    H111769   1.578   1.819   4.871
 3935TIP3    H211770   1.542   1.876   4.736
 3936TIP3   OH211771   3.266   2.256   3.071
 3936TIP3    H111772   3.338   2.315   3.047
 3936TIP3    H211773   3.227   2.231   2.987
 3937TIP3   OH211774   5.660   4.663   0.534
 3937TIP3    H111775   5.640   4.757   0.534
 3937TIP3    H211776   5.611   4.629   0.609
 3938TIP3   OH211777   2.629   2.016   5.380
 3938TIP3    H111778   2.708   2.036   5.430
 3938TIP3    H211779   2.558   2.052   5.433
 3939TIP3   OH211780   1.082   6.748   5.916
 3939TIP3    H111781   1.079   6.802   5.836
 3939TIP3    H211782   1.172   6.757   5.947
 3940TIP3   OH211783   2.266   5.185   4.283
 3940TIP3    H111784   2.217   5.124   4.228
 3940TIP3    H211785   2.358   5.163   4.267
 3941TIP3   OH211786   0.245   3.682   1.466
 3941TIP3    H111787   0.291   3.727   1.395
 3941TIP3    H211788   0.307   3.684   1.539
 3942TIP3   OH211789  -0.001   5.613   3.064
 3942TIP3    H111790   0.049   5.622   2.983
 3942TIP3    H211791  -0.062   5.686   3.063
 3943TIP3   OH211792   6.090   2.235   3.825
 3943TIP3    H111793   6.174   2.272   3.799
 3943TIP3    H211794   6.073   2.165   3.762
 3944TIP3   OH211795   2.949   2.017   5.755
 3944TIP3    H111796   2.926   1.931   5.790
 3944TIP3    H211797   3.035   2.005   5.715
 3945TIP3   OH211798   4.897   1.261   5.487
 3945TIP3    H111799   4.952   1.333   5.457
 3945TIP3    H211800   4.956   1.186   5.495
 3946TIP3   OH211801   1.327   6.129   1.804
 3946TIP3    H111802   1.402   6.165   1.755
 3946TIP3    H211803   1.341   6.034   1.802
 3947TIP3   OH211804   1.436   0.746   1.813
 3947TIP3    H111805   1.387   0.816   1.770
 3947TIP3    H211806   1.388   0.730   1.895
 3948TIP3   OH211807   5.658   5.694   0.960
 3948TIP3    H111808   5.574   5.699   1.006
 3948TIP3    H211809   5.636   5.655   0.875
 3949TIP3   OH211810   2.989   2.645   5.742
 3949TIP3    H111811   3.066   2.606   5.784
 3949TIP3    H211812   2.923   2.649   5.812
 3950TIP3   OH211813   5.231   4.672   3.506
 3950TIP3    H111814   5.170   4.724   3.558
 3950TIP3    H211815   5.279   4.737   3.453
 3951TIP3   OH211816   6.496   4.905   1.123
 3951TIP3    H111817   6.582   4.944   1.111
 3951TIP3    H211818   6.478   4.915   1.217
 3952TIP3   OH211819   1.021   6.483   4.198
 3952TIP3    H111820   1.041   6.569   4.160
 3952TIP3    H211821   0.941   6.456   4.153
 3953TIP3   OH211822   4.546   1.093   5.873
 3953TIP3    H111823   4.553   1.146   5.793
 3953TIP3    H211824   4.592   1.144   5.939
 3954TIP3   OH211825   3.831   6.091   1.820
 3954TIP3    H111826   3.814   6.020   1.758
 3954TIP3    H211827   3.854   6.046   1.901
 3955TIP3   OH211828   4.846   6.733   4.776
 3955TIP3    H111829   4.910   6.744   4.846
 3955TIP3    H211830   4.867   6.801   4.713
 3956TIP3   OH211831   3.476   0.585   0.247
 3956TIP3    H111832   3.554   0.604   0.299
 3956TIP3    H211833   3.509   0.543   0.168
 3957TIP3   OH211834   4.915   1.168   4.069
 3957TIP3    H111835   4.879   1.255   4.049
 3957TIP3    H211836   4.843   1.108   4.050
 3958TIP3   OH211837   4.874   3.020   4.754
 3958TIP3    H111838   4.878   2.956   4.825
 3958TIP3    H211839   4.965   3.035   4.729
 3959TIP3   OH211840   6.598   5.876   0.963
 3959TIP3    H111841   6.527   5.882   1.026
 3959TIP3    H211842   6.586   5.952   0.905
 3960TIP3   OH211843   3.034   2.989   5.476
 3960TIP3    H111844   3.019   3.068   5.528
 3960TIP3    H211845   2.963   2.987   5.412
 3961TIP3   OH211846   1.314   6.395   2.402
 3961TIP3    H111847   1.408   6.379   2.410
 3961TIP3    H211848   1.306   6.491   2.405
 3962TIP3   OH211849   3.037   5.858   5.519
 3962TIP3    H111850   3.110   5.832   5.463
 3962TIP3    H211851   3.011   5.777   5.564
 3963TIP3   OH211852   6.887   1.132   1.839
 3963TIP3    H111853   6.904   1.226   1.850
 3963TIP3    H211854   6.840   1.125   1.756
 3964TIP3   OH211855   0.753   0.060   3.690
 3964TIP3    H111856   0.827   0.013   3.729
 3964TIP3    H211857   0.679   0.001   3.700
 3965TIP3   OH211858   2.150   4.637   3.713
 3965TIP3    H111859   2.222   4.677   3.664
 3965TIP3    H211860   2.071   4.670   3.669
 3966TIP3   OH211861   2.154   1.012   5.366
 3966TIP3    H111862   2.073   1.063   5.369
 3966TIP3    H211863   2.223   1.078   5.358
 3967TIP3   OH211864   3.479   4.085   2.456
 3967TIP3    H111865   3.390   4.069   2.424
 3967TIP3    H211866   3.533   4.021   2.411
 3968TIP3   OH211867   4.192   4.899   4.403
 3968TIP3    H111868   4.105   4.898   4.364
 3968TIP3    H211869   4.222   4.808   4.398
 3969TIP3   OH211870   2.096   0.784   5.223
 3969TIP3    H111871   2.105   0.715   5.289
 3969TIP3    H211872   2.078   0.863   5.274
 3970TIP3   OH211873   0.808   4.419   0.155
 3970TIP3    H111874   0.867   4.369   0.211
 3970TIP3    H211875   0.857   4.499   0.134
 3971TIP3   OH211876   7.171   0.532   4.123
 3971TIP3    H111877   7.258   0.551   4.158
 3971TIP3    H211878   7.149   0.447   4.161
 3972TIP3   OH211879   2.899   6.236   3.791
 3972TIP3    H111880   2.856   6.316   3.820
 3972TIP3    H211881   2.931   6.255   3.703
 3973TIP3   OH211882   6.433   6.491   2.327
 3973TIP3    H111883   6.339   6.486   2.314
 3973TIP3    H211884   6.458   6.577   2.293
 3974TIP3   OH211885   2.843   2.437   1.483
 3974TIP3    H111886   2.816   2.378   1.553
 3974TIP3    H211887   2.764   2.448   1.430
 3975TIP3   OH211888   0.388   2.630   3.034
 3975TIP3    H111889   0.320   2.667   3.089
 3975TIP3    H211890   0.467   2.680   3.056
 3976TIP3   OH211891   0.859   6.279   0.334
 3976TIP3    H111892   0.776   6.245   0.298
 3976TIP3    H211893   0.926   6.223   0.294
 3977TIP3   OH211894   1.157   5.273   3.944
 3977TIP3    H111895   1.220   5.221   3.895
 3977TIP3    H211896   1.143   5.351   3.890
 3978TIP3   OH211897   0.257   1.991   4.776
 3978TIP3    H111898   0.258   1.896   4.761
 3978TIP3    H211899   0.201   2.026   4.707
 3979TIP3   OH211900   5.581   2.488   3.024
 3979TIP3    H111901   5.570   2.482   3.119
 3979TIP3    H211902   5.498   2.456   2.988
 3980TIP3   OH211903   4.394   2.907   5.050
 3980TIP3    H111904   4.463   2.925   5.114
 3980TIP3    H211905   4.404   2.975   4.984
 3981TIP3   OH211906   2.398   0.262   5.085
 3981TIP3    H111907   2.314   0.306   5.095
 3981TIP3    H211908   2.460   0.315   5.136
 3982TIP3   OH211909   2.015   0.133   1.944
 3982TIP3    H111910   2.066   0.052   1.954
 3982TIP3    H211911   2.078   0.197   1.912
 3983TIP3   OH211912   7.117   3.506   2.493
 3983TIP3    H111913   7.060   3.431   2.510
 3983TIP3    H211914   7.163   3.484   2.412
 3984TIP3   OH211915   4.450   3.733   5.198
 3984TIP3    H111916   4.361   3.720   5.228
 3984TIP3    H211917   4.500   3.662   5.238
 3985TIP3   OH211918   4.531   3.828   4.123
 3985TIP3    H111919   4.465   3.853   4.188
 3985TIP3    H211920   4.520   3.733   4.114
 3986TIP3   OH211921   2.588   0.386   5.211
 3986TIP3    H111922   2.611   0.471   5.249
 3986TIP3    H211923   2.671   0.347   5.185
 3987TIP3   OH211924   5.367   2.389   2.542
 3987TIP3    H111925   5.280   2.417   2.514
 3987TIP3    H211926   5.392   2.451   2.611
 3988TIP3   OH211927   2.976   5.702   3.962
 3988TIP3    H111928   2.968   5.780   3.908
 3988TIP3    H211929   3.034   5.728   4.033
 3989TIP3   OH211930   1.634   0.518   5.331
 3989TIP3    H111931   1.685   0.504   5.410
 3989TIP3    H211932   1.582   0.438   5.321
 3990TIP3   OH211933   0.049   3.429   3.053
 3990TIP3    H111934   0.040   3.410   3.146
 3990TIP3    H211935   0.125   3.378   3.026
 3991TIP3   OH211936   6.883   4.625   1.173
 3991TIP3    H111937   6.945   4.687   1.134
 3991TIP3    H211938   6.806   4.629   1.117
 3992TIP3   OH211939   6.439   0.098   3.401
 3992TIP3    H111940   6.416   0.119   3.310
 3992TIP3    H211941   6.359   0.061   3.438
 3993TIP3   OH211942   2.448   1.297   1.622
 3993TIP3    H111943   2.477   1.376   1.667
 3993TIP3    H211944   2.506   1.289   1.547
 3994TIP3   OH211945   3.677   4.604   1.631
 3994TIP3    H111946   3.680   4.597   1.726
 3994TIP3    H211947   3.768   4.612   1.604
 3995TIP3   OH211948  -0.022   1.257   1.962
 3995TIP3    H111949  -0.110   1.290   1.978
 3995TIP3    H211950   0.032   1.335   1.952
 3996TIP3   OH211951   0.883   2.671   1.611
 3996TIP3    H111952   0.950   2.680   1.679
 3996TIP3    H211953   0.859   2.760   1.588
 3997TIP3   OH211954   2.410   4.236   4.810
 3997TIP3    H111955   2.344   4.181   4.850
 3997TIP3    H211956   2.464   4.266   4.883
 3998TIP3   OH211957   3.545   0.394   1.945
 3998TIP3    H111958   3.598   0.329   1.992
 3998TIP3    H211959   3.594   0.475   1.952
 3999TIP3   OH211960   6.242   2.979   3.994
 3999TIP3    H111961   6.218   3.068   3.969
 3999TIP3    H211962   6.261   2.935   3.911
 4000TIP3   OH211963   3.771   0.946   0.172
 4000TIP3    H111964   3.736   0.927   0.258
 4000TIP3    H211965   3.866   0.950   0.185
 4001TIP3   OH211966   0.737   0.660   1.269
 4001TIP3    H111967   0.799   0.728   1.243
 4001TIP3    H211968   0.698   0.693   1.350
 4002TIP3   OH211969   4.712   6.571   0.725
 4002TIP3    H111970   4.630   6.594   0.681
 4002TIP3    H211971   4.727   6.480   0.700
 4003TIP3   OH211972   3.712   3.420   3.875
 4003TIP3    H111973   3.680   3.339   3.914
 4003TIP3    H211974   3.798   3.434   3.914
 4004TIP3   OH211975   6.735   5.155   4.391
 4004TIP3    H111976   6.816   5.117   4.426
 4004TIP3    H211977   6.668   5.088   4.407
 4005TIP3   OH211978   3.916   2.578   1.708
 4005TIP3    H111979   3.871   2.502   1.743
 4005TIP3    H211980   3.868   2.653   1.743
 4006TIP3   OH211981   4.295   3.796   5.670
 4006TIP3    H111982   4.294   3.759   5.758
 4006TIP3    H211983   4.205   3.826   5.656
 4007TIP3   OH211984   4.770   3.373   0.319
 4007TIP3    H111985   4.855   3.416   0.310
 4007TIP3    H211986   4.706   3.443   0.305
 4008TIP3   OH211987   0.951   2.756   5.217
 4008TIP3    H111988   1.044   2.775   5.207
 4008TIP3    H211989   0.908   2.840   5.201
 4009TIP3   OH211990   3.774   5.518   3.155
 4009TIP3    H111991   3.842   5.464   3.116
 4009TIP3    H211992   3.813   5.605   3.162
 4010TIP3   OH211993   3.013   3.472   3.343
 4010TIP3    H111994   2.968   3.555   3.357
 4010TIP3    H211995   3.085   3.494   3.284
 4011TIP3   OH211996   7.103   5.857   3.544
 4011TIP3    H111997   7.170   5.789   3.555
 4011TIP3    H211998   7.020   5.811   3.555
 4012TIP3   OH211999   6.317   2.759   3.418
 4012TIP3    H112000   6.374   2.732   3.347
 4012TIP3    H212001   6.231   2.768   3.377
 4013TIP3   OH212002   5.438   6.529   4.226
 4013TIP3    H112003   5.477   6.491   4.148
 4013TIP3    H212004   5.492   6.606   4.245
 4014TIP3   OH212005   2.972   4.592   0.442
 4014TIP3    H112006   3.056   4.597   0.486
 4014TIP3    H212007   2.933   4.511   0.474
 4015TIP3   OH212008   3.240   5.488   0.834
 4015TIP3    H112009   3.150   5.457   0.823
 4015TIP3    H212010   3.238   5.579   0.804
 4016TIP3   OH212011   5.514   5.968   2.799
 4016TIP3    H112012   5.607   5.967   2.776
 4016TIP3    H212013   5.469   5.969   2.714
 4017TIP3   OH212014   1.448   2.621   3.305
 4017TIP3    H112015   1.432   2.714   3.319
 4017TIP3    H212016   1.491   2.591   3.386
 4018TIP3   OH212017   2.067   1.059   1.771
 4018TIP3    H112018   1.974   1.049   1.751
 4018TIP3    H212019   2.100   1.117   1.703
 4019TIP3   OH212020   6.561   0.174   0.154
 4019TIP3    H112021   6.566   0.222   0.236
 4019TIP3    H212022   6.619   0.222   0.095
 4020TIP3   OH212023   5.820   1.793   0.821
 4020TIP3    H112024   5.759   1.805   0.895
 4020TIP3    H212025   5.899   1.839   0.848
 4021TIP3   OH212026   1.358   2.829   3.649
 4021TIP3    H112027   1.437   2.790   3.611
 4021TIP3    H212028   1.325   2.887   3.580
 4022TIP3   OH212029   6.147   5.431   3.893
 4022TIP3    H112030   6.117   5.371   3.962
 4022TIP3    H212031   6.088   5.414   3.820
 4023TIP3   OH212032   4.299   6.605   4.459
 4023TIP3    H112033   4.220   6.555   4.436
 4023TIP3    H212034   4.268   6.671   4.520
 4024TIP3   OH212035   5.370   0.399   3.412
 4024TIP3    H112036   5.354   0.487   3.445
 4024TIP3    H212037   5.284   0.370   3.381
 4025TIP3   OH212038   2.068   1.121   5.806
 4025TIP3    H112039   2.163   1.122   5.821
 4025TIP3    H212040   2.031   1.084   5.886
 4026TIP3   OH212041   1.337   1.843   5.727
 4026TIP3    H112042   1.275   1.904   5.768
 4026TIP3    H212043   1.295   1.758   5.734
 4027TIP3   OH212044   0.386   4.193   2.242
 4027TIP3    H112045   0.418   4.281   2.220
 4027TIP3    H212046   0.361   4.200   2.334
 4028TIP3   OH212047   3.028   3.025   1.056
 4028TIP3    H112048   3.116   3.030   1.094
 4028TIP3    H212049   2.974   2.987   1.125
 4029TIP3   OH212050   4.360   2.237   4.181
 4029TIP3    H112051   4.376   2.330   4.198
 4029TIP3    H212052   4.440   2.206   4.139
 4030TIP3   OH212053   0.544   2.210   1.315
 4030TIP3    H112054   0.494   2.130   1.297
 4030TIP3    H212055   0.482   2.281   1.300
 4031TIP3   OH212056   6.923   1.016   2.083
 4031TIP3    H112057   6.917   1.056   1.996
 4031TIP3    H212058   6.890   1.083   2.143
 4032TIP3   OH212059   0.814   4.828   1.895
 4032TIP3    H112060   0.816   4.923   1.908
 4032TIP3    H212061   0.796   4.817   1.802
 4033TIP3   OH212062   0.213   3.536   4.409
 4033TIP3    H112063   0.127   3.493   4.414
 4033TIP3    H212064   0.271   3.471   4.370
 4034TIP3   OH212065   3.731   3.592   3.648
 4034TIP3    H112066   3.717   3.526   3.716
 4034TIP3    H212067   3.647   3.638   3.642
 4035TIP3   OH212068   2.226   4.889   4.811
 4035TIP3    H112069   2.132   4.903   4.820
 4035TIP3    H212070   2.261   4.976   4.790
 4036TIP3   OH212071   6.782   5.132   3.394
 4036TIP3    H112072   6.842   5.058   3.406
 4036TIP3    H212073   6.803   5.192   3.466
 4037TIP3   OH212074   0.902   1.833   1.005
 4037TIP3    H112075   0.980   1.830   0.950
 4037TIP3    H212076   0.835   1.786   0.955
 4038TIP3   OH212077   2.843   1.695   1.452
 4038TIP3    H112078   2.906   1.759   1.485
 4038TIP3    H212079   2.792   1.744   1.387
 4039TIP3   OH212080   4.618   0.258   0.544
 4039TIP3    H112081   4.645   0.167   0.535
 4039TIP3    H212082   4.655   0.286   0.628
 4040TIP3   OH212083   0.872   2.915   0.709
 4040TIP3    H112084   0.879   2.949   0.798
 4040TIP3    H212085   0.841   2.825   0.721
 4041TIP3   OH212086   5.829   1.889   1.777
 4041TIP3    H112087   5.763   1.833   1.736
 4041TIP3    H212088   5.791   1.913   1.861
 4042TIP3   OH212089   3.372   5.786   2.268
 4042TIP3    H112090   3.433   5.730   2.316
 4042TIP3    H212091   3.304   5.807   2.332
 4043TIP3   OH212092   1.736   1.952   3.069
 4043TIP3    H112093   1.743   1.964   2.975
 4043TIP3    H212094   1.824   1.931   3.098
 4044TIP3   OH212095   6.887   4.050   4.761
 4044TIP3    H112096   6.891   4.044   4.666
 4044TIP3    H212097   6.796   4.069   4.781
 4045TIP3   OH212098   6.652   5.112   4.910
 4045TIP3    H112099   6.677   5.193   4.865
 4045TIP3    H212100   6.614   5.057   4.842
 4046TIP3   OH212101   3.401   0.710   5.211
 4046TIP3    H112102   3.341   0.679   5.279
 4046TIP3    H212103   3.486   0.676   5.237
 4047TIP3   OH212104   1.600   2.311   0.719
 4047TIP3    H112105   1.544   2.316   0.642
 4047TIP3    H212106   1.612   2.217   0.734
 4048TIP3   OH212107   1.315   5.070   4.414
 4048TIP3    H112108   1.368   5.112   4.482
 4048TIP3    H212109   1.237   5.040   4.460
 4049TIP3   OH212110   5.502   3.848   4.796
 4049TIP3    H112111   5.444   3.772   4.787
 4049TIP3    H212112   5.587   3.816   4.767
 4050TIP3   OH212113   6.514   3.489   3.895
 4050TIP3    H112114   6.449   3.490   3.965
 4050TIP3    H212115   6.548   3.400   3.895
 4051TIP3   OH212116   6.156   5.106   4.657
 4051TIP3    H112117   6.243   5.068   4.668
 4051TIP3    H212118   6.164   5.195   4.692
 4052TIP3   OH212119   6.543   3.286   0.447
 4052TIP3    H112120   6.514   3.212   0.393
 4052TIP3    H212121   6.480   3.289   0.519
 4053TIP3   OH212122   0.322   3.440   0.150
 4053TIP3    H112123   0.409   3.402   0.155
 4053TIP3    H212124   0.328   3.521   0.201
 4054TIP3   OH212125   1.192   1.961   1.467
 4054TIP3    H112126   1.276   1.932   1.431
 4054TIP3    H212127   1.196   2.056   1.464
 4055TIP3   OH212128   6.880   0.581   0.311
 4055TIP3    H112129   6.965   0.604   0.347
 4055TIP3    H212130   6.842   0.521   0.375
 4056TIP3   OH212131   5.950   5.973   5.480
 4056TIP3    H112132   6.005   5.928   5.544
 4056TIP3    H212133   5.919   5.904   5.422
 4057TIP3   OH212134   2.847   5.404   3.328
 4057TIP3    H112135   2.864   5.496   3.305
 4057TIP3    H212136   2.926   5.377   3.376
 4058TIP3   OH212137   2.980   5.567   5.512
 4058TIP3    H112138   3.051   5.515   5.476
 4058TIP3    H212139   2.976   5.542   5.605
 4059TIP3   OH212140   4.418   2.600   5.406
 4059TIP3    H112141   4.372   2.522   5.373
 4059TIP3    H212142   4.372   2.621   5.487
 4060TIP3   OH212143   4.317   6.769   0.789
 4060TIP3    H112144   4.242   6.722   0.825
 4060TIP3    H212145   4.380   6.700   0.766
 4061TIP3   OH212146   2.211   0.886   4.521
 4061TIP3    H112147   2.304   0.904   4.506
 4061TIP3    H212148   2.166   0.959   4.477
 4062TIP3   OH212149   3.484   3.800   4.791
 4062TIP3    H112150   3.520   3.787   4.704
 4062TIP3    H212151   3.554   3.774   4.851
 4063TIP3   OH212152   7.025   3.345   1.207
 4063TIP3    H112153   6.957   3.334   1.141
 4063TIP3    H212154   7.036   3.258   1.245
 4064TIP3   OH212155   2.321   0.801   2.568
 4064TIP3    H112156   2.304   0.708   2.549
 4064TIP3    H212157   2.392   0.824   2.507
 4065TIP3   OH212158   3.541   2.671   2.102
 4065TIP3    H112159   3.470   2.646   2.161
 4065TIP3    H212160   3.510   2.750   2.058
 4066TIP3   OH212161   5.737   4.777   2.855
 4066TIP3    H112162   5.739   4.743   2.765
 4066TIP3    H212163   5.784   4.712   2.907
 4067TIP3   OH212164   1.483   2.868   0.655
 4067TIP3    H112165   1.426   2.791   0.651
 4067TIP3    H212166   1.569   2.835   0.628
 4068TIP3   OH212167   3.243   5.603   5.242
 4068TIP3    H112168   3.253   5.514   5.276
 4068TIP3    H212169   3.165   5.599   5.187
 4069TIP3   OH212170   1.953   4.764   5.769
 4069TIP3    H112171   2.035   4.767   5.719
 4069TIP3    H212172   1.894   4.821   5.720
 4070TIP3   OH212173   3.114   3.062   1.609
 4070TIP3    H112174   3.085   3.145   1.572
 4070TIP3    H212175   3.209   3.064   1.602
 4071TIP3   OH212176   1.964   4.990   1.963
 4071TIP3    H112177   1.890   5.022   2.015
 4071TIP3    H212178   2.003   5.069   1.926
 4072TIP3   OH212179   5.244   4.445   1.545
 4072TIP3    H112180   5.319   4.455   1.486
 4072TIP3    H212181   5.213   4.534   1.559
 4073TIP3   OH212182   7.092   0.131   0.782
 4073TIP3    H112183   7.072   0.109   0.873
 4073TIP3    H212184   7.007   0.149   0.743
 4074TIP3   OH212185   1.804   1.482   4.620
 4074TIP3    H112186   1.731   1.422   4.607
 4074TIP3    H212187   1.821   1.518   4.532
 4075TIP3   OH212188   1.633   6.350   3.316
 4075TIP3    H112189   1.670   6.391   3.238
 4075TIP3    H212190   1.541   6.335   3.293
 4076TIP3   OH212191   5.014   3.459   0.009
 4076TIP3    H112192   4.998   3.440   0.101
 4076TIP3    H212193   4.993   3.378  -0.036
 4077TIP3   OH212194   2.168   0.392   5.160
 4077TIP3    H112195   2.160   0.483   5.187
 4077TIP3    H212196   2.095   0.378   5.100
 4078TIP3   OH212197   0.281   5.030   5.085
 4078TIP3    H112198   0.290   5.073   5.170
 4078TIP3    H212199   0.197   4.984   5.090
 4079TIP3   OH212200   5.177   1.783   0.011
 4079TIP3    H112201   5.219   1.710   0.055
 4079TIP3    H212202   5.106   1.743  -0.040
 4080TIP3   OH212203   0.796   1.482   0.141
 4080TIP3    H112204   0.809   1.416   0.209
 4080TIP3    H212205   0.797   1.432   0.059
 4081TIP3   OH212206   1.601  -0.014   4.467
 4081TIP3    H112207   1.573  -0.012   4.559
 4081TIP3    H212208   1.665   0.057   4.459
 4082TIP3   OH212209   1.176   4.948   5.165
 4082TIP3    H112210   1.095   4.927   5.212
 4082TIP3    H212211   1.167   4.902   5.081
 4083TIP3   OH212212   3.536   1.917   5.787
 4083TIP3    H112213   3.561   1.832   5.825
 4083TIP3    H212214   3.515   1.896   5.696
 4084TIP3   OH212215   7.097   4.913   4.835
 4084TIP3    H112216   7.027   4.859   4.871
 4084TIP3    H212217   7.154   4.931   4.910
 4085TIP3   OH212218   6.022   5.898   1.084
 4085TIP3    H112219   6.090   5.833   1.064
 4085TIP3    H212220   6.068   5.964   1.137
 4086TIP3   OH212221   1.195   1.609   5.384
 4086TIP3    H112222   1.110   1.566   5.389
 4086TIP3    H212223   1.259   1.538   5.383
 4087TIP3   OH212224   5.562   0.442   3.922
 4087TIP3    H112225   5.638   0.406   3.876
 4087TIP3    H212226   5.574   0.537   3.915
 4088TIP3   OH212227   0.374   0.323   3.378
 4088TIP3    H112228   0.304   0.294   3.320
 4088TIP3    H212229   0.332   0.387   3.435
 4089TIP3   OH212230   6.601   2.950   1.917
 4089TIP3    H112231   6.589   2.856   1.929
 4089TIP3    H212232   6.522   2.979   1.872
 4090TIP3   OH212233   4.178   5.263   0.384
 4090TIP3    H112234   4.214   5.205   0.451
 4090TIP3    H212235   4.117   5.209   0.334
 4091TIP3   OH212236   4.086   1.491   5.682
 4091TIP3    H112237   4.126   1.413   5.721
 4091TIP3    H212238   3.993   1.484   5.703
 4092TIP3   OH212239   2.178   3.682   3.500
 4092TIP3    H112240   2.160   3.764   3.455
 4092TIP3    H212241   2.273   3.672   3.493
 4093TIP3   OH212242   1.269   6.393   4.238
 4093TIP3    H112243   1.319   6.383   4.157
 4093TIP3    H212244   1.189   6.438   4.211
 4094TIP3   OH212245   0.016   3.877   1.413
 4094TIP3    H112246   0.100   3.832   1.423
 4094TIP3    H212247   0.037   3.970   1.422
 4095TIP3   OH212248   5.855   2.822   5.690
 4095TIP3    H112249   5.903   2.880   5.749
 4095TIP3    H212250   5.924   2.778   5.640
 4096TIP3   OH212251   4.493   1.676   5.799
 4096TIP3    H112252   4.411   1.674   5.848
 4096TIP3    H212253   4.479   1.742   5.731
 4097TIP3   OH212254   5.049   5.015   5.844
 4097TIP3    H112255   4.986   5.085   5.859
 4097TIP3    H212256   5.035   4.954   5.916
 4098TIP3   OH212257   0.374   5.564   3.627
 4098TIP3    H112258   0.284   5.536   3.645
 4098TIP3    H212259   0.372   5.593   3.536
 4099TIP3   OH212260   6.094   2.792   1.460
 4099TIP3    H112261   6.046   2.873   1.480
 4099TIP3    H212262   6.174   2.799   1.513
 4100TIP3   OH212263   0.856   0.025   5.155
 4100TIP3    H112264   0.817  -0.057   5.184
 4100TIP3    H212265   0.784   0.088   5.157
 4101TIP3   OH212266   1.609   0.188   1.559
 4101TIP3    H112267   1.576   0.199   1.649
 4101TIP3    H212268   1.644   0.099   1.557
 4102TIP3   OH212269   4.862   5.957   1.517
 4102TIP3    H112270   4.772   5.925   1.520
 4102TIP3    H212271   4.876   5.980   1.425
 4103TIP3   OH212272   1.289   5.232   0.164
 4103TIP3    H112273   1.207   5.254   0.120
 4103TIP3    H212274   1.265   5.167   0.230
 4104TIP3   OH212275   5.127   0.778   5.015
 4104TIP3    H112276   5.136   0.847   5.080
 4104TIP3    H212277   5.093   0.823   4.937
 4105TIP3   OH212278   6.799   1.311   2.944
 4105TIP3    H112279   6.843   1.230   2.971
 4105TIP3    H212280   6.796   1.364   3.024
 4106TIP3   OH212281   1.995   1.779   5.007
 4106TIP3    H112282   2.088   1.773   4.987
 4106TIP3    H212283   1.983   1.724   5.085
 4107TIP3   OH212284   0.202   5.552   4.362
 4107TIP3    H112285   0.273   5.591   4.311
 4107TIP3    H212286   0.126   5.607   4.344
 4108TIP3   OH212287   3.643   5.073   4.943
 4108TIP3    H112288   3.735   5.047   4.940
 4108TIP3    H212289   3.601   5.009   5.000
 4109TIP3   OH212290   0.812   0.308   4.854
 4109TIP3    H112291   0.718   0.325   4.855
 4109TIP3    H212292   0.841   0.335   4.767
 4110TIP3   OH212293   5.029   4.831   5.604
 4110TIP3    H112294   5.014   4.855   5.695
 4110TIP3    H212295   5.018   4.736   5.602
 4111TIP3   OH212296   2.067   1.267   2.273
 4111TIP3    H112297   2.112   1.193   2.232
 4111TIP3    H212298   2.116   1.283   2.353
 4112TIP3   OH212299   3.160   2.246   2.373
 4112TIP3    H112300   3.128   2.185   2.440
 4112TIP3    H212301   3.081   2.286   2.337
 4113TIP3   OH212302   5.296   1.837   5.073
 4113TIP3    H112303   5.322   1.795   5.155
 4113TIP3    H212304   5.266   1.765   5.018
 4114TIP3   OH212305   2.860   0.561   4.517
 4114TIP3    H112306   2.824   0.645   4.547
 4114TIP3    H212307   2.871   0.509   4.596
 4115TIP3   OH212308   7.149   3.034   2.779
 4115TIP3    H112309   7.089   3.076   2.718
 4115TIP3    H212310   7.142   2.941   2.760
 4116TIP3   OH212311   1.682   5.492   0.234
 4116TIP3    H112312   1.651   5.401   0.231
 4116TIP3    H212313   1.604   5.545   0.221
 4117TIP3   OH212314   5.670   2.186   5.740
 4117TIP3    H112315   5.693   2.094   5.732
 4117TIP3    H212316   5.680   2.221   5.651
 4118TIP3   OH212317   3.946   3.313   0.367
 4118TIP3    H112318   3.885   3.249   0.404
 4118TIP3    H212319   3.974   3.365   0.443
 4119TIP3   OH212320   3.099   3.680   4.644
 4119TIP3    H112321   3.052   3.604   4.680
 4119TIP3    H212322   3.192   3.659   4.658
 4120TIP3   OH212323   4.691   4.386   4.463
 4120TIP3    H112324   4.730   4.304   4.491
 4120TIP3    H212325   4.643   4.364   4.383
 4121TIP3   OH212326   3.477   1.375   5.090
 4121TIP3    H112327   3.394   1.343   5.125
 4121TIP3    H212328   3.541   1.310   5.117
 4122TIP3   OH212329   6.368   6.023   2.771
 4122TIP3    H112330   6.288   6.072   2.751
 4122TIP3    H212331   6.341   5.931   2.765
 4123TIP3   OH212332   1.950   3.391   1.036
 4123TIP3    H112333   1.894   3.468   1.034
 4123TIP3    H212334   1.913   3.332   0.970
 4124TIP3   OH212335   1.780   2.777   2.400
 4124TIP3    H112336   1.821   2.691   2.413
 4124TIP3    H212337   1.696   2.771   2.445
 4125TIP3   OH212338   4.960   2.001   0.536
 4125TIP3    H112339   5.009   2.020   0.455
 4125TIP3    H212340   4.964   2.082   0.586
 4126TIP3   OH212341   5.975   3.966   0.103
 4126TIP3    H112342   6.023   4.029   0.156
 4126TIP3    H212343   5.950   4.015   0.025
 4127TIP3   OH212344   1.270   5.620   3.264
 4127TIP3    H112345   1.274   5.712   3.287
 4127TIP3    H212346   1.361   5.592   3.259
 4128TIP3   OH212347   2.945   0.043   1.113
 4128TIP3    H112348   3.015  -0.018   1.136
 4128TIP3    H212349   2.977   0.128   1.143
 4129TIP3   OH212350   4.113   2.989   3.573
 4129TIP3    H112351   4.151   3.002   3.660
 4129TIP3    H212352   4.178   3.026   3.514
 4130TIP3   OH212353   5.826   5.858   4.683
 4130TIP3    H112354   5.818   5.887   4.592
 4130TIP3    H212355   5.886   5.783   4.679
 4131TIP3   OH212356   5.570   0.729   4.420
 4131TIP3    H112357   5.613   0.778   4.491
 4131TIP3    H212358   5.584   0.637   4.442
 4132TIP3   OH212359   5.178   6.580   2.366
 4132TIP3    H112360   5.176   6.491   2.331
 4132TIP3    H212361   5.090   6.593   2.403
 4133TIP3   OH212362   3.376   5.384   2.034
 4133TIP3    H112363   3.425   5.422   2.108
 4133TIP3    H212364   3.406   5.434   1.958
 4134TIP3   OH212365   1.517   5.235   5.295
 4134TIP3    H112366   1.590   5.174   5.298
 4134TIP3    H212367   1.439   5.180   5.297
 4135TIP3   OH212368   5.172   0.333   4.870
 4135TIP3    H112369   5.106   0.393   4.904
 4135TIP3    H212370   5.184   0.268   4.940
 4136TIP3   OH212371   4.809   3.496   1.434
 4136TIP3    H112372   4.752   3.509   1.510
 4136TIP3    H212373   4.868   3.425   1.461
 4137TIP3   OH212374   6.342   5.949   3.584
 4137TIP3    H112375   6.354   5.855   3.572
 4137TIP3    H212376   6.264   5.957   3.639
 4138TIP3   OH212377   0.368   1.998   3.028
 4138TIP3    H112378   0.272   1.993   3.033
 4138TIP3    H212379   0.391   2.070   3.087
 4139TIP3   OH212380   4.926   5.264   0.022
 4139TIP3    H112381   4.973   5.304  -0.050
 4139TIP3    H212382   4.870   5.198  -0.020
 4140TIP3   OH212383   3.017   2.800   3.820
 4140TIP3    H112384   2.989   2.713   3.850
 4140TIP3    H212385   3.039   2.847   3.900
 4141TIP3   OH212386   0.631   0.475   0.348
 4141TIP3    H112387   0.562   0.410   0.347
 4141TIP3    H212388   0.653   0.487   0.440
 4142TIP3   OH212389   1.093   3.981   3.007
 4142TIP3    H112390   1.041   3.985   2.926
 4142TIP3    H212391   1.029   3.962   3.076
 4143TIP3   OH212392   4.309   6.619   5.005
 4143TIP3    H112393   4.261   6.555   4.952
 4143TIP3    H212394   4.309   6.582   5.093
 4144TIP3   OH212395   4.378   5.048   3.807
 4144TIP3    H112396   4.364   4.966   3.854
 4144TIP3    H212397   4.300   5.100   3.827
 4145TIP3   OH212398   3.907   1.313   1.755
 4145TIP3    H112399   3.818   1.333   1.784
 4145TIP3    H212400   3.900   1.310   1.659
 4146TIP3   OH212401   5.301   2.103   5.774
 4146TIP3    H112402   5.270   2.143   5.855
 4146TIP3    H212403   5.243   2.028   5.761
 4147TIP3   OH212404   2.019   6.364   4.082
 4147TIP3    H112405   2.103   6.368   4.037
 4147TIP3    H212406   1.955   6.390   4.016
 4148TIP3   OH212407   5.579   6.502   4.647
 4148TIP3    H112408   5.564   6.460   4.732
 4148TIP3    H212409   5.517   6.575   4.645
 4149TIP3   OH212410   6.747   0.549   4.352
 4149TIP3    H112411   6.663   0.505   4.335
 4149TIP3    H212412   6.723   0.627   4.402
 4150TIP3   OH212413   5.727   0.698   1.401
 4150TIP3    H112414   5.762   0.779   1.440
 4150TIP3    H212415   5.671   0.728   1.330
 4151TIP3   OH212416   5.301   6.539   0.352
 4151TIP3    H112417   5.311   6.613   0.411
 4151TIP3    H212418   5.376   6.483   0.370
 4152TIP3   OH212419   2.227   1.366   5.646
 4152TIP3    H112420   2.205   1.318   5.726
 4152TIP3    H212421   2.219   1.458   5.670
 4153TIP3   OH212422   4.618   2.940   4.357
 4153TIP3    H112423   4.613   2.866   4.296
 4153TIP3    H212424   4.590   2.902   4.441
 4154TIP3   OH212425   4.589   5.855   0.160
 4154TIP3    H112426   4.511   5.866   0.106
 4154TIP3    H212427   4.592   5.761   0.179
 4155TIP3   OH212428   4.850   2.952   0.819
 4155TIP3    H112429   4.942   2.926   0.822
 4155TIP3    H212430   4.802   2.874   0.844
 4156TIP3   OH212431   2.213   6.556   3.529
 4156TIP3    H112432   2.163   6.508   3.464
 4156TIP3    H212433   2.199   6.508   3.611
 4157TIP3   OH212434   7.055   6.113   5.726
 4157TIP3    H112435   6.984   6.083   5.671
 4157TIP3    H212436   7.126   6.050   5.711
 4158TIP3   OH212437   2.730   4.936   4.376
 4158TIP3    H112438   2.766   5.020   4.402
 4158TIP3    H212439   2.652   4.925   4.429
 4159TIP3   OH212440   0.773   2.897   1.696
 4159TIP3    H112441   0.756   2.990   1.709
 4159TIP3    H212442   0.727   2.854   1.769
 4160TIP3   OH212443   0.876   3.953   4.437
 4160TIP3    H112444   0.799   4.003   4.409
 4160TIP3    H212445   0.905   3.996   4.517
 4161TIP3   OH212446   2.226   6.178   5.430
 4161TIP3    H112447   2.233   6.154   5.338
 4161TIP3    H212448   2.217   6.273   5.430
 4162TIP3   OH212449   5.692   4.130   5.268
 4162TIP3    H112450   5.616   4.075   5.249
 4162TIP3    H212451   5.701   4.126   5.363
 4163TIP3   OH212452   7.235   6.163   0.035
 4163TIP3    H112453   7.179   6.198  -0.034
 4163TIP3    H212454   7.322   6.198   0.015
 4164TIP3   OH212455   3.801   6.530   5.456
 4164TIP3    H112456   3.864   6.589   5.497
 4164TIP3    H212457   3.763   6.481   5.529
 4165TIP3   OH212458   4.187   4.770   3.481
 4165TIP3    H112459   4.239   4.850   3.493
 4165TIP3    H212460   4.196   4.750   3.388
 4166TIP3   OH212461   4.397   3.220   5.783
 4166TIP3    H112462   4.389   3.163   5.707
 4166TIP3    H212463   4.320   3.201   5.836
 4167TIP3   OH212464   6.907   2.317  -0.008
 4167TIP3    H112465   6.972   2.359   0.048
 4167TIP3    H212466   6.947   2.234  -0.033
 4168TIP3   OH212467   1.482   0.988   3.350
 4168TIP3    H112468   1.488   1.075   3.389
 4168TIP3    H212469   1.501   0.928   3.423
 4169TIP3   OH212470   6.809   6.296   4.006
 4169TIP3    H112471   6.838   6.247   4.084
 4169TIP3    H212472   6.790   6.384   4.039
 4170TIP3   OH212473   5.584   3.767   0.709
 4170TIP3    H112474   5.632   3.844   0.738
 4170TIP3    H212475   5.521   3.750   0.780
 4171TIP3   OH212476   3.199   2.480   3.771
 4171TIP3    H112477   3.213   2.450   3.860
 4171TIP3    H212478   3.281   2.521   3.745
 4172TIP3   OH212479   5.467   1.428   1.859
 4172TIP3    H112480   5.399   1.496   1.858
 4172TIP3    H212481   5.521   1.449   1.934
 4173TIP3   OH212482   1.368   2.139   3.418
 4173TIP3    H112483   1.463   2.136   3.430
 4173TIP3    H212484   1.347   2.056   3.375
 4174TIP3   OH212485   6.162   1.033  -0.012
 4174TIP3    H112486   6.131   1.067   0.072
 4174TIP3    H212487   6.172   0.939   0.002
 4175TIP3   OH212488   6.062   1.556   2.001
 4175TIP3    H112489   6.063   1.509   1.917
 4175TIP3    H212490   5.983   1.524   2.045
 4176TIP3   OH212491   6.567   1.414   5.694
 4176TIP3    H112492   6.545   1.499   5.656
 4176TIP3    H212493   6.491   1.359   5.674
 4177TIP3   OH212494   5.131   1.594   0.360
 4177TIP3    H112495   5.186   1.545   0.299
 4177TIP3    H212496   5.053   1.617   0.309
 4178TIP3   OH212497   1.239   1.008   0.679
 4178TIP3    H112498   1.235   0.923   0.723
 4178TIP3    H212499   1.296   1.061   0.735
 4179TIP3   OH212500   1.881   4.570   1.871
 4179TIP3    H112501   1.956   4.618   1.837
 4179TIP3    H212502   1.854   4.620   1.948
 4180TIP3   OH212503   1.582   6.493   1.851
 4180TIP3    H112504   1.609   6.585   1.849
 4180TIP3    H212505   1.551   6.479   1.940
 4181TIP3   OH212506   7.126   3.410   1.800
 4181TIP3    H112507   7.103   3.330   1.753
 4181TIP3    H212508   7.170   3.465   1.735
 4182TIP3   OH212509   2.231   0.823   5.568
 4182TIP3    H112510   2.209   0.886   5.500
 4182TIP3    H212511   2.152   0.771   5.580
 4183TIP3   OH212512   2.892   5.124   0.217
 4183TIP3    H112513   2.974   5.081   0.241
 4183TIP3    H212514   2.914   5.216   0.209
 4184TIP3   OH212515   0.105   3.258   0.627
 4184TIP3    H112516   0.051   3.194   0.580
 4184TIP3    H212517   0.161   3.296   0.560
 4185TIP3   OH212518   6.387   5.465   1.905
 4185TIP3    H112519   6.303   5.450   1.948
 4185TIP3    H212520   6.438   5.515   1.969
 4186TIP3   OH212521   4.944   4.281   4.934
 4186TIP3    H112522   5.033   4.285   4.899
 4186TIP3    H212523   4.931   4.189   4.956
 4187TIP3   OH212524   1.609   2.232   4.368
 4187TIP3    H112525   1.638   2.142   4.352
 4187TIP3    H212526   1.650   2.256   4.451
 4188TIP3   OH212527   7.135   0.164   3.372
 4188TIP3    H112528   7.196   0.216   3.321
 4188TIP3    H212529   7.073   0.227   3.408
 4189TIP3   OH212530   0.453   3.306   3.204
 4189TIP3    H112531   0.403   3.235   3.245
 4189TIP3    H212532   0.543   3.275   3.206
 4190TIP3   OH212533   4.533   4.029   1.793
 4190TIP3    H112534   4.479   4.002   1.719
 4190TIP3    H212535   4.550   4.122   1.778
 4191TIP3   OH212536   3.823   4.664   0.130
 4191TIP3    H112537   3.804   4.613   0.051
 4191TIP3    H212538   3.766   4.626   0.197
 4192TIP3   OH212539   1.625   1.563   5.767
 4192TIP3    H112540   1.532   1.541   5.763
 4192TIP3    H212541   1.632   1.625   5.839
 4193TIP3   OH212542   4.533   1.817   5.548
 4193TIP3    H112543   4.558   1.746   5.489
 4193TIP3    H212544   4.451   1.850   5.512
 4194TIP3   OH212545   4.922   5.383   3.283
 4194TIP3    H112546   4.995   5.439   3.310
 4194TIP3    H212547   4.849   5.411   3.338
 4195TIP3   OH212548   6.842   4.607   4.159
 4195TIP3    H112549   6.760   4.569   4.191
 4195TIP3    H212550   6.906   4.586   4.228
 4196TIP3   OH212551   6.385   1.744   3.072
 4196TIP3    H112552   6.479   1.731   3.083
 4196TIP3    H212553   6.372   1.838   3.084
 4197TIP3   OH212554   3.808   4.193   5.160
 4197TIP3    H112555   3.773   4.282   5.157
 4197TIP3    H212556   3.864   4.192   5.237
 4198TIP3   OH212557   0.248   3.849   3.810
 4198TIP3    H112558   0.243   3.777   3.747
 4198TIP3    H212559   0.288   3.921   3.761
 4199TIP3   OH212560   3.030   5.557   1.767
 4199TIP3    H112561   3.076   5.591   1.691
 4199TIP3    H212562   2.960   5.621   1.784
 4200TIP3   OH212563   1.757   2.345   2.889
 4200TIP3    H112564   1.848   2.349   2.919
 4200TIP3    H212565   1.706   2.334   2.970
 4201TIP3   OH212566   6.653   0.206   4.305
 4201TIP3    H112567   6.581   0.268   4.317
 4201TIP3    H212568   6.685   0.189   4.394
 4202TIP3   OH212569   5.231   5.807   5.617
 4202TIP3    H112570   5.223   5.764   5.532
 4202TIP3    H212571   5.177   5.886   5.609
 4203TIP3   OH212572   6.977   2.456   2.174
 4203TIP3    H112573   7.053   2.514   2.184
 4203TIP3    H212574   6.937   2.454   2.260
 4204TIP3   OH212575   5.232   3.108   2.302
 4204TIP3    H112576   5.247   3.150   2.387
 4204TIP3    H212577   5.153   3.055   2.315
 4205TIP3   OH212578   3.147   1.171   5.578
 4205TIP3    H112579   3.171   1.122   5.657
 4205TIP3    H212580   3.107   1.252   5.612
 4206TIP3   OH212581   2.402   1.078   3.555
 4206TIP3    H112582   2.407   1.074   3.651
 4206TIP3    H212583   2.388   0.988   3.528
 4207TIP3   OH212584   0.787   4.503   5.792
 4207TIP3    H112585   0.721   4.473   5.855
 4207TIP3    H212586   0.736   4.546   5.723
 4208TIP3   OH212587   5.080   3.085   1.173
 4208TIP3    H112588   5.071   3.179   1.186
 4208TIP3    H212589   4.990   3.051   1.181
 4209TIP3   OH212590   3.116   5.474   3.764
 4209TIP3    H112591   3.078   5.423   3.835
 4209TIP3    H212592   3.200   5.505   3.799
 4210TIP3   OH212593   2.162   3.737   2.213
 4210TIP3    H112594   2.132   3.727   2.303
 4210TIP3    H212595   2.213   3.658   2.195
 4211TIP3   OH212596   5.021   3.645   3.413
 4211TIP3    H112597   4.977   3.589   3.477
 4211TIP3    H212598   4.982   3.621   3.329
 4212TIP3   OH212599   4.051   6.471   1.690
 4212TIP3    H112600   3.986   6.540   1.675
 4212TIP3    H212601   4.093   6.458   1.605
 4213TIP3   OH212602   2.170   5.952   4.384
 4213TIP3    H112603   2.241   6.009   4.354
 4213TIP3    H212604   2.151   5.897   4.309
 4214TIP3   OH212605   6.877   5.854   0.036
 4214TIP3    H112606   6.971   5.848   0.051
 4214TIP3    H212607   6.856   5.779  -0.020
 4215TIP3   OH212608   3.456   3.031   1.222
 4215TIP3    H112609   3.488   2.948   1.258
 4215TIP3    H212610   3.365   3.013   1.198
 4216TIP3   OH212611   5.303   0.305   5.696
 4216TIP3    H112612   5.326   0.213   5.687
 4216TIP3    H212613   5.382   0.346   5.731
 4217TIP3   OH212614   3.356   3.826   4.174
 4217TIP3    H112615   3.372   3.898   4.113
 4217TIP3    H212616   3.443   3.791   4.195
 4218TIP3   OH212617   1.786   4.593   4.864
 4218TIP3    H112618   1.838   4.620   4.940
 4218TIP3    H212619   1.749   4.509   4.890
 4219TIP3   OH212620   5.506   6.315   4.484
 4219TIP3    H112621   5.434   6.373   4.459
 4219TIP3    H212622   5.558   6.367   4.546
 4220TIP3   OH212623   3.034   2.989   2.094
 4220TIP3    H112624   3.042   2.899   2.061
 4220TIP3    H212625   3.123   3.015   2.116
 4221TIP3   OH212626   6.118   0.481   2.892
 4221TIP3    H112627   6.090   0.435   2.972
 4221TIP3    H212628   6.075   0.434   2.821
 4222TIP3   OH212629   1.369   6.559   5.123
 4222TIP3    H112630   1.289   6.611   5.114
 4222TIP3    H212631   1.348   6.475   5.083
 4223TIP3   OH212632   3.300   0.602   0.460
 4223TIP3    H112633   3.361   0.623   0.389
 4223TIP3    H212634   3.352   0.614   0.540
 4224TIP3   OH212635   4.314   0.026   1.608
 4224TIP3    H112636   4.256  -0.019   1.669
 4224TIP3    H212637   4.255   0.061   1.541
 4225TIP3   OH212638   1.383   2.444   4.472
 4225TIP3    H112639   1.339   2.467   4.390
 4225TIP3    H212640   1.464   2.495   4.470
 4226TIP3   OH212641   0.752   2.215   2.384
 4226TIP3    H112642   0.826   2.155   2.399
 4226TIP3    H212643   0.740   2.260   2.468
 4227TIP3   OH212644   5.803   0.451   1.588
 4227TIP3    H112645   5.771   0.384   1.528
 4227TIP3    H212646   5.789   0.533   1.543
 4228TIP3   OH212647   2.449   1.662   2.454
 4228TIP3    H112648   2.517   1.621   2.507
 4228TIP3    H212649   2.491   1.738   2.414
 4229TIP3   OH212650   1.219   2.574   4.693
 4229TIP3    H112651   1.292   2.551   4.636
 4229TIP3    H212652   1.183   2.654   4.654
 4230TIP3   OH212653   5.637   4.301   1.150
 4230TIP3    H112654   5.552   4.272   1.181
 4230TIP3    H212655   5.659   4.375   1.206
 4231TIP3   OH212656   5.555   1.624   0.178
 4231TIP3    H112657   5.631   1.661   0.134
 4231TIP3    H212658   5.587   1.545   0.221
 4232TIP3   OH212659   1.412   4.686   2.192
 4232TIP3    H112660   1.352   4.611   2.191
 4232TIP3    H212661   1.402   4.726   2.105
 4233TIP3   OH212662   1.192   3.835   2.015
 4233TIP3    H112663   1.112   3.873   2.050
 4233TIP3    H212664   1.162   3.772   1.949
 4234TIP3   OH212665   1.534   0.176   3.221
 4234TIP3    H112666   1.576   0.098   3.184
 4234TIP3    H212667   1.505   0.150   3.308
 4235TIP3   OH212668   2.055   2.705   5.704
 4235TIP3    H112669   2.113   2.630   5.688
 4235TIP3    H212670   2.063   2.759   5.626
 4236TIP3   OH212671   1.797   6.017   1.628
 4236TIP3    H112672   1.819   5.989   1.539
 4236TIP3    H212673   1.728   5.956   1.655
 4237TIP3   OH212674   3.458   1.201   3.800
 4237TIP3    H112675   3.403   1.246   3.735
 4237TIP3    H212676   3.526   1.265   3.821
 4238TIP3   OH212677   2.823   2.194   5.526
 4238TIP3    H112678   2.833   2.243   5.607
 4238TIP3    H212679   2.855   2.253   5.458
 4239TIP3   OH212680   6.970   2.086   4.557
 4239TIP3    H112681   6.881   2.049   4.557
 4239TIP3    H212682   7.009   2.053   4.638
 4240TIP3   OH212683   0.695   0.816   4.262
 4240TIP3    H112684   0.753   0.758   4.213
 4240TIP3    H212685   0.737   0.902   4.258
 4241TIP3   OH212686   7.267   6.205   5.085
 4241TIP3    H112687   7.250   6.112   5.073
 4241TIP3    H212688   7.228   6.246   5.008
 4242TIP3   OH212689   5.842   0.965   1.260
 4242TIP3    H112690   5.834   1.060   1.265
 4242TIP3    H212691   5.759   0.935   1.224
 4243TIP3   OH212692   3.816   2.396   4.308
 4243TIP3    H112693   3.773   2.467   4.355
 4243TIP3    H212694   3.813   2.424   4.216
 4244TIP3   OH212695   3.958   3.465   2.681
 4244TIP3    H112696   3.965   3.408   2.605
 4244TIP3    H212697   4.048   3.477   2.712
 4245TIP3   OH212698   6.751   4.383   4.308
 4245TIP3    H112699   6.752   4.305   4.251
 4245TIP3    H212700   6.816   4.365   4.375
 4246TIP3   OH212701   6.713   2.785   0.350
 4246TIP3    H112702   6.773   2.853   0.319
 4246TIP3    H212703   6.725   2.713   0.289
 4247TIP3   OH212704   4.293   2.801   4.287
 4247TIP3    H112705   4.257   2.713   4.294
 4247TIP3    H212706   4.280   2.840   4.373
 4248TIP3   OH212707   5.111   0.265   1.686
 4248TIP3    H112708   5.030   0.244   1.640
 4248TIP3    H212709   5.178   0.211   1.645
 4249TIP3   OH212710   6.649   3.086   5.271
 4249TIP3    H112711   6.697   3.049   5.346
 4249TIP3    H212712   6.711   3.082   5.199
 4250TIP3   OH212713   1.537   6.469   2.108
 4250TIP3    H112714   1.539   6.507   2.196
 4250TIP3    H212715   1.503   6.381   2.122
 4251TIP3   OH212716   4.122   6.702   3.790
 4251TIP3    H112717   4.114   6.664   3.702
 4251TIP3    H212718   4.159   6.632   3.843
 4252TIP3   OH212719   6.851   1.143   3.902
 4252TIP3    H112720   6.776   1.198   3.920
 4252TIP3    H212721   6.813   1.060   3.873
 4253TIP3   OH212722   7.138   0.167   2.553
 4253TIP3    H112723   7.203   0.234   2.532
 4253TIP3    H212724   7.113   0.130   2.469
 4254TIP3   OH212725   3.258   1.856   4.536
 4254TIP3    H112726   3.290   1.927   4.480
 4254TIP3    H212727   3.329   1.792   4.536
 4255TIP3   OH212728   1.839   4.284   5.644
 4255TIP3    H112729   1.810   4.315   5.730
 4255TIP3    H212730   1.803   4.348   5.582
 4256TIP3   OH212731   2.286   3.671   0.687
 4256TIP3    H112732   2.249   3.681   0.775
 4256TIP3    H212733   2.274   3.756   0.646
 4257TIP3   OH212734   2.759   0.032   4.288
 4257TIP3    H112735   2.755   0.126   4.307
 4257TIP3    H212736   2.735  -0.009   4.371
 4258TIP3   OH212737   4.536   6.534   5.594
 4258TIP3    H112738   4.494   6.562   5.513
 4258TIP3    H212739   4.465   6.532   5.658
 4259TIP3   OH212740   2.042   6.703   1.060
 4259TIP3    H112741   2.041   6.798   1.062
 4259TIP3    H212742   2.131   6.681   1.031
 4260TIP3   OH212743   1.972   1.737   2.714
 4260TIP3    H112744   1.976   1.829   2.686
 4260TIP3    H212745   1.969   1.688   2.633
 4261TIP3   OH212746   4.069   6.133   5.047
 4261TIP3    H112747   4.134   6.159   5.112
 4261TIP3    H212748   3.985   6.146   5.090
 4262TIP3   OH212749   1.029   4.860   3.879
 4262TIP3    H112750   0.971   4.860   3.803
 4262TIP3    H212751   1.054   4.768   3.889
 4263TIP3   OH212752   0.559   1.137   2.398
 4263TIP3    H112753   0.501   1.183   2.458
 4263TIP3    H212754   0.518   1.148   2.312
 4264TIP3   OH212755   6.172   4.465   2.347
 4264TIP3    H112756   6.106   4.531   2.325
 4264TIP3    H212757   6.157   4.395   2.284
 4265TIP3   OH212758   0.457   4.719   4.704
 4265TIP3    H112759   0.521   4.711   4.775
 4265TIP3    H212760   0.380   4.673   4.737
 4266TIP3   OH212761   4.957   0.948   0.053
 4266TIP3    H112762   4.947   1.002   0.132
 4266TIP3    H212763   4.976   1.011  -0.016
 4267TIP3   OH212764   2.405   4.385   5.643
 4267TIP3    H112765   2.485   4.341   5.615
 4267TIP3    H212766   2.364   4.323   5.703
 4268TIP3   OH212767   1.953   2.922   1.062
 4268TIP3    H112768   1.893   2.994   1.083
 4268TIP3    H212769   1.931   2.853   1.125
 4269TIP3   OH212770   2.834   6.288   0.507
 4269TIP3    H112771   2.802   6.206   0.546
 4269TIP3    H212772   2.759   6.348   0.513
 4270TIP3   OH212773   4.446   4.475   3.436
 4270TIP3    H112774   4.368   4.462   3.381
 4270TIP3    H212775   4.427   4.429   3.517
 4271TIP3   OH212776   7.082   0.668   2.723
 4271TIP3    H112777   7.102   0.618   2.643
 4271TIP3    H212778   7.085   0.602   2.793
 4272TIP3   OH212779   0.308   4.134   2.866
 4272TIP3    H112780   0.225   4.180   2.873
 4272TIP3    H212781   0.374   4.203   2.863
 4273TIP3   OH212782   4.639   2.115   4.461
 4273TIP3    H112783   4.715   2.084   4.412
 4273TIP3    H212784   4.566   2.063   4.427
 4274TIP3   OH212785   4.582   2.610   0.093
 4274TIP3    H112786   4.602   2.690   0.044
 4274TIP3    H212787   4.600   2.539   0.032
 4275TIP3   OH212788   3.920   4.942   3.154
 4275TIP3    H112789   3.930   4.848   3.142
 4275TIP3    H212790   3.977   4.963   3.228
 4276TIP3   OH212791   1.157   1.993   4.382
 4276TIP3    H112792   1.202   1.952   4.308
 4276TIP3    H212793   1.070   2.014   4.349
 4277TIP3   OH212794   2.655   0.050   3.265
 4277TIP3    H112795   2.617   0.041   3.178
 4277TIP3    H212796   2.691   0.139   3.267
 4278TIP3   OH212797   0.112   2.733   2.835
 4278TIP3    H112798   0.129   2.642   2.861
 4278TIP3    H212799   0.158   2.785   2.900
 4279TIP3   OH212800   3.649   4.360   5.828
 4279TIP3    H112801   3.683   4.410   5.903
 4279TIP3    H212802   3.578   4.308   5.865
 4280TIP3   OH212803   5.066   1.878   1.457
 4280TIP3    H112804   4.986   1.919   1.491
 4280TIP3    H212805   5.111   1.845   1.535
 4281TIP3   OH212806   4.626   2.679   2.408
 4281TIP3    H112807   4.629   2.741   2.336
 4281TIP3    H212808   4.679   2.721   2.477
 4282TIP3   OH212809   3.101   4.217   4.243
 4282TIP3    H112810   3.023   4.236   4.295
 4282TIP3    H212811   3.122   4.301   4.201
 4283TIP3   OH212812   6.752   5.362   4.745
 4283TIP3    H112813   6.752   5.377   4.650
 4283TIP3    H212814   6.830   5.308   4.760
 4284TIP3   OH212815   5.197   4.746   1.617
 4284TIP3    H112816   5.118   4.738   1.564
 4284TIP3    H212817   5.194   4.835   1.651
 4285TIP3   OH212818   2.353   2.339   5.380
 4285TIP3    H112819   2.295   2.266   5.360
 4285TIP3    H212820   2.409   2.307   5.450
 4286TIP3   OH212821   3.891   5.458   2.806
 4286TIP3    H112822   3.922   5.390   2.866
 4286TIP3    H212823   3.804   5.482   2.840
 4287TIP3   OH212824   3.648   2.963   2.321
 4287TIP3    H112825   3.680   3.005   2.241
 4287TIP3    H212826   3.725   2.956   2.377
 4288TIP3   OH212827   1.325   0.991   1.763
 4288TIP3    H112828   1.250   1.033   1.721
 4288TIP3    H212829   1.294   0.972   1.852
 4289TIP3   OH212830   3.345   2.089   1.907
 4289TIP3    H112831   3.313   2.149   1.840
 4289TIP3    H212832   3.268   2.066   1.959
 4290TIP3   OH212833   3.352   1.591   5.806
 4290TIP3    H112834   3.391   1.573   5.720
 4290TIP3    H212835   3.421   1.638   5.854
 4291TIP3   OH212836   4.143   1.639   4.958
 4291TIP3    H112837   4.065   1.689   4.979
 4291TIP3    H212838   4.176   1.679   4.877
 4292TIP3   OH212839   7.114   5.804   2.440
 4292TIP3    H112840   7.049   5.773   2.377
 4292TIP3    H212841   7.197   5.798   2.393
 4293TIP3   OH212842   3.460   2.408   2.980
 4293TIP3    H112843   3.516   2.430   2.905
 4293TIP3    H212844   3.499   2.454   3.054
 4294TIP3   OH212845   0.618   4.357   4.087
 4294TIP3    H112846   0.599   4.389   4.176
 4294TIP3    H212847   0.547   4.296   4.068
 4295TIP3   OH212848   4.230   0.691   3.529
 4295TIP3    H112849   4.277   0.720   3.608
 4295TIP3    H212850   4.299   0.670   3.467
 4296TIP3   OH212851   3.413   6.563   1.879
 4296TIP3    H112852   3.497   6.600   1.907
 4296TIP3    H212853   3.369   6.538   1.960
 4297TIP3   OH212854   6.933   0.197   2.921
 4297TIP3    H112855   6.925   0.203   3.016
 4297TIP3    H212856   6.844   0.187   2.889
 4298TIP3   OH212857   2.591   5.599   0.038
 4298TIP3    H112858   2.673   5.616  -0.007
 4298TIP3    H212859   2.610   5.525   0.096
 4299TIP3   OH212860   1.209   4.771   1.880
 4299TIP3    H112861   1.170   4.727   1.804
 4299TIP3    H212862   1.215   4.704   1.947
 4300TIP3   OH212863   1.796   2.586   3.979
 4300TIP3    H112864   1.739   2.662   3.994
 4300TIP3    H212865   1.742   2.511   4.006
 4301TIP3   OH212866   5.134   5.483   3.473
 4301TIP3    H112867   5.173   5.568   3.496
 4301TIP3    H212868   5.169   5.423   3.538
 4302TIP3   OH212869   5.857   2.243   1.736
 4302TIP3    H112870   5.808   2.192   1.671
 4302TIP3    H212871   5.793   2.264   1.803
 4303TIP3   OH212872   2.492   0.052   2.509
 4303TIP3    H112873   2.419   0.061   2.448
 4303TIP3    H212874   2.473  -0.028   2.558
 4304TIP3   OH212875   1.973   0.767   5.593
 4304TIP3    H112876   1.924   0.830   5.540
 4304TIP3    H212877   1.946   0.784   5.683
 4305TIP3   OH212878   2.104   2.799   1.677
 4305TIP3    H112879   2.153   2.762   1.750
 4305TIP3    H212880   2.171   2.838   1.621
 4306TIP3   OH212881   3.133   0.384   3.642
 4306TIP3    H112882   3.126   0.290   3.628
 4306TIP3    H212883   3.219   0.407   3.605
 4307TIP3   OH212884   2.194   0.861   3.763
 4307TIP3    H112885   2.156   0.866   3.675
 4307TIP3    H212886   2.279   0.903   3.756
 4308TIP3   OH212887   6.243   3.245   4.735
 4308TIP3    H112888   6.328   3.203   4.721
 4308TIP3    H212889   6.257   3.336   4.707
 4309TIP3   OH212890   2.232   3.560   1.805
 4309TIP3    H112891   2.192   3.570   1.718
 4309TIP3    H212892   2.159   3.572   1.866
 4310TIP3   OH212893   1.701   0.490   0.299
 4310TIP3    H112894   1.605   0.482   0.292
 4310TIP3    H212895   1.719   0.472   0.392
 4311TIP3   OH212896   0.985   4.684   5.849
 4311TIP3    H112897   0.992   4.731   5.766
 4311TIP3    H212898   0.944   4.600   5.826
 4312TIP3   OH212899   5.745   6.357   1.451
 4312TIP3    H112900   5.678   6.395   1.393
 4312TIP3    H212901   5.721   6.265   1.458
 4313TIP3   OH212902   2.365   6.183   4.308
 4313TIP3    H112903   2.417   6.263   4.314
 4313TIP3    H212904   2.346   6.173   4.215
 4314TIP3   OH212905   7.052   1.101   5.107
 4314TIP3    H112906   7.065   1.006   5.106
 4314TIP3    H212907   7.139   1.138   5.121
 4315TIP3   OH212908   4.363   5.753   4.355
 4315TIP3    H112909   4.419   5.792   4.422
 4315TIP3    H212910   4.339   5.667   4.390
 4316TIP3   OH212911   0.422   4.826   2.863
 4316TIP3    H112912   0.488   4.830   2.794
 4316TIP3    H212913   0.471   4.802   2.942
 4317TIP3   OH212914   6.539   2.675   5.731
 4317TIP3    H112915   6.549   2.749   5.790
 4317TIP3    H212916   6.609   2.686   5.667
 4318TIP3   OH212917   3.671   0.611   0.425
 4318TIP3    H112918   3.674   0.662   0.506
 4318TIP3    H212919   3.763   0.603   0.399
 4319TIP3   OH212920   6.027   4.754   1.618
 4319TIP3    H112921   6.108   4.704   1.613
 4319TIP3    H212922   6.020   4.780   1.710
 4320TIP3   OH212923   3.011   1.120   1.349
 4320TIP3    H112924   2.981   1.168   1.426
 4320TIP3    H212925   2.950   1.046   1.341
 4321TIP3   OH212926   5.015   4.306   3.763
 4321TIP3    H112927   5.095   4.302   3.815
 4321TIP3    H212928   5.045   4.318   3.673
 4322TIP3   OH212929   1.294   3.616   2.428
 4322TIP3    H112930   1.300   3.710   2.446
 4322TIP3    H212931   1.375   3.596   2.380
 4323TIP3   OH212932   3.313   2.600   2.254
 4323TIP3    H112933   3.227   2.620   2.289
 4323TIP3    H212934   3.344   2.526   2.305
 4324TIP3   OH212935   2.518   6.719   2.023
 4324TIP3    H112936   2.551   6.634   1.994
 4324TIP3    H212937   2.560   6.783   1.965
 4325TIP3   OH212938   5.347   3.880   5.052
 4325TIP3    H112939   5.322   3.833   4.972
 4325TIP3    H212940   5.434   3.915   5.033
 4326TIP3   OH212941   3.825   4.141   1.148
 4326TIP3    H112942   3.756   4.182   1.096
 4326TIP3    H212943   3.873   4.215   1.186
 4327TIP3   OH212944   3.582   3.654   1.653
 4327TIP3    H112945   3.622   3.567   1.651
 4327TIP3    H212946   3.492   3.639   1.623
 4328TIP3   OH212947   6.277   5.503   0.428
 4328TIP3    H112948   6.278   5.492   0.333
 4328TIP3    H212949   6.185   5.515   0.450
 4329TIP3   OH212950   4.310   5.972   3.983
 4329TIP3    H112951   4.268   6.016   4.057
 4329TIP3    H212952   4.238   5.953   3.923
 4330TIP3   OH212953   5.460   0.931   0.158
 4330TIP3    H112954   5.493   0.852   0.202
 4330TIP3    H212955   5.429   0.987   0.229
 4331TIP3   OH212956   6.033   6.309   0.794
 4331TIP3    H112957   5.947   6.280   0.824
 4331TIP3    H212958   6.014   6.376   0.728
 4332TIP3   OH212959   2.861   0.900   3.559
 4332TIP3    H112960   2.802   0.840   3.514
 4332TIP3    H212961   2.811   0.982   3.565
 4333TIP3   OH212962   0.362   0.163   0.112
 4333TIP3    H112963   0.447   0.172   0.068
 4333TIP3    H212964   0.305   0.225   0.067
 4334TIP3   OH212965   0.817   6.773   4.538
 4334TIP3    H112966   0.792   6.739   4.624
 4334TIP3    H212967   0.829   6.695   4.484
 4335TIP3   OH212968   2.683   5.644   1.463
 4335TIP3    H112969   2.706   5.695   1.385
 4335TIP3    H212970   2.600   5.603   1.440
 4336TIP3   OH212971   4.164   2.257   0.814
 4336TIP3    H112972   4.196   2.210   0.891
 4336TIP3    H212973   4.240   2.305   0.782
 4337TIP3   OH212974   2.922   1.519   5.105
 4337TIP3    H112975   2.923   1.430   5.071
 4337TIP3    H212976   2.839   1.526   5.153
 4338TIP3   OH212977   0.404   3.551   2.854
 4338TIP3    H112978   0.332   3.555   2.791
 4338TIP3    H212979   0.420   3.642   2.879
 4339TIP3   OH212980   1.134   1.168   1.665
 4339TIP3    H112981   1.197   1.233   1.633
 4339TIP3    H212982   1.095   1.209   1.742
 4340TIP3   OH212983   4.722   2.722   5.024
 4340TIP3    H112984   4.664   2.696   4.952
 4340TIP3    H212985   4.684   2.681   5.102
 4341TIP3   OH212986   6.030   1.492   3.831
 4341TIP3    H112987   6.079   1.546   3.769
 4341TIP3    H212988   6.055   1.402   3.810
 4342TIP3   OH212989   2.892   4.029   1.428
 4342TIP3    H112990   2.948   3.952   1.433
 4342TIP3    H212991   2.820   4.003   1.370
 4343TIP3   OH212992   6.744   3.471   2.443
 4343TIP3    H112993   6.798   3.400   2.479
 4343TIP3    H212994   6.755   3.464   2.348
 4344TIP3   OH212995   4.212   2.326   0.358
 4344TIP3    H112996   4.160   2.362   0.287
 4344TIP3    H212997   4.229   2.235   0.333
 4345TIP3   OH212998   0.599   2.168   0.602
 4345TIP3    H112999   0.590   2.183   0.507
 4345TIP3    H213000   0.677   2.115   0.611
 4346TIP3   OH213001   3.992   3.583   5.897
 4346TIP3    H113002   4.066   3.526   5.913
 4346TIP3    H213003   3.924   3.525   5.862
 4347TIP3   OH213004   6.442   4.041   1.057
 4347TIP3    H113005   6.452   3.970   0.993
 4347TIP3    H213006   6.460   4.001   1.141
 4348TIP3   OH213007   3.965   2.470   2.046
 4348TIP3    H113008   3.897   2.407   2.021
 4348TIP3    H213009   3.916   2.547   2.075
 4349TIP3   OH213010   0.845   1.836   5.703
 4349TIP3    H113011   0.761   1.881   5.690
 4349TIP3    H213012   0.821   1.747   5.727
 4350TIP3   OH213013   2.760   1.722   5.488
 4350TIP3    H113014   2.830   1.785   5.471
 4350TIP3    H213015   2.801   1.636   5.473
 4351TIP3   OH213016   0.676   0.255   2.298
 4351TIP3    H113017   0.635   0.333   2.334
 4351TIP3    H213018   0.646   0.251   2.208
 4352TIP3   OH213019   1.546   0.469   0.059
 4352TIP3    H113020   1.568   0.377   0.067
 4352TIP3    H213021   1.480   0.484   0.127
 4353TIP3   OH213022   6.223   2.205   1.193
 4353TIP3    H113023   6.215   2.110   1.185
 4353TIP3    H213024   6.203   2.223   1.285
 4354TIP3   OH213025   1.956   2.498   5.910
 4354TIP3    H113026   1.880   2.553   5.926
 4354TIP3    H213027   2.019   2.555   5.866
 4355TIP3   OH213028   5.856   5.495   5.297
 4355TIP3    H113029   5.847   5.422   5.359
 4355TIP3    H213030   5.765   5.520   5.277
 4356TIP3   OH213031   0.416   2.105   3.893
 4356TIP3    H113032   0.494   2.123   3.946
 4356TIP3    H213033   0.362   2.183   3.902
 4357TIP3   OH213034   0.467   1.577   4.670
 4357TIP3    H113035   0.484   1.496   4.622
 4357TIP3    H213036   0.539   1.585   4.732
 4358TIP3   OH213037   4.635   4.361   3.072
 4358TIP3    H113038   4.559   4.317   3.034
 4358TIP3    H213039   4.639   4.329   3.162
 4359TIP3   OH213040   1.299   0.877   0.449
 4359TIP3    H113041   1.265   0.937   0.515
 4359TIP3    H213042   1.253   0.795   0.466
 4360TIP3   OH213043   2.254   4.715   1.384
 4360TIP3    H113044   2.174   4.761   1.357
 4360TIP3    H213045   2.317   4.735   1.315
 4361TIP3   OH213046   2.341   2.475   1.526
 4361TIP3    H113047   2.254   2.468   1.566
 4361TIP3    H213048   2.325   2.509   1.439
 4362TIP3   OH213049   3.358   3.486   1.027
 4362TIP3    H113050   3.359   3.448   0.940
 4362TIP3    H213051   3.445   3.524   1.038
 4363TIP3   OH213052   1.160   4.476   5.446
 4363TIP3    H113053   1.185   4.474   5.538
 4363TIP3    H213054   1.068   4.450   5.445
 4364TIP3   OH213055   4.015   5.512   0.116
 4364TIP3    H113056   4.047   5.496   0.027
 4364TIP3    H213057   3.959   5.436   0.134
 4365TIP3   OH213058   0.999   4.083   3.950
 4365TIP3    H113059   0.994   4.049   4.040
 4365TIP3    H213060   1.018   4.177   3.962
 4366TIP3   OH213061   4.708   2.797   1.577
 4366TIP3    H113062   4.630   2.790   1.521
 4366TIP3    H213063   4.751   2.877   1.548
 4367TIP3   OH213064   6.205   6.470   0.448
 4367TIP3    H113065   6.237   6.557   0.425
 4367TIP3    H213066   6.125   6.487   0.498
 4368TIP3   OH213067   6.210   5.227   2.233
 4368TIP3    H113068   6.210   5.218   2.138
 4368TIP3    H213069   6.179   5.142   2.265
 4369TIP3   OH213070   2.656   5.908   5.137
 4369TIP3    H113071   2.675   5.993   5.176
 4369TIP3    H213072   2.689   5.844   5.201
 4370TIP3   OH213073   5.337   6.189   0.157
 4370TIP3    H113074   5.409   6.225   0.105
 4370TIP3    H213075   5.378   6.162   0.239
 4371TIP3   OH213076   6.838   2.407   5.072
 4371TIP3    H113077   6.767   2.362   5.118
 4371TIP3    H213078   6.855   2.352   4.995
 4372TIP3   OH213079   2.734   5.115   3.617
 4372TIP3    H113080   2.789   5.047   3.577
 4372TIP3    H213081   2.645   5.091   3.593
 4373TIP3   OH213082   0.163   6.044   0.843
 4373TIP3    H113083   0.127   5.959   0.819
 4373TIP3    H213084   0.124   6.063   0.928
 4374TIP3   OH213085   5.880   1.381   0.659
 4374TIP3    H113086   5.918   1.294   0.645
 4374TIP3    H213087   5.953   1.436   0.685
 4375TIP3   OH213088   3.547   0.043   5.629
 4375TIP3    H113089   3.532  -0.043   5.589
 4375TIP3    H213090   3.636   0.067   5.602
 4376TIP3   OH213091   6.898   0.871   0.249
 4376TIP3    H113092   6.893   0.779   0.274
 4376TIP3    H213093   6.884   0.871   0.155
 4377TIP3   OH213094   4.585   3.266   1.199
 4377TIP3    H113095   4.636   3.216   1.135
 4377TIP3    H213096   4.624   3.354   1.196
 4378TIP3   OH213097   0.229   3.825   2.874
 4378TIP3    H113098   0.246   3.911   2.835
 4378TIP3    H213099   0.216   3.843   2.967
 4379TIP3   OH213100   6.331   4.070   3.537
 4379TIP3    H113101   6.346   4.035   3.625
 4379TIP3    H213102   6.345   3.995   3.479
 4380TIP3   OH213103   4.359   0.669   3.051
 4380TIP3    H113104   4.359   0.578   3.022
 4380TIP3    H213105   4.447   0.683   3.086
 4381TIP3   OH213106   4.114   6.457   4.942
 4381TIP3    H113107   4.043   6.495   4.992
 4381TIP3    H213108   4.164   6.407   5.005
 4382TIP3   OH213109   0.916   2.406   1.868
 4382TIP3    H113110   0.855   2.437   1.801
 4382TIP3    H213111   0.979   2.477   1.877
 4383TIP3   OH213112   1.451   1.431   4.421
 4383TIP3    H113113   1.408   1.514   4.440
 4383TIP3    H213114   1.473   1.395   4.508
 4384TIP3   OH213115   0.356   3.691   3.553
 4384TIP3    H113116   0.321   3.659   3.470
 4384TIP3    H213117   0.388   3.613   3.597
 4385TIP3   OH213118   6.673   4.266   0.244
 4385TIP3    H113119   6.769   4.266   0.240
 4385TIP3    H213120   6.646   4.274   0.153
 4386TIP3   OH213121   1.761   3.110   5.636
 4386TIP3    H113122   1.808   3.191   5.617
 4386TIP3    H213123   1.685   3.138   5.687
 4387TIP3   OH213124   6.888   5.578   2.403
 4387TIP3    H113125   6.805   5.624   2.417
 4387TIP3    H213126   6.927   5.620   2.326
 4388TIP3   OH213127   6.761   4.125   2.284
 4388TIP3    H113128   6.753   4.211   2.243
 4388TIP3    H213129   6.751   4.063   2.212
 4389TIP3   OH213130   3.113   4.203   5.007
 4389TIP3    H113131   3.171   4.259   4.955
 4389TIP3    H213132   3.166   4.176   5.082
 4390TIP3   OH213133   5.319   1.553   1.117
 4390TIP3    H113134   5.303   1.647   1.106
 4390TIP3    H213135   5.245   1.511   1.072
 4391TIP3   OH213136   0.223   1.349   3.083
 4391TIP3    H113137   0.273   1.337   3.163
 4391TIP3    H213138   0.217   1.444   3.072
 4392TIP3   OH213139   4.705   3.302   3.765
 4392TIP3    H113140   4.676   3.350   3.688
 4392TIP3    H213141   4.712   3.369   3.834
 4393TIP3   OH213142   5.625   0.114   1.212
 4393TIP3    H113143   5.553   0.163   1.172
 4393TIP3    H213144   5.598   0.022   1.208
 4394TIP3   OH213145   3.223   5.993   4.228
 4394TIP3    H113146   3.296   5.935   4.209
 4394TIP3    H213147   3.218   6.051   4.152
 4395TIP3   OH213148   4.579   6.489   3.070
 4395TIP3    H113149   4.673   6.470   3.069
 4395TIP3    H213150   4.570   6.564   3.129
 4396TIP3   OH213151   6.244   0.646   1.540
 4396TIP3    H113152   6.206   0.673   1.456
 4396TIP3    H213153   6.179   0.674   1.605
 4397TIP3   OH213154   4.533   0.887   5.041
 4397TIP3    H113155   4.543   0.942   5.119
 4397TIP3    H213156   4.440   0.863   5.040
 4398TIP3   OH213157   7.147   3.275   0.071
 4398TIP3    H113158   7.122   3.249  -0.018
 4398TIP3    H213159   7.221   3.217   0.093
 4399TIP3   OH213160   4.995   4.022   3.260
 4399TIP3    H113161   5.001   4.089   3.328
 4399TIP3    H213162   5.083   3.985   3.257
 4400TIP3   OH213163   2.482   3.122   4.208
 4400TIP3    H113164   2.573   3.107   4.234
 4400TIP3    H213165   2.440   3.037   4.217
 4401TIP3   OH213166   6.552   2.880   1.283
 4401TIP3    H113167   6.591   2.942   1.221
 4401TIP3    H213168   6.626   2.846   1.333
 4402TIP3   OH213169   6.380   0.040   4.002
 4402TIP3    H113170   6.366  -0.033   4.063
 4402TIP3    H213171   6.430   0.001   3.930
 4403TIP3   OH213172   0.919   0.856   1.211
 4403TIP3    H113173   0.986   0.790   1.227
 4403TIP3    H213174   0.959   0.938   1.239
 4404TIP3   OH213175   3.909   0.235   3.438
 4404TIP3    H113176   3.837   0.174   3.453
 4404TIP3    H213177   3.935   0.264   3.525
 4405TIP3   OH213178   1.564   5.080   5.789
 4405TIP3    H113179   1.653   5.093   5.822
 4405TIP3    H213180   1.574   5.063   5.696
 4406TIP3   OH213181   4.616   6.544   1.664
 4406TIP3    H113182   4.652   6.504   1.584
 4406TIP3    H213183   4.604   6.636   1.640
 4407TIP3   OH213184   4.901   3.360   1.861
 4407TIP3    H113185   4.930   3.270   1.845
 4407TIP3    H213186   4.918   3.375   1.954
 4408TIP3   OH213187   6.493   3.845   2.552
 4408TIP3    H113188   6.462   3.918   2.498
 4408TIP3    H213189   6.574   3.816   2.510
 4409TIP3   OH213190   1.394   0.147   5.058
 4409TIP3    H113191   1.332   0.161   4.986
 4409TIP3    H213192   1.345   0.095   5.121
 4410TIP3   OH213193   1.520   1.070   3.996
 4410TIP3    H113194   1.505   1.125   4.073
 4410TIP3    H213195   1.451   1.004   3.999
 4411TIP3   OH213196   4.647   1.016   1.690
 4411TIP3    H113197   4.735   1.033   1.725
 4411TIP3    H213198   4.654   0.933   1.644
 4412TIP3   OH213199   2.287   0.990   1.947
 4412TIP3    H113200   2.321   0.915   1.997
 4412TIP3    H213201   2.355   1.007   1.882
 4413TIP3   OH213202   3.766   3.399   2.300
 4413TIP3    H113203   3.819   3.471   2.266
 4413TIP3    H213204   3.702   3.381   2.231
 4414TIP3   OH213205   0.986   4.147   2.258
 4414TIP3    H113206   0.988   4.065   2.208
 4414TIP3    H213207   0.984   4.120   2.349
 4415TIP3   OH213208   0.580   4.826   2.380
 4415TIP3    H113209   0.626   4.774   2.314
 4415TIP3    H213210   0.506   4.864   2.332
 4416TIP3   OH213211   5.430   0.734   4.866
 4416TIP3    H113212   5.450   0.641   4.877
 4416TIP3    H213213   5.380   0.758   4.944
 4417TIP3   OH213214   6.020   2.750   0.746
 4417TIP3    H113215   5.982   2.803   0.816
 4417TIP3    H213216   5.947   2.730   0.689
 4418TIP3   OH213217   0.262   2.875   3.028
 4418TIP3    H113218   0.317   2.917   2.962
 4418TIP3    H213219   0.197   2.942   3.051
 4419TIP3   OH213220   1.810   6.085   0.395
 4419TIP3    H113221   1.789   5.992   0.394
 4419TIP3    H213222   1.796   6.112   0.485
 4420TIP3   OH213223   4.890   3.770   5.210
 4420TIP3    H113224   4.821   3.765   5.276
 4420TIP3    H213225   4.865   3.846   5.156
 4421TIP3   OH213226   4.827   4.420   1.318
 4421TIP3    H113227   4.822   4.515   1.307
 4421TIP3    H213228   4.890   4.392   1.251
 4422TIP3   OH213229   7.103   5.560   0.344
 4422TIP3    H113230   7.105   5.471   0.379
 4422TIP3    H213231   7.158   5.611   0.403
 4423TIP3   OH213232   5.216   2.990   4.541
 4423TIP3    H113233   5.205   3.048   4.466
 4423TIP3    H213234   5.227   2.903   4.501
 4424TIP3   OH213235   5.926   0.773   3.973
 4424TIP3    H113236   5.862   0.833   3.934
 4424TIP3    H213237   5.883   0.739   4.052
 4425TIP3   OH213238   3.438   0.484   3.880
 4425TIP3    H113239   3.472   0.499   3.792
 4425TIP3    H213240   3.344   0.500   3.872
 4426TIP3   OH213241   0.857   0.500   5.860
 4426TIP3    H113242   0.819   0.414   5.881
 4426TIP3    H213243   0.791   0.563   5.888
 4427TIP3   OH213244   1.120   2.895   0.570
 4427TIP3    H113245   1.122   2.833   0.498
 4427TIP3    H213246   1.028   2.896   0.598
 4428TIP3   OH213247   2.610   0.318   1.736
 4428TIP3    H113248   2.520   0.348   1.723
 4428TIP3    H213249   2.661   0.399   1.742
 4429TIP3   OH213250   6.207   2.977   5.416
 4429TIP3    H113251   6.291   3.021   5.410
 4429TIP3    H213252   6.172   2.980   5.326
 4430TIP3   OH213253   0.715   5.880   2.615
 4430TIP3    H113254   0.695   5.956   2.561
 4430TIP3    H213255   0.785   5.910   2.673
 4431TIP3   OH213256   2.436   3.683   1.101
 4431TIP3    H113257   2.507   3.647   1.048
 4431TIP3    H213258   2.413   3.613   1.162
 4432TIP3   OH213259   0.614   6.114   3.796
 4432TIP3    H113260   0.555   6.055   3.748
 4432TIP3    H213261   0.569   6.198   3.795
 4433TIP3   OH213262   6.086   3.893   0.682
 4433TIP3    H113263   6.021   3.885   0.753
 4433TIP3    H213264   6.058   3.971   0.634
 4434TIP3   OH213265   6.482   6.676   2.700
 4434TIP3    H113266   6.438   6.753   2.665
 4434TIP3    H213267   6.562   6.668   2.648
 4435TIP3   OH213268   2.323   0.582   3.253
 4435TIP3    H113269   2.315   0.493   3.287
 4435TIP3    H213270   2.378   0.573   3.175
 4436TIP3   OH213271   7.037   5.383   4.995
 4436TIP3    H113272   7.026   5.291   4.973
 4436TIP3    H213273   6.952   5.423   4.977
 4437TIP3   OH213274   1.906   2.327   4.459
 4437TIP3    H113275   1.944   2.393   4.402
 4437TIP3    H213276   1.960   2.330   4.539
 4438TIP3   OH213277   0.812   3.495   1.220
 4438TIP3    H113278   0.747   3.431   1.190
 4438TIP3    H213279   0.850   3.529   1.139
 4439TIP3   OH213280   3.650   5.589   2.874
 4439TIP3    H113281   3.703   5.666   2.896
 4439TIP3    H213282   3.572   5.598   2.929
 4440TIP3   OH213283   2.540   5.737   2.169
 4440TIP3    H113284   2.611   5.674   2.175
 4440TIP3    H213285   2.556   5.785   2.088
 4441TIP3   OH213286   4.424   4.960   5.881
 4441TIP3    H113287   4.438   4.991   5.791
 4441TIP3    H213288   4.338   4.992   5.905
 4442TIP3   OH213289   5.798   5.293   2.881
 4442TIP3    H113290   5.825   5.385   2.877
 4442TIP3    H213291   5.857   5.248   2.820
 4443TIP3   OH213292   4.950   1.578   2.356
 4443TIP3    H113293   4.955   1.673   2.351
 4443TIP3    H213294   5.040   1.550   2.372
 4444TIP3   OH213295   2.836   4.062   1.070
 4444TIP3    H113296   2.824   4.094   0.981
 4444TIP3    H213297   2.914   4.007   1.066
 4445TIP3   OH213298   7.105   4.352   4.915
 4445TIP3    H113299   7.163   4.365   4.990
 4445TIP3    H213300   7.018   4.341   4.953
 4446TIP3   OH213301   2.982   3.318   0.296
 4446TIP3    H113302   2.996   3.239   0.244
 4446TIP3    H213303   3.002   3.293   0.385
 4447TIP3   OH213304   3.184   2.722   4.775
 4447TIP3    H113305   3.206   2.722   4.868
 4447TIP3    H213306   3.246   2.784   4.736
 4448TIP3   OH213307   3.916   5.896   0.698
 4448TIP3    H113308   3.833   5.862   0.664
 4448TIP3    H213309   3.972   5.819   0.707
 4449TIP3   OH213310   1.964   6.321   0.830
 4449TIP3    H113311   1.887   6.368   0.861
 4449TIP3    H213312   1.997   6.375   0.758
 4450TIP3   OH213313   3.862   1.990   3.061
 4450TIP3    H113314   3.821   1.908   3.033
 4450TIP3    H213315   3.892   2.031   2.979
 4451TIP3   OH213316   5.171   2.112   1.371
 4451TIP3    H113317   5.107   2.170   1.412
 4451TIP3    H213318   5.149   2.025   1.403
 4452TIP3   OH213319   5.293   5.196   4.314
 4452TIP3    H113320   5.324   5.215   4.403
 4452TIP3    H213321   5.198   5.188   4.324
 4453TIP3   OH213322   4.784   2.477   1.526
 4453TIP3    H113323   4.771   2.523   1.443
 4453TIP3    H213324   4.703   2.491   1.574
 4454TIP3   OH213325   4.613   6.483   0.312
 4454TIP3    H113326   4.644   6.436   0.390
 4454TIP3    H213327   4.577   6.414   0.256
 4455TIP3   OH213328   2.591   5.820   0.455
 4455TIP3    H113329   2.683   5.838   0.434
 4455TIP3    H213330   2.578   5.862   0.540
 4456TIP3   OH213331   1.306   5.585   5.298
 4456TIP3    H113332   1.383   5.563   5.351
 4456TIP3    H213333   1.251   5.507   5.302
 4457TIP3   OH213334   1.128   0.652   2.741
 4457TIP3    H113335   1.169   0.607   2.814
 4457TIP3    H213336   1.116   0.584   2.674
 4458TIP3   OH213337   4.853   3.175   2.187
 4458TIP3    H113338   4.902   3.108   2.234
 4458TIP3    H213339   4.907   3.254   2.195
 4459TIP3   OH213340   4.270   6.658   3.144
 4459TIP3    H113341   4.356   6.681   3.179
 4459TIP3    H213342   4.251   6.727   3.080
 4460TIP3   OH213343   3.925   2.177   3.258
 4460TIP3    H113344   4.011   2.208   3.232
 4460TIP3    H213345   3.901   2.114   3.190
 4461TIP3   OH213346   2.062   2.735   5.176
 4461TIP3    H113347   2.104   2.685   5.246
 4461TIP3    H213348   2.059   2.674   5.102
 4462TIP3   OH213349   6.281   3.616   1.385
 4462TIP3    H113350   6.291   3.524   1.408
 4462TIP3    H213351   6.264   3.660   1.468
 4463TIP3   OH213352   5.694   2.497   1.558
 4463TIP3    H113353   5.637   2.574   1.556
 4463TIP3    H213354   5.682   2.455   1.473
 4464TIP3   OH213355   5.681   1.068   2.851
 4464TIP3    H113356   5.727   1.133   2.904
 4464TIP3    H213357   5.703   0.984   2.893
 4465TIP3   OH213358   3.752   0.912   5.441
 4465TIP3    H113359   3.773   1.004   5.423
 4465TIP3    H213360   3.747   0.908   5.537
 4466TIP3   OH213361   5.132   6.050   5.537
 4466TIP3    H113362   5.213   6.099   5.532
 4466TIP3    H213363   5.074   6.092   5.473
 4467TIP3   OH213364   3.007   4.646   0.183
 4467TIP3    H113365   2.988   4.629   0.275
 4467TIP3    H213366   2.988   4.563   0.140
 4468TIP3   OH213367   0.449   6.166   2.742
 4468TIP3    H113368   0.456   6.101   2.811
 4468TIP3    H213369   0.468   6.118   2.661
 4469TIP3   OH213370   4.961   0.508   2.409
 4469TIP3    H113371   5.030   0.556   2.455
 4469TIP3    H213372   4.886   0.510   2.469
 4470TIP3   OH213373   2.535   6.749   1.589
 4470TIP3    H113374   2.520   6.684   1.520
 4470TIP3    H213375   2.501   6.830   1.552
 4471TIP3   OH213376   1.154   1.298  -0.027
 4471TIP3    H113377   1.110   1.272   0.054
 4471TIP3    H213378   1.236   1.339   0.003
 4472TIP3   OH213379   2.956   0.797   3.907
 4472TIP3    H113380   3.017   0.824   3.839
 4472TIP3    H213381   2.952   0.872   3.967
 4473TIP3   OH213382   5.144   4.544   0.400
 4473TIP3    H113383   5.218   4.592   0.362
 4473TIP3    H213384   5.153   4.455   0.368
 4474TIP3   OH213385   1.581   4.628   4.459
 4474TIP3    H113386   1.641   4.683   4.409
 4474TIP3    H213387   1.521   4.689   4.500
 4475TIP3   OH213388   1.037   4.977   5.424
 4475TIP3    H113389   1.130   4.970   5.445
 4475TIP3    H213390   0.996   4.905   5.473
 4476TIP3   OH213391   5.922   3.072   2.396
 4476TIP3    H113392   5.899   3.073   2.303
 4476TIP3    H213393   5.838   3.078   2.442
 4477TIP3   OH213394   6.415   0.772   3.766
 4477TIP3    H113395   6.359   0.710   3.721
 4477TIP3    H213396   6.502   0.732   3.765
 4478TIP3   OH213397   5.221   5.514   0.081
 4478TIP3    H113398   5.200   5.605   0.102
 4478TIP3    H213399   5.191   5.503  -0.009
 4479TIP3   OH213400   2.514   3.783   5.120
 4479TIP3    H113401   2.461   3.858   5.094
 4479TIP3    H213402   2.504   3.779   5.215
 4480TIP3   OH213403   3.549   5.209   1.628
 4480TIP3    H113404   3.553   5.301   1.654
 4480TIP3    H213405   3.457   5.185   1.639
 4481TIP3   OH213406   0.121   3.667   4.743
 4481TIP3    H113407   0.162   3.683   4.658
 4481TIP3    H213408   0.107   3.573   4.747
 4482TIP3   OH213409   4.341   6.003   5.865
 4482TIP3    H113410   4.277   5.960   5.809
 4482TIP3    H213411   4.425   5.967   5.838
 4483TIP3   OH213412   3.516   3.301   1.287
 4483TIP3    H113413   3.426   3.331   1.275
 4483TIP3    H213414   3.516   3.210   1.259
 4484TIP3   OH213415   2.648   0.406   0.374
 4484TIP3    H113416   2.561   0.437   0.348
 4484TIP3    H213417   2.707   0.477   0.348
 4485TIP3   OH213418   6.495   4.892   4.814
 4485TIP3    H113419   6.435   4.901   4.888
 4485TIP3    H213420   6.550   4.817   4.837
 4486TIP3   OH213421   1.082   2.270   0.064
 4486TIP3    H113422   1.098   2.326  -0.012
 4486TIP3    H213423   0.987   2.266   0.072
 4487TIP3   OH213424   3.438   6.508   4.508
 4487TIP3    H113425   3.421   6.579   4.448
 4487TIP3    H213426   3.365   6.511   4.570
 4488TIP3   OH213427   4.719   6.766   5.528
 4488TIP3    H113428   4.659   6.809   5.589
 4488TIP3    H213429   4.703   6.673   5.540
 4489TIP3   OH213430   3.888   1.737   2.726
 4489TIP3    H113431   3.984   1.739   2.735
 4489TIP3    H213432   3.871   1.784   2.645
 4490TIP3   OH213433   5.148   2.768   2.315
 4490TIP3    H113434   5.143   2.717   2.396
 4490TIP3    H213435   5.213   2.722   2.262
 4491TIP3   OH213436   0.782   2.869   5.830
 4491TIP3    H113437   0.791   2.788   5.781
 4491TIP3    H213438   0.742   2.931   5.769
 4492TIP3   OH213439   4.145   0.715   2.238
 4492TIP3    H113440   4.078   0.662   2.281
 4492TIP3    H213441   4.214   0.652   2.215
 4493TIP3   OH213442   3.477   0.382   2.251
 4493TIP3    H113443   3.467   0.287   2.243
 4493TIP3    H213444   3.525   0.395   2.332
 4494TIP3   OH213445   5.897   0.062   0.338
 4494TIP3    H113446   5.906   0.073   0.244
 4494TIP3    H213447   5.815   0.014   0.349
 4495TIP3   OH213448   1.817   5.705   4.491
 4495TIP3    H113449   1.794   5.701   4.583
 4495TIP3    H213450   1.898   5.654   4.483
 4496TIP3   OH213451   1.724   5.205   3.266
 4496TIP3    H113452   1.630   5.187   3.266
 4496TIP3    H213453   1.732   5.294   3.300
 4497TIP3   OH213454   3.200   4.141   2.669
 4497TIP3    H113455   3.132   4.077   2.649
 4497TIP3    H213456   3.205   4.196   2.591
 4498TIP3   OH213457   3.010   2.865   1.434
 4498TIP3    H113458   3.047   2.898   1.516
 4498TIP3    H213459   3.022   2.770   1.439
 4499TIP3   OH213460   1.420   4.612   5.352
 4499TIP3    H113461   1.431   4.685   5.291
 4499TIP3    H213462   1.369   4.648   5.424
 4500TIP3   OH213463   4.605   0.718   3.916
 4500TIP3    H113464   4.673   0.713   3.983
 4500TIP3    H213465   4.526   0.744   3.963
 4501TIP3   OH213466   5.431   1.707   3.187
 4501TIP3    H113467   5.378   1.651   3.130
 4501TIP3    H213468   5.490   1.753   3.127
 4502TIP3   OH213469   0.076   6.249   5.555
 4502TIP3    H113470   0.001   6.240   5.495
 4502TIP3    H213471   0.052   6.197   5.631
 4503TIP3   OH213472   3.607   6.570   1.368
 4503TIP3    H113473   3.699   6.543   1.372
 4503TIP3    H213474   3.575   6.559   1.457
 4504TIP3   OH213475   3.754   3.501   5.712
 4504TIP3    H113476   3.741   3.481   5.619
 4504TIP3    H213477   3.668   3.529   5.743
 4505TIP3   OH213478   7.047   1.470   4.832
 4505TIP3    H113479   7.067   1.418   4.753
 4505TIP3    H213480   7.077   1.558   4.811
 4506TIP3   OH213481   5.219   5.557   1.760
 4506TIP3    H113482   5.160   5.624   1.724
 4506TIP3    H213483   5.191   5.476   1.718
 4507TIP3   OH213484   6.633   5.025   1.727
 4507TIP3    H113485   6.672   4.995   1.645
 4507TIP3    H213486   6.706   5.023   1.790
 4508TIP3   OH213487   4.407   3.086   5.537
 4508TIP3    H113488   4.362   3.148   5.479
 4508TIP3    H213489   4.368   3.001   5.516
 4509TIP3   OH213490   2.201   1.732   0.644
 4509TIP3    H113491   2.195   1.646   0.687
 4509TIP3    H213492   2.197   1.712   0.551
 4510TIP3   OH213493   1.236   3.069   0.733
 4510TIP3    H113494   1.212   2.988   0.689
 4510TIP3    H213495   1.238   3.135   0.664
 4511TIP3   OH213496   4.936   6.730   2.718
 4511TIP3    H113497   4.859   6.754   2.770
 4511TIP3    H213498   5.004   6.791   2.747
 4512TIP3   OH213499   4.272   6.417   3.830
 4512TIP3    H113500   4.363   6.438   3.850
 4512TIP3    H213501   4.270   6.411   3.734
 4513TIP3   OH213502   6.728   2.896   0.909
 4513TIP3    H113503   6.820   2.880   0.889
 4513TIP3    H213504   6.729   2.946   0.990
 4514TIP3   OH213505   1.920   2.990   4.516
 4514TIP3    H113506   1.945   3.082   4.522
 4514TIP3    H213507   1.904   2.975   4.422
 4515TIP3   OH213508   4.513   5.646   5.423
 4515TIP3    H113509   4.557   5.675   5.503
 4515TIP3    H213510   4.569   5.678   5.352
 4516TIP3   OH213511   6.954   1.147   1.328
 4516TIP3    H113512   6.945   1.099   1.410
 4516TIP3    H213513   6.949   1.080   1.260
 4517TIP3   OH213514   2.903   3.806   3.401
 4517TIP3    H113515   2.934   3.859   3.475
 4517TIP3    H213516   2.914   3.862   3.325
 4518TIP3   OH213517   6.132   0.266   0.359
 4518TIP3    H113518   6.075   0.208   0.410
 4518TIP3    H213519   6.175   0.208   0.296
 4519TIP3   OH213520   2.708   4.997   2.801
 4519TIP3    H113521   2.614   4.987   2.811
 4519TIP3    H213522   2.722   5.091   2.789
 4520TIP3   OH213523   0.113   5.283   0.119
 4520TIP3    H113524   0.181   5.231   0.162
 4520TIP3    H213525   0.035   5.229   0.124
 4521TIP3   OH213526   2.908   3.652   2.259
 4521TIP3    H113527   2.902   3.562   2.227
 4521TIP3    H213528   2.968   3.695   2.199
 4522TIP3   OH213529   2.165   5.114   1.692
 4522TIP3    H113530   2.244   5.061   1.681
 4522TIP3    H213531   2.115   5.099   1.612
 4523TIP3   OH213532   5.034   6.169   5.097
 4523TIP3    H113533   5.090   6.207   5.028
 4523TIP3    H213534   4.981   6.103   5.051
 4524TIP3   OH213535   4.117   1.074   5.490
 4524TIP3    H113536   4.051   1.069   5.560
 4524TIP3    H213537   4.103   0.995   5.438
 4525TIP3   OH213538   3.465   3.667   2.252
 4525TIP3    H113539   3.410   3.602   2.208
 4525TIP3    H213540   3.509   3.714   2.182
 4526TIP3   OH213541   5.964   0.371   2.275
 4526TIP3    H113542   6.031   0.376   2.207
 4526TIP3    H213543   5.995   0.303   2.335
 4527TIP3   OH213544   2.746   3.526   2.887
 4527TIP3    H113545   2.783   3.611   2.864
 4527TIP3    H213546   2.810   3.488   2.947
 4528TIP3   OH213547   6.386   5.858   3.243
 4528TIP3    H113548   6.331   5.795   3.197
 4528TIP3    H213549   6.464   5.866   3.189
 4529TIP3   OH213550   2.872   6.744   0.713
 4529TIP3    H113551   2.855   6.669   0.657
 4529TIP3    H213552   2.801   6.805   0.693
 4530TIP3   OH213553   2.725   3.773   5.458
 4530TIP3    H113554   2.784   3.846   5.442
 4530TIP3    H213555   2.637   3.808   5.443
 4531TIP3   OH213556   0.104   0.165   5.546
 4531TIP3    H113557   0.024   0.114   5.535
 4531TIP3    H213558   0.113   0.177   5.641
 4532TIP3   OH213559   1.506   4.439   2.061
 4532TIP3    H113560   1.579   4.389   2.025
 4532TIP3    H213561   1.548   4.508   2.113
 4533TIP3   OH213562   5.687   4.492   1.945
 4533TIP3    H113563   5.774   4.492   1.983
 4533TIP3    H213564   5.645   4.414   1.981
 4534TIP3   OH213565   6.363   3.304   1.621
 4534TIP3    H113566   6.387   3.277   1.533
 4534TIP3    H213567   6.276   3.343   1.612
 4535TIP3   OH213568   0.632   2.957   5.028
 4535TIP3    H113569   0.618   2.879   4.974
 4535TIP3    H213570   0.649   2.922   5.116
 4536TIP3   OH213571   2.642   4.055   1.263
 4536TIP3    H113572   2.715   4.055   1.201
 4536TIP3    H213573   2.618   3.963   1.273
 4537TIP3   OH213574   5.516   5.885   3.582
 4537TIP3    H113575   5.562   5.968   3.592
 4537TIP3    H213576   5.478   5.868   3.668
 4538TIP3   OH213577   3.973   6.636   2.916
 4538TIP3    H113578   3.926   6.623   2.999
 4538TIP3    H213579   4.001   6.548   2.891
 4539TIP3   OH213580   4.896   2.143   5.184
 4539TIP3    H113581   4.804   2.125   5.199
 4539TIP3    H213582   4.935   2.058   5.164
 4540TIP3   OH213583   3.760   3.397   1.167
 4540TIP3    H113584   3.832   3.348   1.207
 4540TIP3    H213585   3.682   3.365   1.213
 4541TIP3   OH213586   3.321   2.064   5.841
 4541TIP3    H113587   3.391   2.024   5.790
 4541TIP3    H213588   3.267   2.109   5.776
 4542TIP3   OH213589   5.627   5.789   1.391
 4542TIP3    H113590   5.713   5.792   1.349
 4542TIP3    H213591   5.616   5.876   1.429
 4543TIP3   OH213592   2.208   5.906   0.256
 4543TIP3    H113593   2.290   5.857   0.259
 4543TIP3    H213594   2.174   5.890   0.168
 4544TIP3   OH213595   4.816   2.413   2.245
 4544TIP3    H113596   4.886   2.350   2.262
 4544TIP3    H213597   4.860   2.490   2.210
 4545TIP3   OH213598   2.659   2.734   4.201
 4545TIP3    H113599   2.667   2.647   4.241
 4545TIP3    H213600   2.615   2.787   4.268
 4546TIP3   OH213601   6.003   0.663   5.781
 4546TIP3    H113602   5.933   0.638   5.842
 4546TIP3    H213603   5.969   0.639   5.695
 4547TIP3   OH213604   2.488   5.342   1.759
 4547TIP3    H113605   2.578   5.363   1.732
 4547TIP3    H213606   2.480   5.248   1.741
 4548TIP3   OH213607   5.984   6.238   1.968
 4548TIP3    H113608   6.059   6.191   2.006
 4548TIP3    H213609   5.909   6.211   2.021
 4549TIP3   OH213610   5.916   5.965   3.794
 4549TIP3    H113611   5.886   6.037   3.738
 4549TIP3    H213612   5.861   5.969   3.871
 4550TIP3   OH213613   5.824   2.543   0.158
 4550TIP3    H113614   5.919   2.550   0.166
 4550TIP3    H213615   5.806   2.449   0.161
 4551TIP3   OH213616   1.392   3.223   4.564
 4551TIP3    H113617   1.376   3.192   4.653
 4551TIP3    H213618   1.461   3.164   4.531
 4552TIP3   OH213619   1.414   3.040   1.361
 4552TIP3    H113620   1.426   2.949   1.336
 4552TIP3    H213621   1.486   3.086   1.318
 4553TIP3   OH213622   1.720   2.358   3.401
 4553TIP3    H113623   1.699   2.437   3.451
 4553TIP3    H213624   1.807   2.375   3.365
 4554TIP3   OH213625   4.637   4.731   2.195
 4554TIP3    H113626   4.589   4.789   2.254
 4554TIP3    H213627   4.577   4.658   2.180
 4555TIP3   OH213628   5.595   6.720   1.941
 4555TIP3    H113629   5.664   6.656   1.957
 4555TIP3    H213630   5.590   6.771   2.022
 4556TIP3   OH213631   3.554   1.101   1.091
 4556TIP3    H113632   3.493   1.134   1.025
 4556TIP3    H213633   3.506   1.032   1.136
 4557TIP3   OH213634   2.697   2.635   5.767
 4557TIP3    H113635   2.668   2.586   5.690
 4557TIP3    H213636   2.626   2.698   5.783
 4558TIP3   OH213637   4.211   0.742   1.446
 4558TIP3    H113638   4.203   0.837   1.444
 4558TIP3    H213639   4.199   0.716   1.354
 4559TIP3   OH213640   0.347   3.052   0.332
 4559TIP3    H113641   0.328   3.144   0.348
 4559TIP3    H213642   0.364   3.046   0.238
 4560TIP3   OH213643   1.428   0.281   4.790
 4560TIP3    H113644   1.468   0.366   4.771
 4560TIP3    H213645   1.335   0.294   4.771
 4561TIP3   OH213646   0.548   2.968   2.356
 4561TIP3    H113647   0.503   3.039   2.312
 4561TIP3    H213648   0.487   2.895   2.353
 4562TIP3   OH213649   6.297   1.260   4.649
 4562TIP3    H113650   6.329   1.221   4.568
 4562TIP3    H213651   6.267   1.185   4.702
 4563TIP3   OH213652   3.807   4.150   4.165
 4563TIP3    H113653   3.896   4.153   4.130
 4563TIP3    H213654   3.809   4.209   4.241
 4564TIP3   OH213655   6.429   2.267   5.326
 4564TIP3    H113656   6.407   2.227   5.410
 4564TIP3    H213657   6.513   2.311   5.342
 4565TIP3   OH213658   6.474   0.513   0.845
 4565TIP3    H113659   6.413   0.500   0.773
 4565TIP3    H213660   6.425   0.486   0.923
 4566TIP3   OH213661   6.252   2.352   5.769
 4566TIP3    H113662   6.242   2.442   5.801
 4566TIP3    H213663   6.300   2.360   5.687
 4567TIP3   OH213664   0.491   5.632   4.775
 4567TIP3    H113665   0.406   5.636   4.732
 4567TIP3    H213666   0.551   5.603   4.706
 4568TIP3   OH213667   0.367   2.138   2.648
 4568TIP3    H113668   0.331   2.061   2.691
 4568TIP3    H213669   0.442   2.163   2.702
 4569TIP3   OH213670   0.585   4.576   5.223
 4569TIP3    H113671   0.628   4.637   5.282
 4569TIP3    H213672   0.594   4.491   5.266
 4570TIP3   OH213673   0.307   2.277   4.534
 4570TIP3    H113674   0.215   2.254   4.539
 4570TIP3    H213675   0.312   2.344   4.466
 4571TIP3   OH213676   7.083   3.400   1.477
 4571TIP3    H113677   7.063   3.391   1.384
 4571TIP3    H213678   7.143   3.327   1.496
 4572TIP3   OH213679   3.463   6.561   1.129
 4572TIP3    H113680   3.501   6.573   1.217
 4572TIP3    H213681   3.530   6.593   1.069
 4573TIP3   OH213682   3.259   6.694   3.824
 4573TIP3    H113683   3.211   6.656   3.750
 4573TIP3    H213684   3.351   6.687   3.799
 4574TIP3   OH213685   4.867   5.051   3.307
 4574TIP3    H113686   4.805   5.022   3.240
 4574TIP3    H213687   4.945   5.077   3.257
 4575TIP3   OH213688   0.195   3.209   2.769
 4575TIP3    H113689   0.224   3.253   2.849
 4575TIP3    H213690   0.105   3.182   2.787
 4576TIP3   OH213691   6.981   5.434   0.674
 4576TIP3    H113692   6.906   5.493   0.669
 4576TIP3    H213693   6.959   5.362   0.615
 4577TIP3   OH213694   5.657   1.583   2.018
 4577TIP3    H113695   5.723   1.545   2.075
 4577TIP3    H213696   5.596   1.627   2.078
 4578TIP3   OH213697   1.059   3.386   4.717
 4578TIP3    H113698   1.030   3.414   4.630
 4578TIP3    H213699   0.994   3.322   4.744
 4579TIP3   OH213700   0.179   3.764   1.842
 4579TIP3    H113701   0.197   3.849   1.802
 4579TIP3    H213702   0.087   3.748   1.823
 4580TIP3   OH213703   0.751   5.900   1.499
 4580TIP3    H113704   0.660   5.926   1.511
 4580TIP3    H213705   0.802   5.971   1.539
 4581TIP3   OH213706   4.929   1.717   1.697
 4581TIP3    H113707   4.906   1.796   1.648
 4581TIP3    H213708   4.998   1.745   1.757
 4582TIP3   OH213709   0.831   3.226   5.869
 4582TIP3    H113710   0.804   3.226   5.778
 4582TIP3    H213711   0.756   3.262   5.917
 4583TIP3   OH213712   0.903   3.649   2.227
 4583TIP3    H113713   0.948   3.566   2.240
 4583TIP3    H213714   0.850   3.637   2.149
 4584TIP3   OH213715   1.147   6.771   1.862
 4584TIP3    H113716   1.114   6.850   1.905
 4584TIP3    H213717   1.229   6.752   1.907
 4585TIP3   OH213718   2.176   2.846   0.202
 4585TIP3    H113719   2.185   2.752   0.210
 4585TIP3    H213720   2.253   2.882   0.246
 4586TIP3   OH213721   5.584   2.197   3.218
 4586TIP3    H113722   5.665   2.237   3.248
 4586TIP3    H213723   5.598   2.103   3.229
 4587TIP3   OH213724   4.539   5.155   1.043
 4587TIP3    H113725   4.464   5.212   1.054
 4587TIP3    H213726   4.590   5.195   0.971
 4588TIP3   OH213727   1.716   3.632   2.683
 4588TIP3    H113728   1.645   3.676   2.730
 4588TIP3    H213729   1.717   3.675   2.597
 4589TIP3   OH213730   5.317   1.818   1.639
 4589TIP3    H113731   5.388   1.852   1.583
 4589TIP3    H213732   5.287   1.894   1.688
 4590TIP3   OH213733   3.910   3.153   2.959
 4590TIP3    H113734   3.964   3.187   2.887
 4590TIP3    H213735   3.942   3.064   2.972
 4591TIP3   OH213736   5.460   4.046   5.435
 4591TIP3    H113737   5.431   3.962   5.471
 4591TIP3    H213738   5.532   4.073   5.492
 4592TIP3   OH213739   5.444   0.856   2.503
 4592TIP3    H113740   5.530   0.898   2.492
 4592TIP3    H213741   5.454   0.771   2.460
 4593TIP3   OH213742   3.986   5.377   3.089
 4593TIP3    H113743   4.006   5.351   3.179
 4593TIP3    H213744   4.018   5.304   3.035
 4594TIP3   OH213745   2.037   6.237   1.097
 4594TIP3    H113746   1.996   6.278   1.021
 4594TIP3    H213747   1.985   6.265   1.171
 4595TIP3   OH213748   5.718   0.848   4.593
 4595TIP3    H113749   5.741   0.773   4.648
 4595TIP3    H213750   5.781   0.845   4.521
 4596TIP3   OH213751   5.167   2.592   5.213
 4596TIP3    H113752   5.189   2.631   5.297
 4596TIP3    H213753   5.103   2.525   5.233
 4597TIP3   OH213754   3.994   3.035   0.713
 4597TIP3    H113755   4.069   3.002   0.763
 4597TIP3    H213756   4.033   3.074   0.635
 4598TIP3   OH213757   2.538   2.101   0.637
 4598TIP3    H113758   2.580   2.139   0.560
 4598TIP3    H213759   2.510   2.176   0.690
 4599TIP3   OH213760   6.279   0.070   0.214
 4599TIP3    H113761   6.362   0.084   0.169
 4599TIP3    H213762   6.247  -0.014   0.181
 4600TIP3   OH213763   4.823   5.921   3.890
 4600TIP3    H113764   4.910   5.890   3.862
 4600TIP3    H213765   4.764   5.891   3.821
 4601TIP3   OH213766   7.049   2.943   2.460
 4601TIP3    H113767   6.985   2.935   2.389
 4601TIP3    H213768   7.000   2.919   2.539
 4602TIP3   OH213769   3.503   4.763   1.408
 4602TIP3    H113770   3.536   4.723   1.488
 4602TIP3    H213771   3.439   4.700   1.374
 4603TIP3   OH213772   0.362   3.318   4.858
 4603TIP3    H113773   0.351   3.264   4.936
 4603TIP3    H213774   0.371   3.407   4.892
 4604TIP3   OH213775   0.562   4.406   4.354
 4604TIP3    H113776   0.498   4.440   4.416
 4604TIP3    H213777   0.644   4.451   4.377
 4605TIP3   OH213778   5.799   5.339   0.544
 4605TIP3    H113779   5.841   5.399   0.606
 4605TIP3    H213780   5.750   5.278   0.599
 4606TIP3   OH213781   0.933   2.090   4.570
 4606TIP3    H113782   0.978   2.172   4.592
 4606TIP3    H213783   0.877   2.073   4.646
 4607TIP3   OH213784   3.955   4.625   1.621
 4607TIP3    H113785   3.944   4.620   1.716
 4607TIP3    H213786   4.027   4.566   1.603
 4608TIP3   OH213787   3.742   4.040   3.895
 4608TIP3    H113788   3.728   4.122   3.846
 4608TIP3    H213789   3.744   4.067   3.987
 4609TIP3   OH213790   1.246   3.902   5.234
 4609TIP3    H113791   1.307   3.861   5.295
 4609TIP3    H213792   1.220   3.983   5.277
 4610TIP3   OH213793   2.330   1.528   0.281
 4610TIP3    H113794   2.260   1.477   0.322
 4610TIP3    H213795   2.286   1.604   0.243
 4611TIP3   OH213796   1.514   4.004   3.635
 4611TIP3    H113797   1.593   3.951   3.631
 4611TIP3    H213798   1.546   4.094   3.637
 4612TIP3   OH213799   6.847   6.167   4.282
 4612TIP3    H113800   6.942   6.150   4.282
 4612TIP3    H213801   6.812   6.098   4.339
 4613TIP3   OH213802   1.994   2.186   4.118
 4613TIP3    H113803   1.950   2.229   4.045
 4613TIP3    H213804   2.078   2.232   4.126
 4614TIP3   OH213805   1.194   4.421   3.699
 4614TIP3    H113806   1.170   4.379   3.781
 4614TIP3    H213807   1.274   4.469   3.719
 4615TIP3   OH213808   1.755   3.355   4.665
 4615TIP3    H113809   1.792   3.312   4.588
 4615TIP3    H213810   1.787   3.302   4.739
 4616TIP3   OH213811   5.804   2.853   3.261
 4616TIP3    H113812   5.732   2.812   3.310
 4616TIP3    H213813   5.775   2.852   3.170
 4617TIP3   OH213814   6.647   5.711   2.489
 4617TIP3    H113815   6.602   5.757   2.419
 4617TIP3    H213816   6.579   5.692   2.554
 4618TIP3   OH213817   0.382   4.830   0.720
 4618TIP3    H113818   0.475   4.809   0.713
 4618TIP3    H213819   0.345   4.801   0.636
 4619TIP3   OH213820   0.532   1.880   1.770
 4619TIP3    H113821   0.578   1.943   1.714
 4619TIP3    H213822   0.454   1.926   1.800
 4620TIP3   OH213823   5.563   4.025   1.367
 4620TIP3    H113824   5.631   3.978   1.415
 4620TIP3    H213825   5.497   3.959   1.348
 4621TIP3   OH213826   1.751   4.199   3.139
 4621TIP3    H113827   1.775   4.127   3.197
 4621TIP3    H213828   1.771   4.167   3.052
 4622TIP3   OH213829   5.184   1.669   0.868
 4622TIP3    H113830   5.110   1.728   0.854
 4622TIP3    H213831   5.257   1.711   0.823
 4623TIP3   OH213832   2.454   2.090   3.742
 4623TIP3    H113833   2.414   2.172   3.713
 4623TIP3    H213834   2.547   2.100   3.721
 4624TIP3   OH213835   4.482   3.053   3.136
 4624TIP3    H113836   4.397   3.049   3.093
 4624TIP3    H213837   4.545   3.055   3.065
 4625TIP3   OH213838   2.790   6.791   1.627
 4625TIP3    H113839   2.802   6.777   1.721
 4625TIP3    H213840   2.701   6.761   1.609
 4626TIP3   OH213841   1.802   6.439   3.928
 4626TIP3    H113842   1.759   6.470   3.849
 4626TIP3    H213843   1.744   6.466   3.999
 4627TIP3   OH213844   6.248   6.105   2.010
 4627TIP3    H113845   6.320   6.042   2.006
 4627TIP3    H213846   6.271   6.171   1.944
 4628TIP3   OH213847   5.431   2.543   5.137
 4628TIP3    H113848   5.480   2.525   5.217
 4628TIP3    H213849   5.339   2.544   5.164
 4629TIP3   OH213850   5.648   4.469   3.186
 4629TIP3    H113851   5.637   4.414   3.108
 4629TIP3    H213852   5.608   4.552   3.162
 4630TIP3   OH213853   1.542   6.720   5.542
 4630TIP3    H113854   1.636   6.717   5.562
 4630TIP3    H213855   1.513   6.629   5.547
 4631TIP3   OH213856   6.267   0.061   4.568
 4631TIP3    H113857   6.264   0.129   4.501
 4631TIP3    H213858   6.274   0.109   4.650
 4632TIP3   OH213859   3.039   2.018   2.459
 4632TIP3    H113860   3.011   2.017   2.551
 4632TIP3    H213861   3.101   1.944   2.453
 4633TIP3   OH213862   3.106   6.333   1.380
 4633TIP3    H113863   3.192   6.341   1.421
 4633TIP3    H213864   3.103   6.243   1.347
 4634TIP3   OH213865   5.890   6.439   0.220
 4634TIP3    H113866   5.936   6.372   0.170
 4634TIP3    H213867   5.827   6.390   0.273
 4635TIP3   OH213868   5.895   0.357   4.110
 4635TIP3    H113869   5.878   0.281   4.166
 4635TIP3    H213870   5.986   0.347   4.083
 4636TIP3   OH213871   1.024   4.407   2.303
 4636TIP3    H113872   0.943   4.457   2.314
 4636TIP3    H213873   0.995   4.318   2.286
 4637TIP3   OH213874   2.046   1.880   1.205
 4637TIP3    H113875   2.124   1.930   1.181
 4637TIP3    H213876   2.060   1.793   1.168
 4638TIP3   OH213877   3.920   6.098   1.264
 4638TIP3    H113878   3.828   6.106   1.239
 4638TIP3    H213879   3.918   6.049   1.346
 4639TIP3   OH213880   6.710   3.687   5.270
 4639TIP3    H113881   6.640   3.626   5.243
 4639TIP3    H213882   6.749   3.716   5.188
 4640TIP3   OH213883   0.803   2.020   0.452
 4640TIP3    H113884   0.768   1.943   0.497
 4640TIP3    H213885   0.833   1.986   0.367
 4641TIP3   OH213886   2.633   3.441   3.868
 4641TIP3    H113887   2.719   3.404   3.847
 4641TIP3    H213888   2.623   3.427   3.962
 4642TIP3   OH213889   4.593   2.269   1.364
 4642TIP3    H113890   4.661   2.264   1.297
 4642TIP3    H213891   4.547   2.351   1.346
 4643TIP3   OH213892   6.703   0.426   3.361
 4643TIP3    H113893   6.634   0.423   3.294
 4643TIP3    H213894   6.712   0.518   3.383
 4644TIP3   OH213895   3.369   1.388   2.002
 4644TIP3    H113896   3.460   1.393   2.032
 4644TIP3    H213897   3.332   1.312   2.046
 4645TIP3   OH213898   1.388   6.074   0.429
 4645TIP3    H113899   1.340   6.071   0.512
 4645TIP3    H213900   1.355   5.999   0.379
 4646TIP3   OH213901   0.487   0.933   5.399
 4646TIP3    H113902   0.563   0.942   5.458
 4646TIP3    H213903   0.521   0.886   5.323
 4647TIP3   OH213904   1.183   0.712   3.023
 4647TIP3    H113905   1.227   0.768   3.086
 4647TIP3    H213906   1.092   0.707   3.054
 4648TIP3   OH213907   6.336   1.643   2.795
 4648TIP3    H113908   6.372   1.669   2.879
 4648TIP3    H213909   6.348   1.720   2.739
 4649TIP3   OH213910   3.531   2.318   1.693
 4649TIP3    H113911   3.544   2.260   1.617
 4649TIP3    H213912   3.438   2.309   1.713
 4650TIP3   OH213913   1.004   3.457   4.312
 4650TIP3    H113914   1.091   3.420   4.297
 4650TIP3    H213915   1.013   3.511   4.390
 4651TIP3   OH213916   4.686   3.098   2.951
 4651TIP3    H113917   4.639   3.115   2.869
 4651TIP3    H213918   4.752   3.167   2.955
 4652TIP3   OH213919   4.735   0.671   4.836
 4652TIP3    H113920   4.815   0.704   4.877
 4652TIP3    H213921   4.692   0.749   4.801
 4653TIP3   OH213922   3.785   0.999   1.183
 4653TIP3    H113923   3.704   1.036   1.147
 4653TIP3    H213924   3.839   1.075   1.204
 4654TIP3   OH213925   1.847   4.605   0.201
 4654TIP3    H113926   1.843   4.640   0.290
 4654TIP3    H213927   1.905   4.530   0.207
 4655TIP3   OH213928   0.444   2.403   3.406
 4655TIP3    H113929   0.415   2.332   3.348
 4655TIP3    H213930   0.372   2.414   3.468
 4656TIP3   OH213931   1.437   0.172   0.979
 4656TIP3    H113932   1.531   0.158   0.967
 4656TIP3    H213933   1.415   0.240   0.914
 4657TIP3   OH213934   4.740   1.443   4.735
 4657TIP3    H113935   4.684   1.365   4.735
 4657TIP3    H213936   4.819   1.416   4.782
 4658TIP3   OH213937   2.081   3.021   0.434
 4658TIP3    H113938   2.084   3.095   0.373
 4658TIP3    H213939   2.121   2.949   0.385
 4659TIP3   OH213940   2.536   3.039   3.883
 4659TIP3    H113941   2.541   3.047   3.788
 4659TIP3    H213942   2.478   3.110   3.910
 4660TIP3   OH213943   5.114   3.866   2.624
 4660TIP3    H113944   5.201   3.874   2.664
 4660TIP3    H213945   5.114   3.931   2.554
 4661TIP3   OH213946   4.342   6.396   3.224
 4661TIP3    H113947   4.311   6.465   3.165
 4661TIP3    H213948   4.437   6.408   3.227
 4662TIP3   OH213949   6.176   3.945   4.102
 4662TIP3    H113950   6.193   3.910   4.015
 4662TIP3    H213951   6.124   3.877   4.145
 4663TIP3   OH213952   6.712   0.337   0.854
 4663TIP3    H113953   6.648   0.392   0.808
 4663TIP3    H213954   6.694   0.353   0.947
 4664TIP3   OH213955   4.384   3.818   2.467
 4664TIP3    H113956   4.411   3.908   2.450
 4664TIP3    H213957   4.377   3.778   2.380
 4665TIP3   OH213958   6.762   6.356   4.460
 4665TIP3    H113959   6.782   6.285   4.399
 4665TIP3    H213960   6.745   6.432   4.404
 4666TIP3   OH213961   5.704   0.588   2.649
 4666TIP3    H113962   5.625   0.542   2.619
 4666TIP3    H213963   5.729   0.541   2.729
 4667TIP3   OH213964   1.698   3.617   5.737
 4667TIP3    H113965   1.728   3.526   5.744
 4667TIP3    H213966   1.774   3.669   5.765
 4668TIP3   OH213967   2.298   6.237   1.018
 4668TIP3    H113968   2.324   6.328   1.008
 4668TIP3    H213969   2.207   6.240   1.045
 4669TIP3   OH213970   6.562   0.927   1.781
 4669TIP3    H113971   6.547   0.867   1.708
 4669TIP3    H213972   6.653   0.912   1.807
 4670TIP3   OH213973   0.234   3.494   5.788
 4670TIP3    H113974   0.193   3.525   5.707
 4670TIP3    H213975   0.321   3.534   5.787
 4671TIP3   OH213976   3.939   2.647   5.057
 4671TIP3    H113977   3.846   2.655   5.079
 4671TIP3    H213978   3.943   2.575   4.995
 4672TIP3   OH213979   7.051   0.279   4.210
 4672TIP3    H113980   6.970   0.244   4.173
 4672TIP3    H213981   7.094   0.203   4.250
 4673TIP3   OH213982   1.482   1.422   2.199
 4673TIP3    H113983   1.408   1.366   2.178
 4673TIP3    H213984   1.472   1.441   2.293
 4674TIP3   OH213985   7.104   2.130   0.910
 4674TIP3    H113986   7.012   2.151   0.896
 4674TIP3    H213987   7.146   2.215   0.927
 4675TIP3   OH213988   1.052   4.702   1.517
 4675TIP3    H113989   1.115   4.653   1.570
 4675TIP3    H213990   1.037   4.783   1.566
 4676TIP3   OH213991   0.624   6.212   0.230
 4676TIP3    H113992   0.537   6.207   0.271
 4676TIP3    H213993   0.630   6.132   0.178
 4677TIP3   OH213994   6.166   2.411   2.086
 4677TIP3    H113995   6.072   2.396   2.078
 4677TIP3    H213996   6.175   2.506   2.096
 4678TIP3   OH213997   0.095   4.611   2.843
 4678TIP3    H113998   0.014   4.606   2.894
 4678TIP3    H213999   0.070   4.659   2.764
 4679TIP3   OH214000   3.227   3.736   5.789
 4679TIP3    H114001   3.261   3.815   5.832
 4679TIP3    H214002   3.197   3.767   5.703
 4680TIP3   OH214003   2.028   0.253   3.756
 4680TIP3    H114004   2.121   0.275   3.758
 4680TIP3    H214005   1.991   0.296   3.834
 4681TIP3   OH214006   3.459   0.586   0.727
 4681TIP3    H114007   3.423   0.654   0.783
 4681TIP3    H214008   3.539   0.624   0.691
 4682TIP3   OH214009   7.072   2.780   2.736
 4682TIP3    H114010   7.055   2.697   2.691
 4682TIP3    H214011   7.156   2.767   2.780
 4683TIP3   OH214012   3.341   3.502   4.635
 4683TIP3    H114013   3.431   3.472   4.624
 4683TIP3    H214014   3.339   3.539   4.724
 4684TIP3   OH214015   2.735   0.589   5.373
 4684TIP3    H114016   2.663   0.619   5.429
 4684TIP3    H214017   2.776   0.519   5.423
 4685TIP3   OH214018   0.140   6.065   3.150
 4685TIP3    H114019   0.219   6.032   3.107
 4685TIP3    H214020   0.159   6.057   3.244
 4686TIP3   OH214021   0.705   5.904   1.095
 4686TIP3    H114022   0.686   5.881   1.004
 4686TIP3    H214023   0.654   5.983   1.111
 4687TIP3   OH214024   2.529   0.525   1.194
 4687TIP3    H114025   2.529   0.525   1.290
 4687TIP3    H214026   2.468   0.595   1.170
 4688TIP3   OH214027   1.722   0.555   1.387
 4688TIP3    H114028   1.726   0.626   1.323
 4688TIP3    H214029   1.658   0.584   1.452
 4689TIP3   OH214030   2.195   5.212   2.065
 4689TIP3    H114031   2.233   5.187   1.981
 4689TIP3    H214032   2.261   5.186   2.129
 4690TIP3   OH214033   3.916   3.875   2.770
 4690TIP3    H114034   3.924   3.861   2.864
 4690TIP3    H214035   3.995   3.836   2.733
 4691TIP3   OH214036   1.450   4.190   2.180
 4691TIP3    H114037   1.424   4.204   2.271
 4691TIP3    H214038   1.439   4.275   2.138
 4692TIP3   OH214039   0.629   1.696   5.528
 4692TIP3    H114040   0.553   1.692   5.586
 4692TIP3    H214041   0.701   1.726   5.583
 4693TIP3   OH214042   5.393   3.608   4.842
 4693TIP3    H114043   5.303   3.576   4.836
 4693TIP3    H214044   5.420   3.587   4.932
 4694TIP3   OH214045  -0.031   3.937   4.673
 4694TIP3    H114046  -0.028   3.978   4.760
 4694TIP3    H214047   0.022   3.858   4.682
 4695TIP3   OH214048   1.275   3.657   4.413
 4695TIP3    H114049   1.304   3.730   4.358
 4695TIP3    H214050   1.249   3.589   4.352
 4696TIP3   OH214051   4.969   2.185   2.274
 4696TIP3    H114052   4.977   2.177   2.369
 4696TIP3    H214053   4.898   2.124   2.250
 4697TIP3   OH214054   5.785   0.008   5.709
 4697TIP3    H114055   5.847   0.079   5.690
 4697TIP3    H214056   5.764  -0.029   5.623
 4698TIP3   OH214057   0.158   2.236   2.252
 4698TIP3    H114058   0.195   2.309   2.301
 4698TIP3    H214059   0.069   2.228   2.285
 4699TIP3   OH214060   2.717   1.092   0.296
 4699TIP3    H114061   2.724   1.112   0.390
 4699TIP3    H214062   2.765   1.010   0.285
 4700TIP3   OH214063   4.956   3.104   1.801
 4700TIP3    H114064   5.011   3.043   1.850
 4700TIP3    H214065   4.873   3.103   1.848
 4701TIP3   OH214066   4.023   6.065   2.246
 4701TIP3    H114067   4.112   6.089   2.218
 4701TIP3    H214068   4.036   6.018   2.328
 4702TIP3   OH214069   4.200   0.953   0.874
 4702TIP3    H114070   4.158   0.964   0.960
 4702TIP3    H214071   4.232   1.041   0.852
 4703TIP3   OH214072   6.708   1.466   5.078
 4703TIP3    H114073   6.638   1.400   5.085
 4703TIP3    H214074   6.789   1.414   5.080
 4704TIP3   OH214075   0.905   3.817   1.181
 4704TIP3    H114076   0.900   3.728   1.147
 4704TIP3    H214077   0.996   3.827   1.210
 4705TIP3   OH214078   4.870   0.789   2.195
 4705TIP3    H114079   4.965   0.777   2.188
 4705TIP3    H214080   4.834   0.731   2.128
 4706TIP3   OH214081   0.525   0.239   0.462
 4706TIP3    H114082   0.549   0.146   0.464
 4706TIP3    H214083   0.432   0.240   0.487
 4707TIP3   OH214084   5.556   1.833   2.988
 4707TIP3    H114085   5.533   1.890   2.914
 4707TIP3    H214086   5.548   1.744   2.953
 4708TIP3   OH214087   7.018   3.948   5.901
 4708TIP3    H114088   7.008   3.942   5.806
 4708TIP3    H214089   7.080   4.020   5.914
 4709TIP3   OH214090   4.916   5.849   0.607
 4709TIP3    H114091   4.913   5.883   0.696
 4709TIP3    H214092   4.824   5.830   0.585
 4710TIP3   OH214093   0.555   3.832   1.460
 4710TIP3    H114094   0.505   3.863   1.536
 4710TIP3    H214095   0.584   3.912   1.416
 4711TIP3   OH214096   4.392   3.505   1.980
 4711TIP3    H114097   4.417   3.529   1.891
 4711TIP3    H214098   4.302   3.534   1.989
 4712TIP3   OH214099   5.562   2.764   1.539
 4712TIP3    H114100   5.548   2.839   1.481
 4712TIP3    H214101   5.651   2.776   1.573
 4713TIP3   OH214102   6.831   1.527   5.534
 4713TIP3    H114103   6.909   1.531   5.478
 4713TIP3    H214104   6.817   1.433   5.548
 4714TIP3   OH214105   0.969   4.720   5.543
 4714TIP3    H114106   0.982   4.680   5.457
 4714TIP3    H214107   0.899   4.670   5.583
 4715TIP3   OH214108   6.515   5.692   0.211
 4715TIP3    H114109   6.544   5.742   0.135
 4715TIP3    H214110   6.419   5.691   0.205
 4716TIP3   OH214111   6.642   2.954   4.166
 4716TIP3    H114112   6.565   2.899   4.153
 4716TIP3    H214113   6.653   2.959   4.261
 4717TIP3   OH214114   4.838   5.787   1.188
 4717TIP3    H114115   4.836   5.882   1.190
 4717TIP3    H214116   4.752   5.760   1.221
 4718TIP3   OH214117   1.858   1.492   0.376
 4718TIP3    H114118   1.834   1.422   0.435
 4718TIP3    H214119   1.781   1.549   0.372
 4719TIP3   OH214120   6.947   1.629   0.359
 4719TIP3    H114121   7.027   1.586   0.329
 4719TIP3    H214122   6.892   1.634   0.280
 4720TIP3   OH214123   6.735   5.745   0.382
 4720TIP3    H114124   6.711   5.837   0.396
 4720TIP3    H214125   6.819   5.735   0.425
 4721TIP3   OH214126   1.291   4.129   5.392
 4721TIP3    H114127   1.368   4.148   5.339
 4721TIP3    H214128   1.304   4.179   5.473
 4722TIP3   OH214129   3.968   4.862   3.932
 4722TIP3    H114130   4.029   4.800   3.972
 4722TIP3    H214131   3.975   4.845   3.838
 4723TIP3   OH214132   4.496   0.243   2.013
 4723TIP3    H114133   4.563   0.174   2.016
 4723TIP3    H214134   4.539   0.316   1.970
 4724TIP3   OH214135   2.530   4.247   3.418
 4724TIP3    H114136   2.590   4.219   3.487
 4724TIP3    H214137   2.472   4.173   3.405
 4725TIP3   OH214138   6.481   3.829   4.240
 4725TIP3    H114139   6.556   3.818   4.182
 4725TIP3    H214140   6.461   3.923   4.235
 4726TIP3   OH214141   4.425   6.581   0.963
 4726TIP3    H114142   4.500   6.537   1.003
 4726TIP3    H214143   4.438   6.674   0.982
 4727TIP3   OH214144   1.225   4.124   0.425
 4727TIP3    H114145   1.285   4.056   0.456
 4727TIP3    H214146   1.256   4.145   0.337
 4728TIP3   OH214147   4.166   6.029   1.852
 4728TIP3    H114148   4.247   6.033   1.801
 4728TIP3    H214149   4.156   6.117   1.888
 4729TIP3   OH214150   4.597   0.939   2.636
 4729TIP3    H114151   4.539   1.014   2.629
 4729TIP3    H214152   4.638   0.948   2.722
 4730TIP3   OH214153   6.513   0.970   5.353
 4730TIP3    H114154   6.451   0.979   5.281
 4730TIP3    H214155   6.563   0.891   5.333
 4731TIP3   OH214156   1.431   0.929   5.209
 4731TIP3    H114157   1.464   0.972   5.287
 4731TIP3    H214158   1.443   0.836   5.226
 4732TIP3   OH214159   4.650   5.576   3.944
 4732TIP3    H114160   4.638   5.539   4.031
 4732TIP3    H214161   4.739   5.611   3.944
 4733TIP3   OH214162   4.020   2.074   2.823
 4733TIP3    H114163   3.955   2.087   2.754
 4733TIP3    H214164   4.078   2.151   2.816
 4734TIP3   OH214165   5.555   0.226   2.713
 4734TIP3    H114166   5.624   0.175   2.756
 4734TIP3    H214167   5.538   0.299   2.773
 4735TIP3   OH214168   7.030   2.879   4.654
 4735TIP3    H114169   7.030   2.971   4.682
 4735TIP3    H214170   6.939   2.851   4.661
 4736TIP3   OH214171   5.277   0.856   3.710
 4736TIP3    H114172   5.275   0.839   3.804
 4736TIP3    H214173   5.192   0.824   3.678
 4737TIP3   OH214174   4.272   3.511   4.839
 4737TIP3    H114175   4.330   3.543   4.770
 4737TIP3    H214176   4.331   3.470   4.902
 4738TIP3   OH214177   6.671   0.653   3.014
 4738TIP3    H114178   6.621   0.722   2.970
 4738TIP3    H214179   6.739   0.701   3.062
 4739TIP3   OH214180   0.840   5.138   0.088
 4739TIP3    H114181   0.860   5.133   0.181
 4739TIP3    H214182   0.762   5.083   0.078
 4740TIP3   OH214183   1.324   2.225   2.877
 4740TIP3    H114184   1.283   2.310   2.889
 4740TIP3    H214185   1.367   2.207   2.961
 4741TIP3   OH214186   7.177   0.943   2.679
 4741TIP3    H114187   7.265   0.905   2.676
 4741TIP3    H214188   7.119   0.870   2.697
 4742TIP3   OH214189   4.866   5.948   4.156
 4742TIP3    H114190   4.843   5.948   4.063
 4742TIP3    H214191   4.961   5.957   4.158
 4743TIP3   OH214192   5.035   3.350   2.739
 4743TIP3    H114193   5.064   3.273   2.689
 4743TIP3    H214194   5.036   3.422   2.676
 4744TIP3   OH214195   1.958   6.353   3.054
 4744TIP3    H114196   1.892   6.301   3.099
 4744TIP3    H214197   2.019   6.288   3.018
 4745TIP3   OH214198   2.518   2.701   3.819
 4745TIP3    H114199   2.584   2.659   3.764
 4745TIP3    H214200   2.489   2.776   3.768
 4746TIP3   OH214201   7.207   2.658   1.023
 4746TIP3    H114202   7.245   2.745   1.011
 4746TIP3    H214203   7.127   2.673   1.073
 4747TIP3   OH214204   0.421   2.277   5.375
 4747TIP3    H114205   0.348   2.221   5.399
 4747TIP3    H214206   0.399   2.310   5.288
 4748TIP3   OH214207   5.385   5.417   4.041
 4748TIP3    H114208   5.316   5.372   4.089
 4748TIP3    H214209   5.466   5.378   4.073
 4749TIP3   OH214210   0.712   4.850   1.643
 4749TIP3    H114211   0.658   4.929   1.641
 4749TIP3    H214212   0.669   4.790   1.581
 4750TIP3   OH214213   4.385   4.081  -0.020
 4750TIP3    H114214   4.324   4.008  -0.023
 4750TIP3    H214215   4.407   4.090   0.073
 4751TIP3   OH214216   0.068   3.022   4.493
 4751TIP3    H114217   0.002   3.073   4.445
 4751TIP3    H214218   0.149   3.070   4.479
 4752TIP3   OH214219   0.996   3.405   2.274
 4752TIP3    H114220   0.917   3.355   2.294
 4752TIP3    H214221   1.063   3.371   2.333
 4753TIP3   OH214222   0.081   4.912   2.019
 4753TIP3    H114223   0.175   4.906   2.034
 4753TIP3    H214224   0.060   5.004   2.035
 4754TIP3   OH214225   4.881   5.393   5.234
 4754TIP3    H114226   4.853   5.428   5.150
 4754TIP3    H214227   4.963   5.348   5.215
 4755TIP3   OH214228   4.479   3.127   3.715
 4755TIP3    H114229   4.509   3.040   3.688
 4755TIP3    H214230   4.556   3.182   3.710
 4756TIP3   OH214231   0.706   3.600   0.644
 4756TIP3    H114232   0.626   3.625   0.691
 4756TIP3    H214233   0.729   3.677   0.593
 4757TIP3   OH214234   0.692   1.054   4.449
 4757TIP3    H114235   0.692   1.101   4.532
 4757TIP3    H214236   0.641   1.110   4.390
 4758TIP3   OH214237   6.099   2.147   4.667
 4758TIP3    H114238   6.124   2.055   4.661
 4758TIP3    H214239   6.179   2.193   4.690
 4759TIP3   OH214240   7.007   5.728   3.292
 4759TIP3    H114241   7.027   5.770   3.208
 4759TIP3    H214242   6.924   5.767   3.319
 4760TIP3   OH214243   4.633   5.648   0.717
 4760TIP3    H114244   4.595   5.729   0.684
 4760TIP3    H214245   4.667   5.604   0.639
 4761TIP3   OH214246   3.604   5.119   0.185
 4761TIP3    H114247   3.685   5.068   0.184
 4761TIP3    H214248   3.554   5.084   0.259
 4762TIP3   OH214249   0.809   6.543   0.303
 4762TIP3    H114250   0.800   6.448   0.307
 4762TIP3    H214251   0.719   6.576   0.301
 4763TIP3   OH214252   0.456   5.867   2.319
 4763TIP3    H114253   0.419   5.840   2.235
 4763TIP3    H214254   0.412   5.812   2.384
 4764TIP3   OH214255   0.228   6.376   5.156
 4764TIP3    H114256   0.231   6.375   5.251
 4764TIP3    H214257   0.169   6.303   5.133
 4765TIP3   OH214258   1.794   0.519   1.674
 4765TIP3    H114259   1.732   0.468   1.727
 4765TIP3    H214260   1.777   0.490   1.584
 4766TIP3   OH214261   4.369   4.453   1.309
 4766TIP3    H114262   4.288   4.447   1.359
 4766TIP3    H214263   4.392   4.546   1.312
 4767TIP3   OH214264   0.413   1.383   1.922
 4767TIP3    H114265   0.424   1.447   1.992
 4767TIP3    H214266   0.366   1.430   1.853
 4768TIP3   OH214267   4.313   5.318   5.747
 4768TIP3    H114268   4.229   5.272   5.757
 4768TIP3    H214269   4.294   5.388   5.684
 4769TIP3   OH214270   7.156   6.334   5.864
 4769TIP3    H114271   7.128   6.248   5.832
 4769TIP3    H214272   7.083   6.392   5.841
 4770TIP3   OH214273   1.599   3.864   4.049
 4770TIP3    H114274   1.664   3.870   3.979
 4770TIP3    H214275   1.516   3.850   4.004
 4771TIP3   OH214276   2.663   0.923   5.432
 4771TIP3    H114277   2.602   0.974   5.379
 4771TIP3    H214278   2.621   0.837   5.442
 4772TIP3   OH214279   3.828   6.215   4.870
 4772TIP3    H114280   3.787   6.291   4.827
 4772TIP3    H214281   3.896   6.253   4.926
 4773TIP3   OH214282   3.764   5.306   5.800
 4773TIP3    H114283   3.750   5.379   5.861
 4773TIP3    H214284   3.738   5.341   5.714
 4774TIP3   OH214285   2.059   3.059   3.607
 4774TIP3    H114286   2.066   2.981   3.662
 4774TIP3    H214287   2.149   3.080   3.582
 4775TIP3   OH214288   5.649   4.438   5.274
 4775TIP3    H114289   5.688   4.361   5.231
 4775TIP3    H214290   5.720   4.502   5.277
 4776TIP3   OH214291   1.545   5.197   4.249
 4776TIP3    H114292   1.488   5.162   4.319
 4776TIP3    H214293   1.527   5.140   4.174
 4777TIP3   OH214294   3.047   3.335   1.546
 4777TIP3    H114295   2.997   3.307   1.469
 4777TIP3    H214296   2.987   3.324   1.619
 4778TIP3   OH214297   3.200   3.125   4.268
 4778TIP3    H114298   3.127   3.155   4.321
 4778TIP3    H214299   3.188   3.167   4.183
 4779TIP3   OH214300   1.895   5.797   2.756
 4779TIP3    H114301   1.952   5.837   2.691
 4779TIP3    H214302   1.808   5.799   2.716
 4780TIP3   OH214303   1.727   6.532   0.772
 4780TIP3    H114304   1.676   6.611   0.755
 4780TIP3    H214305   1.786   6.524   0.697
 4781TIP3   OH214306   5.673   2.685   4.261
 4781TIP3    H114307   5.622   2.763   4.237
 4781TIP3    H214308   5.624   2.612   4.222
 4782TIP3   OH214309   3.589   0.582   3.683
 4782TIP3    H114310   3.615   0.619   3.768
 4782TIP3    H214311   3.644   0.625   3.619
 4783TIP3   OH214312   3.778   0.233   5.286
 4783TIP3    H114313   3.842   0.297   5.320
 4783TIP3    H214314   3.767   0.171   5.357
 4784TIP3   OH214315   6.000   3.797   3.069
 4784TIP3    H114316   5.918   3.844   3.083
 4784TIP3    H214317   5.974   3.711   3.037
 4785TIP3   OH214318   4.477   5.561   2.889
 4785TIP3    H114319   4.413   5.587   2.955
 4785TIP3    H214320   4.556   5.539   2.939
 4786TIP3   OH214321   6.888   1.768   3.644
 4786TIP3    H114322   6.872   1.683   3.685
 4786TIP3    H214323   6.974   1.795   3.677
 4787TIP3   OH214324   6.171   2.686   2.265
 4787TIP3    H114325   6.078   2.694   2.286
 4787TIP3    H214326   6.210   2.645   2.342
 4788TIP3   OH214327   5.648   1.122   0.408
 4788TIP3    H114328   5.669   1.041   0.362
 4788TIP3    H214329   5.643   1.096   0.501
 4789TIP3   OH214330   0.221   4.612   4.757
 4789TIP3    H114331   0.239   4.521   4.733
 4789TIP3    H214332   0.126   4.621   4.745
 4790TIP3   OH214333   4.802   3.614   2.513
 4790TIP3    H114334   4.712   3.617   2.546
 4790TIP3    H214335   4.795   3.636   2.420
 4791TIP3   OH214336   4.835   4.909   0.195
 4791TIP3    H114337   4.763   4.970   0.210
 4791TIP3    H214338   4.831   4.849   0.269
 4792TIP3   OH214339   7.205   6.385   2.899
 4792TIP3    H114340   7.155   6.316   2.942
 4792TIP3    H214341   7.270   6.339   2.846
 4793TIP3   OH214342   1.847   2.704   0.862
 4793TIP3    H114343   1.838   2.799   0.861
 4793TIP3    H214344   1.877   2.683   0.950
 4794TIP3   OH214345   1.984   6.055   1.814
 4794TIP3    H114346   1.916   6.017   1.759
 4794TIP3    H214347   2.057   5.994   1.807
 4795TIP3   OH214348   7.009   5.302   2.873
 4795TIP3    H114349   7.044   5.347   2.950
 4795TIP3    H214350   7.078   5.239   2.850
 4796TIP3   OH214351   6.193   3.412   0.126
 4796TIP3    H114352   6.272   3.368   0.093
 4796TIP3    H214353   6.210   3.425   0.219
 4797TIP3   OH214354   0.708   5.743   1.789
 4797TIP3    H114355   0.734   5.822   1.741
 4797TIP3    H214356   0.619   5.763   1.820
 4798TIP3   OH214357   0.313   6.245   0.769
 4798TIP3    H114358   0.275   6.328   0.797
 4798TIP3    H214359   0.245   6.180   0.785
 4799TIP3   OH214360   0.032   1.910   4.601
 4799TIP3    H114361   0.066   1.831   4.560
 4799TIP3    H214362  -0.053   1.925   4.557
 4800TIP3   OH214363   0.132   3.228   5.681
 4800TIP3    H114364   0.171   3.147   5.713
 4800TIP3    H214365   0.172   3.297   5.734
 4801TIP3   OH214366   0.859   3.145   2.862
 4801TIP3    H114367   0.936   3.190   2.898
 4801TIP3    H214368   0.891   3.058   2.838
 4802TIP3   OH214369   5.165   1.069   4.200
 4802TIP3    H114370   5.131   0.980   4.213
 4802TIP3    H214371   5.224   1.083   4.273
 4803TIP3   OH214372   3.219   5.309   1.101
 4803TIP3    H114373   3.124   5.317   1.087
 4803TIP3    H214374   3.253   5.396   1.080
 4804TIP3   OH214375   6.711   6.034   0.175
 4804TIP3    H114376   6.777   5.977   0.137
 4804TIP3    H214377   6.758   6.088   0.238
 4805TIP3   OH214378   0.725   6.676   4.826
 4805TIP3    H114379   0.747   6.655   4.916
 4805TIP3    H214380   0.675   6.601   4.795
 4806TIP3   OH214381   4.998   4.026   5.234
 4806TIP3    H114382   5.023   3.935   5.249
 4806TIP3    H214383   4.928   4.042   5.297
 4807TIP3   OH214384   3.031   3.966   4.149
 4807TIP3    H114385   3.067   4.046   4.188
 4807TIP3    H214386   2.986   3.922   4.222
 4808TIP3   OH214387   5.086   0.732   0.662
 4808TIP3    H114388   5.102   0.774   0.578
 4808TIP3    H214389   5.008   0.776   0.696
 4809TIP3   OH214390   6.270   1.408   2.627
 4809TIP3    H114391   6.299   1.447   2.545
 4809TIP3    H214392   6.306   1.464   2.696
 4810TIP3   OH214393   5.824   5.481   1.917
 4810TIP3    H114394   5.880   5.503   1.843
 4810TIP3    H214395   5.762   5.555   1.923
 4811TIP3   OH214396   0.647   4.180   3.754
 4811TIP3    H114397   0.639   4.267   3.715
 4811TIP3    H214398   0.737   4.154   3.735
 4812TIP3   OH214399   3.280   3.269   5.736
 4812TIP3    H114400   3.224   3.320   5.794
 4812TIP3    H214401   3.224   3.200   5.702
 4813TIP3   OH214402   5.584   3.101   3.271
 4813TIP3    H114403   5.520   3.106   3.200
 4813TIP3    H214404   5.607   3.008   3.275
 4814TIP3   OH214405   2.404   3.394   5.354
 4814TIP3    H114406   2.485   3.445   5.361
 4814TIP3    H214407   2.382   3.398   5.261
 4815TIP3   OH214408   6.638   2.674   2.800
 4815TIP3    H114409   6.567   2.699   2.859
 4815TIP3    H214410   6.599   2.673   2.713
 4816TIP3   OH214411   2.619   6.299   0.809
 4816TIP3    H114412   2.567   6.291   0.729
 4816TIP3    H214413   2.633   6.393   0.819
 4817TIP3   OH214414   4.593   4.348   5.865
 4817TIP3    H114415   4.580   4.424   5.921
 4817TIP3    H214416   4.520   4.290   5.885
 4818TIP3   OH214417   2.402   5.923   5.318
 4818TIP3    H114418   2.435   5.995   5.372
 4818TIP3    H214419   2.439   5.940   5.231
 4819TIP3   OH214420   4.627   0.124   0.909
 4819TIP3    H114421   4.591   0.126   0.998
 4819TIP3    H214422   4.564   0.072   0.859
 4820TIP3   OH214423   4.860   1.192   2.032
 4820TIP3    H114424   4.953   1.203   2.017
 4820TIP3    H214425   4.841   1.246   2.109
 4821TIP3   OH214426   3.714   2.227   5.496
 4821TIP3    H114427   3.702   2.149   5.551
 4821TIP3    H214428   3.809   2.236   5.488
 4822TIP3   OH214429   6.547   1.984   1.624
 4822TIP3    H114430   6.471   1.973   1.682
 4822TIP3    H214431   6.533   1.920   1.554
 4823TIP3   OH214432   1.413   1.860   1.267
 4823TIP3    H114433   1.425   1.772   1.305
 4823TIP3    H214434   1.403   1.844   1.173
 4824TIP3   OH214435   1.826   6.713   4.826
 4824TIP3    H114436   1.750   6.703   4.769
 4824TIP3    H214437   1.828   6.634   4.879
 4825TIP3   OH214438   1.498   1.748   5.184
 4825TIP3    H114439   1.565   1.815   5.192
 4825TIP3    H214440   1.465   1.737   5.274
 4826TIP3   OH214441   4.300   5.576   0.567
 4826TIP3    H114442   4.330   5.581   0.477
 4826TIP3    H214443   4.379   5.588   0.620
 4827TIP3   OH214444   2.535   2.110   4.700
 4827TIP3    H114445   2.538   2.023   4.661
 4827TIP3    H214446   2.627   2.137   4.706
 4828TIP3   OH214447   2.781   3.183   4.379
 4828TIP3    H114448   2.857   3.124   4.382
 4828TIP3    H214449   2.761   3.200   4.471
 4829TIP3   OH214450   6.488   0.400   1.496
 4829TIP3    H114451   6.398   0.405   1.529
 4829TIP3    H214452   6.537   0.356   1.566
 4830TIP3   OH214453   0.747   1.880   3.031
 4830TIP3    H114454   0.684   1.901   2.961
 4830TIP3    H214455   0.727   1.789   3.053
 4831TIP3   OH214456   3.224   3.993   3.490
 4831TIP3    H114457   3.147   3.978   3.545
 4831TIP3    H214458   3.191   3.986   3.400
 4832TIP3   OH214459   4.332   1.731   2.187
 4832TIP3    H114460   4.321   1.637   2.174
 4832TIP3    H214461   4.427   1.745   2.180
 4833TIP3   OH214462   1.493   5.642   5.670
 4833TIP3    H114463   1.521   5.559   5.632
 4833TIP3    H214464   1.411   5.622   5.716
 4834TIP3   OH214465   0.317   6.353   2.418
 4834TIP3    H114466   0.270   6.272   2.401
 4834TIP3    H214467   0.318   6.400   2.335
 4835TIP3   OH214468   3.340   3.708   2.676
 4835TIP3    H114469   3.372   3.797   2.692
 4835TIP3    H214470   3.325   3.704   2.582
 4836TIP3   OH214471   6.518   2.052   3.032
 4836TIP3    H114472   6.473   2.079   3.112
 4836TIP3    H214473   6.562   1.970   3.056
 4837TIP3   OH214474   6.874   4.810   1.767
 4837TIP3    H114475   6.808   4.793   1.834
 4837TIP3    H214476   6.956   4.780   1.806
 4838TIP3   OH214477   0.831   2.834   4.607
 4838TIP3    H114478   0.749   2.881   4.624
 4838TIP3    H214479   0.899   2.888   4.648
 4839TIP3   OH214480   6.107   6.265   3.877
 4839TIP3    H114481   6.046   6.317   3.930
 4839TIP3    H214482   6.132   6.193   3.934
 4840TIP3   OH214483   1.421   4.170   2.899
 4840TIP3    H114484   1.454   4.252   2.936
 4840TIP3    H214485   1.488   4.143   2.837
 4841TIP3   OH214486   6.646   3.430   5.848
 4841TIP3    H114487   6.610   3.348   5.812
 4841TIP3    H214488   6.734   3.407   5.877
 4842TIP3   OH214489   0.281   6.055   4.460
 4842TIP3    H114490   0.205   6.111   4.474
 4842TIP3    H214491   0.271   5.984   4.522
 4843TIP3   OH214492   0.149   4.505   3.759
 4843TIP3    H114493   0.156   4.501   3.663
 4843TIP3    H214494   0.063   4.543   3.775
 4844TIP3   OH214495   2.877   3.559   0.360
 4844TIP3    H114496   2.908   3.471   0.339
 4844TIP3    H214497   2.956   3.606   0.387
 4845TIP3   OH214498   2.685   5.623   4.969
 4845TIP3    H114499   2.743   5.567   4.918
 4845TIP3    H214500   2.608   5.635   4.913
 4846TIP3   OH214501   3.246   5.092   0.605
 4846TIP3    H114502   3.193   5.146   0.663
 4846TIP3    H214503   3.326   5.142   0.591
 4847TIP3   OH214504   2.593   4.533   0.273
 4847TIP3    H114505   2.500   4.555   0.262
 4847TIP3    H214506   2.627   4.601   0.332
 4848TIP3   OH214507   4.757   0.003   0.395
 4848TIP3    H114508   4.738  -0.090   0.384
 4848TIP3    H214509   4.834   0.018   0.339
 4849TIP3   OH214510   5.748   4.105   2.704
 4849TIP3    H114511   5.707   4.191   2.695
 4849TIP3    H214512   5.796   4.093   2.621
 4850TIP3   OH214513   0.471   4.338   1.422
 4850TIP3    H114514   0.461   4.383   1.338
 4850TIP3    H214515   0.442   4.401   1.487
 4851TIP3   OH214516   1.795   4.592   1.384
 4851TIP3    H114517   1.731   4.569   1.451
 4851TIP3    H214518   1.868   4.630   1.434
 4852TIP3   OH214519   1.137   6.686   5.056
 4852TIP3    H114520   1.050   6.699   5.095
 4852TIP3    H214521   1.119   6.667   4.964
 4853TIP3   OH214522   6.620   4.907   4.473
 4853TIP3    H114523   6.624   4.813   4.453
 4853TIP3    H214524   6.547   4.915   4.535
 4854TIP3   OH214525   7.215   1.060   5.876
 4854TIP3    H114526   7.185   0.983   5.828
 4854TIP3    H214527   7.288   1.094   5.824
 4855TIP3   OH214528   6.708   1.156   0.599
 4855TIP3    H114529   6.797   1.134   0.627
 4855TIP3    H214530   6.720   1.205   0.517
 4856TIP3   OH214531   0.353   6.524   4.955
 4856TIP3    H114532   0.276   6.544   4.902
 4856TIP3    H214533   0.326   6.449   5.008
 4857TIP3   OH214534   3.369   3.949   1.307
 4857TIP3    H114535   3.451   3.988   1.337
 4857TIP3    H214536   3.309   4.023   1.299
 4858TIP3   OH214537   7.177   0.349   3.831
 4858TIP3    H114538   7.139   0.397   3.906
 4858TIP3    H214539   7.105   0.297   3.797
 4859TIP3   OH214540   0.614   2.478   1.799
 4859TIP3    H114541   0.520   2.484   1.781
 4859TIP3    H214542   0.655   2.485   1.713
 4860TIP3   OH214543   1.627   3.813   5.557
 4860TIP3    H114544   1.638   3.737   5.613
 4860TIP3    H214545   1.656   3.887   5.610
 4861TIP3   OH214546   2.784   4.956   5.155
 4861TIP3    H114547   2.845   4.911   5.097
 4861TIP3    H214548   2.753   5.031   5.105
 4862TIP3   OH214549   6.423   5.629   0.877
 4862TIP3    H114550   6.495   5.686   0.850
 4862TIP3    H214551   6.454   5.586   0.957
 4863TIP3   OH214552   3.180   1.847   1.740
 4863TIP3    H114553   3.148   1.887   1.821
 4863TIP3    H214554   3.123   1.884   1.672
 4864TIP3   OH214555   6.840   6.610   3.895
 4864TIP3    H114556   6.770   6.593   3.832
 4864TIP3    H214557   6.909   6.548   3.872
 4865TIP3   OH214558   6.754   4.362   2.161
 4865TIP3    H114559   6.692   4.432   2.183
 4865TIP3    H214560   6.840   4.403   2.173
 4866TIP3   OH214561   3.135   1.715   5.257
 4866TIP3    H114562   3.067   1.681   5.199
 4866TIP3    H214563   3.161   1.798   5.217
 4867TIP3   OH214564   2.289   4.451   0.291
 4867TIP3    H114565   2.199   4.475   0.268
 4867TIP3    H214566   2.332   4.437   0.207
 4868TIP3   OH214567   4.170   2.965   1.351
 4868TIP3    H114568   4.124   3.005   1.277
 4868TIP3    H214569   4.213   2.888   1.313
 4869TIP3   OH214570   3.855   3.934   4.669
 4869TIP3    H114571   3.861   3.927   4.574
 4869TIP3    H214572   3.942   3.911   4.701
 4870TIP3   OH214573   2.193   0.534   5.799
 4870TIP3    H114574   2.118   0.589   5.822
 4870TIP3    H214575   2.159   0.444   5.803
 4871TIP3   OH214576   2.596   3.666   2.133
 4871TIP3    H114577   2.639   3.583   2.113
 4871TIP3    H214578   2.652   3.707   2.199
 4872TIP3   OH214579   0.399   5.862   5.439
 4872TIP3    H114580   0.485   5.899   5.457
 4872TIP3    H214581   0.352   5.931   5.391
 4873TIP3   OH214582   5.347   6.354   3.277
 4873TIP3    H114583   5.319   6.443   3.297
 4873TIP3    H214584   5.333   6.346   3.182
 4874TIP3   OH214585   2.277   4.065   3.222
 4874TIP3    H114586   2.333   4.013   3.279
 4874TIP3    H214587   2.268   4.012   3.143
 4875TIP3   OH214588   5.933   4.480   4.001
 4875TIP3    H114589   5.990   4.425   4.055
 4875TIP3    H214590   5.982   4.561   3.988
 4876TIP3   OH214591   3.148   1.790   4.771
 4876TIP3    H114592   3.177   1.821   4.685
 4876TIP3    H214593   3.222   1.810   4.829
 4877TIP3   OH214594   1.589   3.089   4.179
 4877TIP3    H114595   1.599   3.000   4.211
 4877TIP3    H214596   1.638   3.143   4.242
 4878TIP3   OH214597   5.397   6.155   2.351
 4878TIP3    H114598   5.454   6.210   2.405
 4878TIP3    H214599   5.443   6.147   2.268
 4879TIP3   OH214600   5.456   1.646   5.674
 4879TIP3    H114601   5.514   1.720   5.687
 4879TIP3    H214602   5.377   1.684   5.635
 4880TIP3   OH214603   2.477  -0.015   4.649
 4880TIP3    H114604   2.490   0.065   4.700
 4880TIP3    H214605   2.459   0.016   4.560
 4881TIP3   OH214606   0.708   2.814   4.359
 4881TIP3    H114607   0.733   2.831   4.449
 4881TIP3    H214608   0.623   2.858   4.349
 4882TIP3   OH214609   2.709   3.481   5.354
 4882TIP3    H114610   2.740   3.564   5.320
 4882TIP3    H214611   2.755   3.471   5.438
 4883TIP3   OH214612   5.441   4.109   3.364
 4883TIP3    H114613   5.537   4.101   3.366
 4883TIP3    H214614   5.423   4.194   3.404
 4884TIP3   OH214615   1.407   0.633   1.514
 4884TIP3    H114616   1.396   0.577   1.437
 4884TIP3    H214617   1.321   0.635   1.555
 4885TIP3   OH214618   3.167   5.373   4.418
 4885TIP3    H114619   3.103   5.350   4.485
 4885TIP3    H214620   3.174   5.468   4.423
 4886TIP3   OH214621   5.944   2.284   3.270
 4886TIP3    H114622   5.933   2.322   3.183
 4886TIP3    H214623   5.947   2.359   3.330
 4887TIP3   OH214624   5.376   3.817   0.948
 4887TIP3    H114625   5.443   3.848   1.008
 4887TIP3    H214626   5.299   3.803   1.004
 4888TIP3   OH214627   5.135   5.356   1.017
 4888TIP3    H114628   5.063   5.401   1.063
 4888TIP3    H214629   5.144   5.404   0.935
 4889TIP3   OH214630   0.697   4.752   3.419
 4889TIP3    H114631   0.742   4.780   3.498
 4889TIP3    H214632   0.683   4.832   3.370
 4890TIP3   OH214633   1.620   2.068   5.729
 4890TIP3    H114634   1.658   2.154   5.712
 4890TIP3    H214635   1.530   2.075   5.697
 4891TIP3   OH214636   1.190   5.375   5.556
 4891TIP3    H114637   1.150   5.377   5.469
 4891TIP3    H214638   1.121   5.407   5.615
 4892TIP3   OH214639   4.615   1.780   2.279
 4892TIP3    H114640   4.674   1.784   2.203
 4892TIP3    H214641   4.644   1.703   2.328
 4893TIP3   OH214642   3.460   1.974   4.127
 4893TIP3    H114643   3.451   1.878   4.128
 4893TIP3    H214644   3.409   2.002   4.052
 4894TIP3   OH214645   4.579   5.619   4.225
 4894TIP3    H114646   4.506   5.670   4.262
 4894TIP3    H214647   4.557   5.528   4.244
 4895TIP3   OH214648   4.876   4.688   0.358
 4895TIP3    H114649   4.955   4.739   0.376
 4895TIP3    H214650   4.908   4.608   0.317
 4896TIP3   OH214651   3.954   0.038   2.931
 4896TIP3    H114652   3.980   0.126   2.960
 4896TIP3    H214653   3.902   0.053   2.852
 4897TIP3   OH214654   5.353   3.161   2.574
 4897TIP3    H114655   5.353   3.222   2.648
 4897TIP3    H214656   5.288   3.095   2.598
 4898TIP3   OH214657   6.487   4.455   5.453
 4898TIP3    H114658   6.418   4.474   5.389
 4898TIP3    H214659   6.441   4.430   5.532
 4899TIP3   OH214660   1.489   5.292   2.926
 4899TIP3    H114661   1.412   5.329   2.968
 4899TIP3    H214662   1.498   5.205   2.964
 4900TIP3   OH214663   3.979   3.291   5.296
 4900TIP3    H114664   3.970   3.250   5.209
 4900TIP3    H214665   3.966   3.384   5.280
 4901TIP3   OH214666   3.393   5.581   3.735
 4901TIP3    H114667   3.428   5.573   3.646
 4901TIP3    H214668   3.430   5.507   3.782
 4902TIP3   OH214669   1.840   6.633   3.291
 4902TIP3    H114670   1.768   6.644   3.352
 4902TIP3    H214671   1.821   6.695   3.220
 4903TIP3   OH214672   3.400   0.570   4.553
 4903TIP3    H114673   3.417   0.569   4.647
 4903TIP3    H214674   3.305   0.569   4.546
 4904TIP3   OH214675   6.766   2.045   0.787
 4904TIP3    H114676   6.762   2.115   0.851
 4904TIP3    H214677   6.761   2.090   0.702
 4905TIP3   OH214678   3.195   4.821   4.643
 4905TIP3    H114679   3.136   4.775   4.583
 4905TIP3    H214680   3.280   4.780   4.630
 4906TIP3   OH214681   4.116   5.338   4.156
 4906TIP3    H114682   4.028   5.366   4.182
 4906TIP3    H214683   4.174   5.402   4.197
 4907TIP3   OH214684   6.512   6.806   3.483
 4907TIP3    H114685   6.563   6.783   3.561
 4907TIP3    H214686   6.576   6.806   3.412
 4908TIP3   OH214687   5.868   6.507   1.614
 4908TIP3    H114688   5.816   6.444   1.565
 4908TIP3    H214689   5.938   6.532   1.553
 4909TIP3   OH214690   6.116   0.305   4.983
 4909TIP3    H114691   6.206   0.334   4.966
 4909TIP3    H214692   6.067   0.334   4.906
 4910TIP3   OH214693   4.261   0.255   0.845
 4910TIP3    H114694   4.251   0.225   0.754
 4910TIP3    H214695   4.344   0.302   0.845
 4911TIP3   OH214696   1.533   1.709   4.319
 4911TIP3    H114697   1.439   1.704   4.340
 4911TIP3    H214698   1.535   1.718   4.224
 4912TIP3   OH214699   2.685   1.698   3.874
 4912TIP3    H114700   2.669   1.694   3.780
 4912TIP3    H214701   2.753   1.764   3.884
 4913TIP3   OH214702   6.536   2.678   1.923
 4913TIP3    H114703   6.459   2.733   1.936
 4913TIP3    H214704   6.501   2.590   1.912
 4914TIP3   OH214705   3.888   1.876   5.841
 4914TIP3    H114706   3.942   1.904   5.767
 4914TIP3    H214707   3.899   1.782   5.845
 4915TIP3   OH214708   0.652   4.901   1.081
 4915TIP3    H114709   0.695   4.986   1.086
 4915TIP3    H214710   0.667   4.861   1.166
 4916TIP3   OH214711   5.541   1.567   3.386
 4916TIP3    H114712   5.517   1.624   3.312
 4916TIP3    H214713   5.618   1.520   3.355
 4917TIP3   OH214714   3.572   1.932   3.462
 4917TIP3    H114715   3.584   2.009   3.407
 4917TIP3    H214716   3.490   1.948   3.509
 4918TIP3   OH214717   0.301   5.647   1.496
 4918TIP3    H114718   0.266   5.626   1.583
 4918TIP3    H214719   0.233   5.617   1.435
 4919TIP3   OH214720   3.032   3.520   1.917
 4919TIP3    H114721   2.969   3.593   1.920
 4919TIP3    H214722   2.995   3.455   1.978
 4920TIP3   OH214723   2.612   2.356   2.102
 4920TIP3    H114724   2.569   2.325   2.181
 4920TIP3    H214725   2.554   2.423   2.066
 4921TIP3   OH214726   6.131   3.116   1.394
 4921TIP3    H114727   6.163   3.205   1.410
 4921TIP3    H214728   6.146   3.102   1.300
 4922TIP3   OH214729   2.974  -0.007   1.551
 4922TIP3    H114730   2.926   0.025   1.474
 4922TIP3    H214731   2.930   0.033   1.625
 4923TIP3   OH214732   1.645   4.222   1.362
 4923TIP3    H114733   1.733   4.252   1.384
 4923TIP3    H214734   1.591   4.302   1.366
 4924TIP3   OH214735   4.873   4.385   0.586
 4924TIP3    H114736   4.787   4.426   0.591
 4924TIP3    H214737   4.863   4.316   0.521
 4925TIP3   OH214738   6.189   3.651   4.812
 4925TIP3    H114739   6.202   3.646   4.906
 4925TIP3    H214740   6.125   3.582   4.792
 4926TIP3   OH214741   1.385   1.011   4.732
 4926TIP3    H114742   1.342   1.096   4.725
 4926TIP3    H214743   1.443   1.019   4.808
 4927TIP3   OH214744   0.247   0.229   1.947
 4927TIP3    H114745   0.282   0.169   1.881
 4927TIP3    H214746   0.212   0.172   2.015
 4928TIP3   OH214747   1.712   6.756   1.046
 4928TIP3    H114748   1.742   6.752   0.955
 4928TIP3    H214749   1.634   6.700   1.047
 4929TIP3   OH214750   0.990   3.986   2.467
 4929TIP3    H114751   0.906   3.943   2.479
 4929TIP3    H214752   1.055   3.916   2.477
 4930TIP3   OH214753   0.921   4.601   2.002
 4930TIP3    H114754   0.891   4.687   1.972
 4930TIP3    H214755   0.846   4.565   2.049
 4931TIP3   OH214756   5.273   1.725   2.757
 4931TIP3    H114757   5.304   1.728   2.667
 4931TIP3    H214758   5.335   1.667   2.802
 4932TIP3   OH214759   0.102   5.502   3.652
 4932TIP3    H114760   0.046   5.459   3.717
 4932TIP3    H214761   0.042   5.528   3.583
 4933TIP3   OH214762   5.104   0.250   4.612
 4933TIP3    H114763   5.087   0.156   4.610
 4933TIP3    H214764   5.103   0.273   4.705
 4934TIP3   OH214765   1.087   4.533   4.647
 4934TIP3    H114766   1.138   4.452   4.642
 4934TIP3    H214767   1.036   4.524   4.728
 4935TIP3   OH214768   2.694   0.026   3.713
 4935TIP3    H114769   2.709  -0.014   3.799
 4935TIP3    H214770   2.610   0.070   3.722
 4936TIP3   OH214771   3.585   5.144   2.876
 4936TIP3    H114772   3.598   5.236   2.852
 4936TIP3    H214773   3.627   5.135   2.961
 4937TIP3   OH214774   3.677   4.517   3.513
 4937TIP3    H114775   3.682   4.457   3.438
 4937TIP3    H214776   3.585   4.516   3.540
 4938TIP3   OH214777   0.736   1.208   1.986
 4938TIP3    H114778   0.771   1.295   1.970
 4938TIP3    H214779   0.747   1.161   1.903
 4939TIP3   OH214780   3.774   4.869   1.251
 4939TIP3    H114781   3.813   4.835   1.171
 4939TIP3    H214782   3.842   4.860   1.318
 4940TIP3   OH214783   3.582   5.510   2.609
 4940TIP3    H114784   3.615   5.560   2.684
 4940TIP3    H214785   3.641   5.435   2.602
 4941TIP3   OH214786   2.122   2.371   4.675
 4941TIP3    H114787   2.180   2.324   4.616
 4941TIP3    H214788   2.171   2.449   4.701
 4942TIP3   OH214789   3.840   5.104   0.956
 4942TIP3    H114790   3.863   5.012   0.943
 4942TIP3    H214791   3.745   5.105   0.962
 4943TIP3   OH214792   1.163   4.496   0.270
 4943TIP3    H114793   1.091   4.433   0.270
 4943TIP3    H214794   1.179   4.514   0.177
 4944TIP3   OH214795   1.550   5.434   5.094
 4944TIP3    H114796   1.491   5.406   5.024
 4944TIP3    H214797   1.533   5.373   5.166
 4945TIP3   OH214798   1.270   3.393   3.259
 4945TIP3    H114799   1.177   3.380   3.274
 4945TIP3    H214800   1.275   3.444   3.178
 4946TIP3   OH214801   0.676   1.624   4.914
 4946TIP3    H114802   0.723   1.707   4.906
 4946TIP3    H214803   0.655   1.618   5.007
 4947TIP3   OH214804   4.463   1.927   3.932
 4947TIP3    H114805   4.503   1.909   4.017
 4947TIP3    H214806   4.379   1.883   3.934
 4948TIP3   OH214807   2.528   2.496   2.368
 4948TIP3    H114808   2.487   2.410   2.371
 4948TIP3    H214809   2.461   2.554   2.332
 4949TIP3   OH214810   6.875   2.724   2.916
 4949TIP3    H114811   6.950   2.749   2.861
 4949TIP3    H214812   6.807   2.699   2.854
 4950TIP3   OH214813   1.962   0.720   1.992
 4950TIP3    H114814   1.898   0.736   1.923
 4950TIP3    H214815   1.982   0.807   2.028
 4951TIP3   OH214816   5.079   6.435   0.970
 4951TIP3    H114817   5.021   6.501   0.932
 4951TIP3    H214818   5.053   6.353   0.927
 4952TIP3   OH214819   5.089   2.078   0.279
 4952TIP3    H114820   5.080   2.162   0.325
 4952TIP3    H214821   5.160   2.092   0.217
 4953TIP3   OH214822   0.513   0.637   2.458
 4953TIP3    H114823   0.518   0.686   2.540
 4953TIP3    H214824   0.419   0.633   2.438
 4954TIP3   OH214825   5.908   0.773   0.926
 4954TIP3    H114826   5.914   0.863   0.895
 4954TIP3    H214827   5.937   0.777   1.017
 4955TIP3   OH214828   1.536   1.813   3.499
 4955TIP3    H114829   1.610   1.753   3.488
 4955TIP3    H214830   1.569   1.898   3.470
 4956TIP3   OH214831   3.738   1.153   4.830
 4956TIP3    H114832   3.736   1.227   4.891
 4956TIP3    H214833   3.813   1.172   4.773
 4957TIP3   OH214834   2.258   0.381   2.287
 4957TIP3    H114835   2.342   0.388   2.331
 4957TIP3    H214836   2.280   0.364   2.195
 4958TIP3   OH214837   3.091   2.254   4.653
 4958TIP3    H114838   3.180   2.289   4.658
 4958TIP3    H214839   3.100   2.173   4.603
 4959TIP3   OH214840   2.274   0.230   3.962
 4959TIP3    H114841   2.229   0.150   3.988
 4959TIP3    H214842   2.360   0.224   4.004
 4960TIP3   OH214843   3.521   0.352   0.532
 4960TIP3    H114844   3.616   0.360   0.537
 4960TIP3    H214845   3.491   0.440   0.511
 4961TIP3   OH214846   3.160   4.733   3.524
 4961TIP3    H114847   3.247   4.771   3.527
 4961TIP3    H214848   3.130   4.734   3.615
 4962TIP3   OH214849   3.822   1.065   2.095
 4962TIP3    H114850   3.880   1.116   2.038
 4962TIP3    H214851   3.751   1.125   2.117
 4963TIP3   OH214852   0.643   3.285   3.696
 4963TIP3    H114853   0.719   3.337   3.724
 4963TIP3    H214854   0.610   3.246   3.778
 4964TIP3   OH214855   0.433   3.562   4.064
 4964TIP3    H114856   0.469   3.474   4.076
 4964TIP3    H214857   0.503   3.620   4.092
 4965TIP3   OH214858   2.813   5.847   4.300
 4965TIP3    H114859   2.829   5.938   4.279
 4965TIP3    H214860   2.724   5.846   4.337
 4966TIP3   OH214861   1.627   6.305   1.099
 4966TIP3    H114862   1.691   6.371   1.074
 4966TIP3    H214863   1.603   6.262   1.017
 4967TIP3   OH214864   7.154   4.607   5.830
 4967TIP3    H114865   7.086   4.558   5.877
 4967TIP3    H214866   7.198   4.658   5.899
 4968TIP3   OH214867   1.745   5.902   3.866
 4968TIP3    H114868   1.736   5.852   3.947
 4968TIP3    H214869   1.756   5.993   3.894
 4969TIP3   OH214870   4.653   3.346   0.892
 4969TIP3    H114871   4.731   3.399   0.908
 4969TIP3    H214872   4.681   3.257   0.912
 4970TIP3   OH214873   1.042   3.654   3.219
 4970TIP3    H114874   1.014   3.741   3.191
 4970TIP3    H214875   1.057   3.661   3.313
 4971TIP3   OH214876   7.119   2.305   2.763
 4971TIP3    H114877   7.209   2.296   2.730
 4971TIP3    H214878   7.113   2.241   2.834
 4972TIP3   OH214879   5.328   1.087   5.915
 4972TIP3    H114880   5.369   1.125   5.837
 4972TIP3    H214881   5.352   0.995   5.913
 4973TIP3   OH214882   2.766   1.643   3.582
 4973TIP3    H114883   2.843   1.660   3.636
 4973TIP3    H214884   2.793   1.572   3.524
 4974TIP3   OH214885   6.932   0.755   4.576
 4974TIP3    H114886   6.987   0.689   4.533
 4974TIP3    H214887   6.899   0.809   4.504
 4975TIP3   OH214888   3.497   1.195   5.467
 4975TIP3    H114889   3.426   1.143   5.428
 4975TIP3    H214890   3.558   1.210   5.396
 4976TIP3   OH214891   4.550   5.487   3.691
 4976TIP3    H114892   4.587   5.517   3.773
 4976TIP3    H214893   4.571   5.393   3.689
 4977TIP3   OH214894   6.452   6.768   3.016
 4977TIP3    H114895   6.383   6.712   2.979
 4977TIP3    H214896   6.530   6.712   3.018
 4978TIP3   OH214897   4.725   4.157   5.099
 4978TIP3    H114898   4.786   4.091   5.068
 4978TIP3    H214899   4.735   4.230   5.037
 4979TIP3   OH214900   7.010   1.508   3.448
 4979TIP3    H114901   6.974   1.581   3.398
 4979TIP3    H214902   6.962   1.509   3.531
 4980TIP3   OH214903   2.740   3.057   5.436
 4980TIP3    H114904   2.681   3.083   5.366
 4980TIP3    H214905   2.767   3.140   5.476
 4981TIP3   OH214906   6.942   4.964   3.017
 4981TIP3    H114907   6.995   4.901   3.066
 4981TIP3    H214908   6.975   4.958   2.927
 4982TIP3   OH214909   1.734   3.767   2.447
 4982TIP3    H114910   1.676   3.725   2.384
 4982TIP3    H214911   1.734   3.860   2.422
 4983TIP3   OH214912   0.565   3.247   4.690
 4983TIP3    H114913   0.605   3.332   4.709
 4983TIP3    H214914   0.493   3.240   4.753
 4984TIP3   OH214915   5.072   4.637   5.211
 4984TIP3    H114916   5.072   4.556   5.263
 4984TIP3    H214917   5.161   4.644   5.176
 4985TIP3   OH214918   6.368   3.774   4.513
 4985TIP3    H114919   6.414   3.772   4.429
 4985TIP3    H214920   6.295   3.714   4.502
 4986TIP3   OH214921   2.763   0.347   4.348
 4986TIP3    H114922   2.799   0.419   4.399
 4986TIP3    H214923   2.682   0.324   4.392
 4987TIP3   OH214924   3.652   0.632   1.887
 4987TIP3    H114925   3.694   0.635   1.802
 4987TIP3    H214926   3.579   0.693   1.881
 4988TIP3   OH214927   3.875   4.542   3.976
 4988TIP3    H114928   3.788   4.522   4.011
 4988TIP3    H214929   3.858   4.573   3.887
 4989TIP3   OH214930   4.956   0.849   3.957
 4989TIP3    H114931   5.000   0.785   3.901
 4989TIP3    H214932   4.876   0.871   3.909
 4990TIP3   OH214933   6.149   2.213   4.204
 4990TIP3    H114934   6.073   2.158   4.186
 4990TIP3    H214935   6.115   2.302   4.203
 4991TIP3   OH214936   4.117   6.355   1.425
 4991TIP3    H114937   4.106   6.285   1.361
 4991TIP3    H214938   4.211   6.354   1.444
 4992TIP3   OH214939   4.568   0.117   1.682
 4992TIP3    H114940   4.590   0.097   1.773
 4992TIP3    H214941   4.487   0.069   1.665
 4993TIP3   OH214942   1.806   4.993   0.364
 4993TIP3    H114943   1.759   4.964   0.285
 4993TIP3    H214944   1.743   4.982   0.435
 4994TIP3   OH214945   3.998   5.632   5.550
 4994TIP3    H114946   3.944   5.692   5.601
 4994TIP3    H214947   3.985   5.660   5.459
 4995TIP3   OH214948   6.603   1.887   5.204
 4995TIP3    H114949   6.542   1.897   5.277
 4995TIP3    H214950   6.629   1.795   5.206
 4996TIP3   OH214951   5.538   0.636   5.848
 4996TIP3    H114952   5.627   0.621   5.879
 4996TIP3    H214953   5.546   0.639   5.753
 4997TIP3   OH214954   2.728   5.674   5.835
 4997TIP3    H114955   2.638   5.647   5.854
 4997TIP3    H214956   2.729   5.693   5.742
 4998TIP3   OH214957   3.977   1.514   3.232
 4998TIP3    H114958   3.937   1.601   3.233
 4998TIP3    H214959   4.068   1.530   3.258
 4999TIP3   OH214960   5.312   6.748   0.545
 4999TIP3    H114961   5.285   6.745   0.636
 4999TIP3    H214962   5.235   6.783   0.498
 5000TIP3   OH214963   3.673   4.772   0.618
 5000TIP3    H114964   3.578   4.762   0.608
 5000TIP3    H214965   3.703   4.686   0.644
 5001TIP3   OH214966   5.371   0.056   0.173
 5001TIP3    H114967   5.346  -0.032   0.199
 5001TIP3    H214968   5.333   0.068   0.086
 5002TIP3   OH214969   5.208   3.762   3.065
 5002TIP3    H114970   5.290   3.807   3.083
 5002TIP3    H214971   5.157   3.771   3.145
 5003TIP3   OH214972   6.884   2.286   1.516
 5003TIP3    H114973   6.954   2.221   1.519
 5003TIP3    H214974   6.818   2.247   1.458
 5004TIP3   OH214975   5.002   0.054   5.788
 5004TIP3    H114976   5.047   0.079   5.868
 5004TIP3    H214977   4.965   0.135   5.754
 5005TIP3   OH214978   0.065   1.136   2.209
 5005TIP3    H114979  -0.008   1.127   2.148
 5005TIP3    H214980   0.141   1.105   2.159
 5006TIP3   OH214981   3.584   5.992   2.421
 5006TIP3    H114982   3.596   6.082   2.451
 5006TIP3    H214983   3.635   5.938   2.482
 5007TIP3   OH214984   2.732   5.357   1.982
 5007TIP3    H114985   2.797   5.353   1.913
 5007TIP3    H214986   2.727   5.267   2.016
 5008TIP3   OH214987   2.666   4.169   3.627
 5008TIP3    H114988   2.681   4.077   3.647
 5008TIP3    H214989   2.664   4.212   3.713
 5009TIP3   OH214990   2.305   4.792   5.386
 5009TIP3    H114991   2.223   4.758   5.351
 5009TIP3    H214992   2.367   4.719   5.379
 5010TIP3   OH214993   6.035   1.671   2.421
 5010TIP3    H114994   5.989   1.729   2.482
 5010TIP3    H214995   6.121   1.710   2.410
 5011TIP3   OH214996   2.708   5.129   1.719
 5011TIP3    H114997   2.695   5.107   1.812
 5011TIP3    H214998   2.796   5.165   1.716
 5012TIP3   OH214999   7.153   5.720   0.663
 5012TIP3    H115000   7.140   5.774   0.740
 5012TIP3    H215001   7.110   5.637   0.683
 5013TIP3   OH215002   2.142   4.814   2.607
 5013TIP3    H115003   2.230   4.784   2.586
 5013TIP3    H215004   2.141   4.906   2.580
 5014TIP3   OH215005   1.447   4.520   0.054
 5014TIP3    H115006   1.473   4.573   0.129
 5014TIP3    H215007   1.384   4.574   0.007
 5015TIP3   OH215008   2.008   0.275   5.684
 5015TIP3    H115009   1.955   0.213   5.734
 5015TIP3    H215010   2.091   0.231   5.670
 5016TIP3   OH215011   3.000   4.260   3.425
 5016TIP3    H115012   3.029   4.242   3.335
 5016TIP3    H215013   2.977   4.353   3.425
 5017TIP3   OH215014   5.067   0.519   1.838
 5017TIP3    H115015   5.061   0.479   1.925
 5017TIP3    H215016   5.097   0.449   1.781
 5018TIP3   OH215017   6.939   2.942   4.284
 5018TIP3    H115018   6.991   3.019   4.259
 5018TIP3    H215019   6.961   2.927   4.376
 5019TIP3   OH215020   6.739   5.173   2.850
 5019TIP3    H115021   6.706   5.138   2.933
 5019TIP3    H215022   6.832   5.189   2.866
 5020TIP3   OH215023   3.227   5.386   5.407
 5020TIP3    H115024   3.283   5.380   5.485
 5020TIP3    H215025   3.157   5.323   5.422
 5021TIP3   OH215026   4.078   0.138   3.744
 5021TIP3    H115027   4.158   0.093   3.774
 5021TIP3    H215028   4.024   0.144   3.823
 5022TIP3   OH215029   0.124   0.408   5.422
 5022TIP3    H115030   0.217   0.406   5.396
 5022TIP3    H215031   0.107   0.321   5.458
 5023TIP3   OH215032   5.755   6.039   2.652
 5023TIP3    H115033   5.788   6.097   2.721
 5023TIP3    H215034   5.763   5.951   2.688
 5024TIP3   OH215035   1.760   4.074   0.108
 5024TIP3    H115036   1.819   4.011   0.148
 5024TIP3    H215037   1.806   4.105   0.030
 5025TIP3   OH215038   5.253   4.594   4.990
 5025TIP3    H115039   5.310   4.530   5.032
 5025TIP3    H215040   5.242   4.563   4.900
 5026TIP3   OH215041   0.945   4.705   5.290
 5026TIP3    H115042   0.919   4.763   5.219
 5026TIP3    H215043   1.006   4.643   5.250
 5027TIP3   OH215044   1.010   6.749   3.731
 5027TIP3    H115045   1.014   6.839   3.762
 5027TIP3    H215046   1.010   6.757   3.635
 5028TIP3   OH215047   5.074   3.596   4.240
 5028TIP3    H115048   5.163   3.618   4.213
 5028TIP3    H215049   5.052   3.662   4.305
 5029TIP3   OH215050   7.035   2.054   1.181
 5029TIP3    H115051   7.111   2.093   1.225
 5029TIP3    H215052   7.049   2.073   1.089
 5030TIP3   OH215053   0.166   3.408   3.400
 5030TIP3    H115054   0.199   3.323   3.368
 5030TIP3    H215055   0.096   3.385   3.461
 5031TIP3   OH215056   2.003   3.580   3.280
 5031TIP3    H115057   1.966   3.659   3.241
 5031TIP3    H215058   2.053   3.612   3.356
 5032TIP3   OH215059   3.522   2.702   5.614
 5032TIP3    H115060   3.458   2.773   5.618
 5032TIP3    H215061   3.559   2.709   5.526
 5033TIP3   OH215062   3.790   3.845   5.728
 5033TIP3    H115063   3.707   3.800   5.743
 5033TIP3    H215064   3.823   3.864   5.816
 5034TIP3   OH215065   4.691   5.024   1.238
 5034TIP3    H115066   4.750   5.099   1.244
 5034TIP3    H215067   4.625   5.049   1.173
 5035TIP3   OH215068   0.724   0.604   5.042
 5035TIP3    H115069   0.723   0.600   4.946
 5035TIP3    H215070   0.798   0.549   5.068
 5036TIP3   OH215071   5.092   2.809   4.193
 5036TIP3    H115072   5.034   2.866   4.141
 5036TIP3    H215073   5.178   2.819   4.152
 5037TIP3   OH215074   5.799   2.635   0.629
 5037TIP3    H115075   5.772   2.571   0.563
 5037TIP3    H215076   5.746   2.613   0.706
 5038TIP3   OH215077   4.993   3.566   1.662
 5038TIP3    H115078   5.069   3.509   1.669
 5038TIP3    H215079   4.922   3.519   1.707
 5039TIP3   OH215080   6.100   3.277   4.999
 5039TIP3    H115081   6.023   3.223   5.016
 5039TIP3    H215082   6.145   3.232   4.927
 5040TIP3   OH215083   7.098   3.729   1.756
 5040TIP3    H115084   7.011   3.738   1.715
 5040TIP3    H215085   7.146   3.673   1.696
 5041TIP3   OH215086   1.582   4.774   4.107
 5041TIP3    H115087   1.673   4.745   4.097
 5041TIP3    H215088   1.531   4.710   4.056
 5042TIP3   OH215089   0.267   0.516   1.272
 5042TIP3    H115090   0.252   0.572   1.349
 5042TIP3    H215091   0.207   0.442   1.284
 5043TIP3   OH215092   6.020   4.564   3.398
 5043TIP3    H115093   6.018   4.536   3.489
 5043TIP3    H215094   6.081   4.637   3.397
 5044TIP3   OH215095   6.543   5.792   0.664
 5044TIP3    H115096   6.457   5.808   0.626
 5044TIP3    H215097   6.569   5.875   0.703
 5045TIP3   OH215098   1.038   0.808   2.158
 5045TIP3    H115099   1.030   0.800   2.253
 5045TIP3    H215100   0.986   0.886   2.136
 5046TIP3   OH215101   4.445   2.452   3.146
 5046TIP3    H115102   4.438   2.412   3.232
 5046TIP3    H215103   4.427   2.545   3.161
 5047TIP3   OH215104   6.706   1.654   5.295
 5047TIP3    H115105   6.743   1.580   5.246
 5047TIP3    H215106   6.754   1.654   5.378
 5048TIP3   OH215107   0.305   3.351   2.994
 5048TIP3    H115108   0.371   3.340   3.063
 5048TIP3    H215109   0.344   3.415   2.934
 5049TIP3   OH215110   5.331   3.358   2.768
 5049TIP3    H115111   5.385   3.409   2.708
 5049TIP3    H215112   5.281   3.423   2.817
 5050TIP3   OH215113   3.300   5.213   2.904
 5050TIP3    H115114   3.392   5.192   2.893
 5050TIP3    H215115   3.277   5.262   2.825
 5051TIP3   OH215116   0.462   2.154   4.702
 5051TIP3    H115117   0.413   2.220   4.653
 5051TIP3    H215118   0.400   2.083   4.715
 5052TIP3   OH215119   0.052   0.901   5.530
 5052TIP3    H115120   0.064   0.819   5.484
 5052TIP3    H215121   0.139   0.922   5.566
 5053TIP3   OH215122   1.859   5.571   3.573
 5053TIP3    H115123   1.899   5.555   3.659
 5053TIP3    H215124   1.858   5.667   3.565
 5054TIP3   OH215125   2.430   1.918   1.806
 5054TIP3    H115126   2.524   1.908   1.791
 5054TIP3    H215127   2.416   2.013   1.808
 5055TIP3   OH215128   5.193   4.521   2.863
 5055TIP3    H115129   5.223   4.431   2.877
 5055TIP3    H215130   5.142   4.541   2.941
 5056TIP3   OH215131   6.987   6.445   3.745
 5056TIP3    H115132   6.941   6.467   3.664
 5056TIP3    H215133   6.935   6.375   3.784
 5057TIP3   OH215134   2.823   0.015   5.679
 5057TIP3    H115135   2.806   0.097   5.727
 5057TIP3    H215136   2.762   0.017   5.606
 5058TIP3   OH215137   6.072   0.429   1.112
 5058TIP3    H115138   6.032   0.511   1.140
 5058TIP3    H215139   6.050   0.367   1.182
 5059TIP3   OH215140   7.049   6.169   2.133
 5059TIP3    H115141   7.115   6.174   2.202
 5059TIP3    H215142   6.968   6.144   2.178
 5060TIP3   OH215143   1.326   4.472   4.120
 5060TIP3    H115144   1.377   4.442   4.195
 5060TIP3    H215145   1.389   4.515   4.063
 5061TIP3   OH215146   3.406   1.222   0.552
 5061TIP3    H115147   3.416   1.314   0.575
 5061TIP3    H215148   3.472   1.176   0.605
 5062TIP3   OH215149   5.770   4.968   4.919
 5062TIP3    H115150   5.827   5.027   4.871
 5062TIP3    H215151   5.685   5.012   4.919
 5063TIP3   OH215152   2.332   4.178   0.344
 5063TIP3    H115153   2.327   4.143   0.255
 5063TIP3    H215154   2.304   4.269   0.336
 5064TIP3   OH215155   2.336   3.163   3.728
 5064TIP3    H115156   2.375   3.248   3.751
 5064TIP3    H215157   2.377   3.140   3.645
 5065TIP3   OH215158   7.271   3.704   0.221
 5065TIP3    H115159   7.213   3.731   0.292
 5065TIP3    H215160   7.233   3.743   0.142
 5066TIP3   OH215161   3.414   4.222   3.121
 5066TIP3    H115162   3.353   4.262   3.182
 5066TIP3    H215163   3.388   4.255   3.035
 5067TIP3   OH215164   1.847   2.729   3.355
 5067TIP3    H115165   1.923   2.721   3.297
 5067TIP3    H215166   1.857   2.816   3.395
 5068TIP3   OH215167   6.621   2.336   4.481
 5068TIP3    H115168   6.546   2.394   4.487
 5068TIP3    H215169   6.693   2.392   4.452
 5069TIP3   OH215170   2.344   4.199   5.173
 5069TIP3    H115171   2.340   4.158   5.087
 5069TIP3    H215172   2.276   4.267   5.170
 5070TIP3   OH215173   7.210   2.973   1.503
 5070TIP3    H115174   7.146   2.953   1.572
 5070TIP3    H215175   7.215   2.893   1.451
 5071TIP3   OH215176   4.341   2.943   4.532
 5071TIP3    H115177   4.333   2.923   4.625
 5071TIP3    H215178   4.325   3.037   4.526
 5072TIP3   OH215179   3.493   5.977   3.208
 5072TIP3    H115180   3.485   5.889   3.173
 5072TIP3    H215181   3.478   5.968   3.302
 5073TIP3   OH215182   3.649   3.154   3.068
 5073TIP3    H115183   3.736   3.165   3.031
 5073TIP3    H215184   3.665   3.125   3.158
 5074TIP3   OH215185   2.817   5.335   5.491
 5074TIP3    H115186   2.831   5.418   5.537
 5074TIP3    H215187   2.889   5.279   5.520
 5075TIP3   OH215188   1.494   6.452   2.724
 5075TIP3    H115189   1.410   6.427   2.762
 5075TIP3    H215190   1.552   6.464   2.799
 5076TIP3   OH215191   4.545   4.112   4.462
 5076TIP3    H115192   4.590   4.149   4.537
 5076TIP3    H215193   4.529   4.021   4.486
 5077TIP3   OH215194   5.706   4.379   5.549
 5077TIP3    H115195   5.664   4.387   5.464
 5077TIP3    H215196   5.663   4.445   5.604
 5078TIP3   OH215197   1.189   4.704   1.277
 5078TIP3    H115198   1.166   4.796   1.281
 5078TIP3    H215199   1.158   4.668   1.361
 5079TIP3   OH215200   2.660   6.041   1.409
 5079TIP3    H115201   2.576   6.086   1.405
 5079TIP3    H215202   2.700   6.058   1.324
 5080TIP3   OH215203   1.830   3.243   4.411
 5080TIP3    H115204   1.923   3.266   4.412
 5080TIP3    H215205   1.788   3.312   4.359
 5081TIP3   OH215206   1.100   5.232   0.822
 5081TIP3    H115207   1.180   5.185   0.844
 5081TIP3    H215208   1.130   5.320   0.796
 5082TIP3   OH215209   7.080   4.137   1.031
 5082TIP3    H115210   7.143   4.065   1.032
 5082TIP3    H215211   7.051   4.142   0.940
 5083TIP3   OH215212   5.629   4.879   2.261
 5083TIP3    H115213   5.614   4.810   2.325
 5083TIP3    H215214   5.551   4.878   2.206
 5084TIP3   OH215215   3.578   6.698   2.523
 5084TIP3    H115216   3.656   6.734   2.481
 5084TIP3    H215217   3.582   6.604   2.506
 5085TIP3   OH215218   2.490   3.589   3.036
 5085TIP3    H115219   2.399   3.563   3.050
 5085TIP3    H215220   2.533   3.510   3.003
 5086TIP3   OH215221   3.259   2.967   3.032
 5086TIP3    H115222   3.345   2.936   3.002
 5086TIP3    H215223   3.221   2.892   3.078
 5087TIP3   OH215224   6.245   5.111   2.583
 5087TIP3    H115225   6.289   5.031   2.612
 5087TIP3    H215226   6.201   5.086   2.502
 5088TIP3   OH215227   3.069   3.611   2.755
 5088TIP3    H115228   3.146   3.661   2.730
 5088TIP3    H215229   3.030   3.585   2.672
 5089TIP3   OH215230   3.757   2.527   4.057
 5089TIP3    H115231   3.743   2.616   4.023
 5089TIP3    H215232   3.720   2.470   3.989
 5090TIP3   OH215233   5.317   6.029   1.090
 5090TIP3    H115234   5.384   6.097   1.086
 5090TIP3    H215235   5.262   6.055   1.165
 5091TIP3   OH215236   7.079   0.833   3.421
 5091TIP3    H115237   7.166   0.853   3.454
 5091TIP3    H215238   7.019   0.864   3.490
 5092TIP3   OH215239   3.597   6.159   4.283
 5092TIP3    H115240   3.578   6.200   4.367
 5092TIP3    H215241   3.555   6.216   4.219
 5093TIP3   OH215242   3.454   3.326   4.927
 5093TIP3    H115243   3.373   3.298   4.968
 5093TIP3    H215244   3.476   3.256   4.866
 5094TIP3   OH215245   2.740   4.126   2.646
 5094TIP3    H115246   2.722   4.182   2.570
 5094TIP3    H215247   2.742   4.185   2.720
 5095TIP3   OH215248   4.399   0.527   0.214
 5095TIP3    H115249   4.473   0.549   0.159
 5095TIP3    H215250   4.414   0.575   0.295
 5096TIP3   OH215251   3.294   1.232   1.393
 5096TIP3    H115252   3.265   1.300   1.332
 5096TIP3    H215253   3.213   1.192   1.425
 5097TIP3   OH215254   3.171   6.400   5.810
 5097TIP3    H115255   3.177   6.375   5.903
 5097TIP3    H215256   3.083   6.436   5.800
 5098TIP3   OH215257   2.214   5.103   4.544
 5098TIP3    H115258   2.279   5.034   4.538
 5098TIP3    H215259   2.214   5.144   4.458
 5099TIP3   OH215260   5.778   5.139   4.036
 5099TIP3    H115261   5.685   5.163   4.034
 5099TIP3    H215262   5.781   5.057   4.085
 5100TIP3   OH215263   0.887   5.231   4.538
 5100TIP3    H115264   0.922   5.296   4.477
 5100TIP3    H215265   0.946   5.236   4.614
 5101TIP3   OH215266   2.736   1.166   3.533
 5101TIP3    H115267   2.648   1.192   3.507
 5101TIP3    H215268   2.792   1.237   3.501
 5102TIP3   OH215269   7.139   1.204   2.570
 5102TIP3    H115270   7.134   1.110   2.588
 5102TIP3    H215271   7.048   1.233   2.572
 5103TIP3   OH215272   1.861   5.919   5.283
 5103TIP3    H115273   1.908   5.954   5.359
 5103TIP3    H215274   1.781   5.971   5.279
 5104TIP3   OH215275   3.523   5.553   4.941
 5104TIP3    H115276   3.560   5.483   4.994
 5104TIP3    H215277   3.492   5.617   5.004
 5105TIP3   OH215278   5.238   0.220   3.711
 5105TIP3    H115279   5.155   0.191   3.673
 5105TIP3    H215280   5.231   0.315   3.717
 5106TIP3   OH215281   5.445   1.274   2.544
 5106TIP3    H115282   5.428   1.271   2.449
 5106TIP3    H215283   5.527   1.226   2.555
 5107TIP3   OH215284   6.183   2.136   2.046
 5107TIP3    H115285   6.191   2.231   2.052
 5107TIP3    H215286   6.165   2.119   1.954
 5108TIP3   OH215287   1.547   4.862   3.635
 5108TIP3    H115288   1.531   4.956   3.621
 5108TIP3    H215289   1.635   4.858   3.671
 5109TIP3   OH215290   5.705   3.698   3.552
 5109TIP3    H115291   5.628   3.643   3.553
 5109TIP3    H215292   5.711   3.730   3.462
 5110TIP3   OH215293   0.962   1.543   4.705
 5110TIP3    H115294   0.936   1.628   4.669
 5110TIP3    H215295   0.967   1.557   4.799
 5111TIP3   OH215296   5.219   1.611   3.717
 5111TIP3    H115297   5.254   1.541   3.772
 5111TIP3    H215298   5.271   1.688   3.740
 5112TIP3   OH215299   0.533   4.219   0.045
 5112TIP3    H115300   0.597   4.156   0.013
 5112TIP3    H215301   0.451   4.170   0.052
 5113TIP3   OH215302   1.803   3.348   5.500
 5113TIP3    H115303   1.885   3.388   5.530
 5113TIP3    H215304   1.828   3.299   5.422
 5114TIP3   OH215305   4.077   2.050   2.237
 5114TIP3    H115306   4.061   2.112   2.166
 5114TIP3    H215307   4.008   1.984   2.227
 5115TIP3   OH215308   2.486   2.178   0.953
 5115TIP3    H115309   2.411   2.154   1.009
 5115TIP3    H215310   2.446   2.225   0.880
 5116TIP3   OH215311   5.858   3.141   5.060
 5116TIP3    H115312   5.780   3.087   5.070
 5116TIP3    H215313   5.840   3.220   5.111
 5117TIP3   OH215314   3.790   3.761   1.255
 5117TIP3    H115315   3.772   3.854   1.242
 5117TIP3    H215316   3.704   3.719   1.252
 5118TIP3   OH215317   6.996   2.815   0.858
 5118TIP3    H115318   6.944   2.737   0.875
 5118TIP3    H215319   7.078   2.782   0.820
 5119TIP3   OH215320   3.827   6.188   4.022
 5119TIP3    H115321   3.800   6.096   4.019
 5119TIP3    H215322   3.759   6.235   3.974
 5120TIP3   OH215323   6.176   1.388   1.296
 5120TIP3    H115324   6.214   1.426   1.375
 5120TIP3    H215325   6.251   1.352   1.249
 5121TIP3   OH215326   2.498   0.155   4.100
 5121TIP3    H115327   2.478   0.143   4.193
 5121TIP3    H215328   2.571   0.094   4.085
 5122TIP3   OH215329   6.674   2.208   5.152
 5122TIP3    H115330   6.589   2.173   5.176
 5122TIP3    H215331   6.708   2.146   5.087
 5123TIP3   OH215332   3.828   3.225   0.950
 5123TIP3    H115333   3.770   3.265   1.015
 5123TIP3    H215334   3.818   3.131   0.963
 5124TIP3   OH215335   5.686   2.085   1.063
 5124TIP3    H115336   5.595   2.056   1.066
 5124TIP3    H215337   5.692   2.138   0.984
 5125TIP3   OH215338   1.481   3.554   0.880
 5125TIP3    H115339   1.502   3.644   0.857
 5125TIP3    H215340   1.415   3.562   0.949
 5126TIP3   OH215341   2.156   4.720   0.350
 5126TIP3    H115342   2.104   4.800   0.350
 5126TIP3    H215343   2.226   4.737   0.287
 5127TIP3   OH215344   3.010   5.725   0.688
 5127TIP3    H115345   3.092   5.689   0.655
 5127TIP3    H215346   3.028   5.818   0.700
 5128TIP3   OH215347   2.091   3.380   1.609
 5128TIP3    H115348   2.072   3.304   1.554
 5128TIP3    H215349   2.162   3.351   1.667
 5129TIP3   OH215350   5.180   0.666   5.384
 5129TIP3    H115351   5.122   0.636   5.314
 5129TIP3    H215352   5.239   0.729   5.340
 5130TIP3   OH215353   5.700   6.560   0.473
 5130TIP3    H115354   5.706   6.656   0.471
 5130TIP3    H215355   5.636   6.538   0.406
 5131TIP3   OH215356   2.721   2.572   0.998
 5131TIP3    H115357   2.700   2.665   1.009
 5131TIP3    H215358   2.759   2.566   0.911
 5132TIP3   OH215359   6.371   2.147   2.794
 5132TIP3    H115360   6.343   2.082   2.728
 5132TIP3    H215361   6.378   2.097   2.875
 5133TIP3   OH215362   4.353   1.669   1.157
 5133TIP3    H115363   4.373   1.742   1.099
 5133TIP3    H215364   4.414   1.600   1.131
 5134TIP3   OH215365   2.029   5.661   1.980
 5134TIP3    H115366   2.019   5.670   1.886
 5134TIP3    H215367   2.121   5.638   1.993
 5135TIP3   OH215368   3.318   0.621   1.464
 5135TIP3    H115369   3.385   0.689   1.458
 5135TIP3    H215370   3.366   0.541   1.483
 5136TIP3   OH215371   7.143   2.458   0.163
 5136TIP3    H115372   7.181   2.449   0.076
 5136TIP3    H215373   7.217   2.479   0.220
 5137TIP3   OH215374   2.812   2.024   1.546
 5137TIP3    H115375   2.894   1.977   1.531
 5137TIP3    H215376   2.839   2.110   1.579
 5138TIP3   OH215377   0.570   1.260   5.690
 5138TIP3    H115378   0.625   1.305   5.626
 5138TIP3    H215379   0.594   1.297   5.774
 5139TIP3   OH215380   6.047   3.294   3.297
 5139TIP3    H115381   6.042   3.198   3.294
 5139TIP3    H215382   6.135   3.312   3.331
 5140TIP3   OH215383   4.413   3.060   2.800
 5140TIP3    H115384   4.495   3.095   2.764
 5140TIP3    H215385   4.346   3.123   2.774
 5141TIP3   OH215386   3.007   0.761   1.892
 5141TIP3    H115387   2.947   0.832   1.869
 5141TIP3    H215388   2.951   0.698   1.938
 5142TIP3   OH215389   1.521   2.988   4.489
 5142TIP3    H115390   1.582   2.933   4.440
 5142TIP3    H215391   1.438   2.941   4.484
 5143TIP3   OH215392   4.175   0.128   2.318
 5143TIP3    H115393   4.092   0.175   2.313
 5143TIP3    H215394   4.174   0.086   2.404
 5144TIP3   OH215395   5.398   0.197   4.390
 5144TIP3    H115396   5.333   0.132   4.365
 5144TIP3    H215397   5.437   0.226   4.307
 5145TIP3   OH215398   4.349   4.224   5.874
 5145TIP3    H115399   4.282   4.292   5.866
 5145TIP3    H215400   4.317   4.167   5.943
 5146TIP3   OH215401   2.945   6.181   2.440
 5146TIP3    H115402   2.999   6.216   2.370
 5146TIP3    H215403   2.916   6.258   2.489
 5147TIP3   OH215404   4.845   0.565   4.568
 5147TIP3    H115405   4.874   0.655   4.557
 5147TIP3    H215406   4.768   0.571   4.625
 5148TIP3   OH215407   2.864   1.481   1.273
 5148TIP3    H115408   2.885   1.544   1.343
 5148TIP3    H215409   2.923   1.505   1.202
 5149TIP3   OH215410   5.295   2.304   5.409
 5149TIP3    H115411   5.351   2.380   5.393
 5149TIP3    H215412   5.220   2.338   5.458
 5150TIP3   OH215413   4.909   0.996   1.789
 5150TIP3    H115414   4.900   0.902   1.775
 5150TIP3    H215415   4.972   1.005   1.860
 5151TIP3   OH215416   3.248   0.948   3.539
 5151TIP3    H115417   3.174   0.979   3.487
 5151TIP3    H215418   3.211   0.931   3.626
 5152TIP3   OH215419   0.102   5.668   3.328
 5152TIP3    H115420   0.036   5.638   3.391
 5152TIP3    H215421   0.086   5.616   3.249
 5153TIP3   OH215422   4.977   1.856   2.345
 5153TIP3    H115423   4.919   1.850   2.269
 5153TIP3    H215424   4.935   1.922   2.401
 5154TIP3   OH215425   0.126   2.254   2.618
 5154TIP3    H115426   0.214   2.218   2.623
 5154TIP3    H215427   0.077   2.191   2.566
 5155TIP3   OH215428   2.436   0.156   2.779
 5155TIP3    H115429   2.448   0.125   2.690
 5155TIP3    H215430   2.457   0.249   2.776
 5156TIP3   OH215431   4.366   0.597   1.825
 5156TIP3    H115432   4.276   0.573   1.847
 5156TIP3    H215433   4.365   0.693   1.819
 5157TIP3   OH215434   3.718   0.446   1.508
 5157TIP3    H115435   3.716   0.539   1.487
 5157TIP3    H215436   3.682   0.403   1.430
 5158TIP3   OH215437   4.377   5.666   4.970
 5158TIP3    H115438   4.325   5.742   4.998
 5158TIP3    H215439   4.351   5.653   4.879
 5159TIP3   OH215440   5.054   4.568   4.345
 5159TIP3    H115441   5.096   4.631   4.405
 5159TIP3    H215442   4.966   4.557   4.380
 5160TIP3   OH215443   0.410   2.272   5.766
 5160TIP3    H115444   0.461   2.340   5.808
 5160TIP3    H215445   0.470   2.231   5.704
 5161TIP3   OH215446   1.093   4.626   2.638
 5161TIP3    H115447   1.022   4.689   2.652
 5161TIP3    H215448   1.164   4.678   2.599
 5162TIP3   OH215449   3.848   3.620   2.190
 5162TIP3    H115450   3.780   3.681   2.162
 5162TIP3    H215451   3.915   3.626   2.122
 5163TIP3   OH215452   5.323   2.253   3.169
 5163TIP3    H115453   5.411   2.251   3.207
 5163TIP3    H215454   5.310   2.345   3.144
 5164TIP3   OH215455   3.077   0.411   2.777
 5164TIP3    H115456   3.131   0.411   2.857
 5164TIP3    H215457   3.119   0.347   2.720
 5165TIP3   OH215458   5.355   5.457   0.549
 5165TIP3    H115459   5.308   5.422   0.473
 5165TIP3    H215460   5.446   5.460   0.521
 5166TIP3   OH215461   1.023   2.144   0.577
 5166TIP3    H115462   1.007   2.236   0.558
 5166TIP3    H215463   0.942   2.099   0.554
 5167TIP3   OH215464   0.632   1.193   0.454
 5167TIP3    H115465   0.719   1.183   0.494
 5167TIP3    H215466   0.579   1.124   0.494
 5168TIP3   OH215467   5.893   0.094   0.953
 5168TIP3    H115468   5.892   0.114   1.047
 5168TIP3    H215469   5.972   0.137   0.920
 5169TIP3   OH215470   2.785   0.256   0.180
 5169TIP3    H115471   2.776   0.328   0.118
 5169TIP3    H215472   2.718   0.273   0.246
 5170TIP3   OH215473   0.842   5.254   5.051
 5170TIP3    H115474   0.919   5.247   4.995
 5170TIP3    H215475   0.866   5.207   5.131
 5171TIP3   OH215476   5.703   3.628   0.515
 5171TIP3    H115477   5.677   3.665   0.600
 5171TIP3    H215478   5.650   3.548   0.506
 5172TIP3   OH215479   0.544   3.788   2.235
 5172TIP3    H115480   0.461   3.828   2.210
 5172TIP3    H215481   0.562   3.823   2.323
 5173TIP3   OH215482   3.321   0.951   2.262
 5173TIP3    H115483   3.341   0.937   2.169
 5173TIP3    H215484   3.404   0.977   2.301
 5174TIP3   OH215485   6.896   0.553   5.127
 5174TIP3    H115486   6.837   0.478   5.127
 5174TIP3    H215487   6.919   0.566   5.218
 5175TIP3   OH215488   5.534   6.392   4.919
 5175TIP3    H115489   5.508   6.357   5.004
 5175TIP3    H215490   5.487   6.337   4.855
 5176TIP3   OH215491   4.877   3.511   3.597
 5176TIP3    H115492   4.887   3.429   3.647
 5176TIP3    H215493   4.790   3.504   3.558
 5177TIP3   OH215494   5.442   0.610   1.881
 5177TIP3    H115495   5.370   0.632   1.821
 5177TIP3    H215496   5.408   0.537   1.932
 5178TIP3   OH215497   2.707   4.414   2.118
 5178TIP3    H115498   2.624   4.367   2.109
 5178TIP3    H215499   2.765   4.372   2.054
 5179TIP3   OH215500   6.014   1.779   5.388
 5179TIP3    H115501   6.071   1.705   5.363
 5179TIP3    H215502   5.927   1.741   5.393
 5180TIP3   OH215503   6.288   4.813   1.969
 5180TIP3    H115504   6.286   4.755   2.046
 5180TIP3    H215505   6.197   4.815   1.938
 5181TIP3   OH215506   4.280   1.529   0.851
 5181TIP3    H115507   4.197   1.559   0.887
 5181TIP3    H215508   4.338   1.606   0.860
 5182TIP3   OH215509   5.132   3.053   4.927
 5182TIP3    H115510   5.080   2.975   4.948
 5182TIP3    H215511   5.203   3.021   4.872
 5183TIP3   OH215512   5.829   2.093   0.545
 5183TIP3    H115513   5.843   2.150   0.621
 5183TIP3    H215514   5.885   2.131   0.477
 5184TIP3   OH215515   2.426   2.534   1.992
 5184TIP3    H115516   2.333   2.516   1.984
 5184TIP3    H215517   2.431   2.613   2.045
 5185TIP3   OH215518   1.370   4.008   0.727
 5185TIP3    H115519   1.407   3.959   0.655
 5185TIP3    H215520   1.282   4.031   0.697
 5186TIP3   OH215521   4.187   0.874   2.613
 5186TIP3    H115522   4.221   0.899   2.527
 5186TIP3    H215523   4.233   0.930   2.675
 5187TIP3   OH215524   4.290   0.637   4.370
 5187TIP3    H115525   4.275   0.594   4.286
 5187TIP3    H215526   4.383   0.625   4.387
 5188TIP3   OH215527   5.178   2.937   0.239
 5188TIP3    H115528   5.220   3.024   0.242
 5188TIP3    H215529   5.125   2.934   0.319
 5189TIP3   OH215530   6.621   4.639   4.420
 5189TIP3    H115531   6.574   4.575   4.474
 5189TIP3    H215532   6.709   4.643   4.458
 5190TIP3   OH215533   7.051   0.807   4.852
 5190TIP3    H115534   7.042   0.741   4.784
 5190TIP3    H215535   7.025   0.889   4.809
 5191TIP3   OH215536   1.501   0.174   1.838
 5191TIP3    H115537   1.504   0.179   1.933
 5191TIP3    H215538   1.410   0.195   1.816
 5192TIP3   OH215539   6.667   2.771   5.520
 5192TIP3    H115540   6.609   2.746   5.448
 5192TIP3    H215541   6.748   2.723   5.504
 5193TIP3   OH215542   4.535   0.613   0.440
 5193TIP3    H115543   4.501   0.547   0.500
 5193TIP3    H215544   4.630   0.611   0.453
 5194TIP3   OH215545   1.779   0.748   5.191
 5194TIP3    H115546   1.871   0.729   5.171
 5194TIP3    H215547   1.741   0.662   5.209
 5195TIP3   OH215548   1.070   2.760   2.587
 5195TIP3    H115549   1.013   2.688   2.611
 5195TIP3    H215550   1.066   2.764   2.492
 5196TIP3   OH215551   1.234   0.708   0.727
 5196TIP3    H115552   1.149   0.683   0.765
 5196TIP3    H215553   1.234   0.668   0.640
 5197TIP3   OH215554   5.972   0.636   4.409
 5197TIP3    H115555   5.955   0.730   4.413
 5197TIP3    H215556   5.944   0.611   4.321
 5198TIP3   OH215557   5.986   6.492   5.574
 5198TIP3    H115558   6.066   6.453   5.538
 5198TIP3    H215559   5.961   6.559   5.509
 5199TIP3   OH215560   3.665   6.768   5.782
 5199TIP3    H115561   3.577   6.776   5.819
 5199TIP3    H215562   3.700   6.857   5.784
 5200TIP3   OH215563   5.006   2.958   2.950
 5200TIP3    H115564   5.007   3.037   2.896
 5200TIP3    H215565   4.976   2.889   2.892
 5201TIP3   OH215566   2.958   5.291   4.601
 5201TIP3    H115567   2.862   5.294   4.609
 5201TIP3    H215568   2.990   5.309   4.689
 5202TIP3   OH215569   2.875   1.151   0.706
 5202TIP3    H115570   2.919   1.190   0.782
 5202TIP3    H215571   2.831   1.225   0.664
 5203TIP3   OH215572   2.873   2.579   3.940
 5203TIP3    H115573   2.828   2.495   3.936
 5203TIP3    H215574   2.821   2.632   4.001
 5204TIP3   OH215575   5.048   3.109   2.606
 5204TIP3    H115576   4.957   3.111   2.577
 5204TIP3    H215577   5.079   3.022   2.582
 5205TIP3   OH215578   0.446   0.073   3.484
 5205TIP3    H115579   0.405   0.073   3.571
 5205TIP3    H215580   0.415   0.154   3.443
 5206TIP3   OH215581   2.768   6.123   1.175
 5206TIP3    H115582   2.687   6.139   1.127
 5206TIP3    H215583   2.837   6.132   1.109
 5207TIP3   OH215584   3.188   3.593   3.717
 5207TIP3    H115585   3.245   3.521   3.745
 5207TIP3    H215586   3.208   3.605   3.624
 5208TIP3   OH215587   0.136   0.771   0.399
 5208TIP3    H115588   0.146   0.715   0.476
 5208TIP3    H215589   0.052   0.743   0.361
 5209TIP3   OH215590   5.352   2.153   2.683
 5209TIP3    H115591   5.378   2.211   2.611
 5209TIP3    H215592   5.415   2.081   2.679
 5210TIP3   OH215593   1.804   4.890   5.113
 5210TIP3    H115594   1.877   4.845   5.070
 5210TIP3    H215595   1.801   4.976   5.071
 5211TIP3   OH215596   4.285   5.648   5.260
 5211TIP3    H115597   4.281   5.626   5.167
 5211TIP3    H215598   4.375   5.627   5.285
 5212TIP3   OH215599   4.005   4.245   5.416
 5212TIP3    H115600   4.067   4.298   5.366
 5212TIP3    H215601   4.015   4.273   5.506
 5213TIP3   OH215602   0.617   0.812   1.859
 5213TIP3    H115603   0.651   0.884   1.806
 5213TIP3    H215604   0.695   0.774   1.900
 5214TIP3   OH215605   2.793   0.380   5.541
 5214TIP3    H115606   2.817   0.376   5.633
 5214TIP3    H215607   2.795   0.290   5.511
 5215TIP3   OH215608   4.813   0.887   5.601
 5215TIP3    H115609   4.892   0.939   5.618
 5215TIP3    H215610   4.745   0.952   5.584
 5216TIP3   OH215611   6.531   6.073   3.335
 5216TIP3    H115612   6.461   6.008   3.329
 5216TIP3    H215613   6.532   6.098   3.428
 5217TIP3   OH215614   6.626   1.978   3.605
 5217TIP3    H115615   6.603   2.010   3.692
 5217TIP3    H215616   6.617   2.055   3.548
 5218TIP3   OH215617   2.338   2.162   3.202
 5218TIP3    H115618   2.366   2.105   3.273
 5218TIP3    H215619   2.264   2.117   3.162
 5219TIP3   OH215620   3.830   4.266   0.754
 5219TIP3    H115621   3.843   4.217   0.673
 5219TIP3    H215622   3.899   4.332   0.753
 5220TIP3   OH215623   0.047   3.726   5.254
 5220TIP3    H115624   0.010   3.668   5.188
 5220TIP3    H215625  -0.007   3.709   5.332
 5221TIP3   OH215626   4.081   1.617   1.962
 5221TIP3    H115627   4.149   1.595   1.899
 5221TIP3    H215628   4.091   1.552   2.032
 5222TIP3   OH215629   4.569   0.619   4.447
 5222TIP3    H115630   4.657   0.655   4.440
 5222TIP3    H215631   4.519   0.685   4.495
 5223TIP3   OH215632   1.830   2.791   3.699
 5223TIP3    H115633   1.824   2.790   3.795
 5223TIP3    H215634   1.808   2.881   3.674
 5224TIP3   OH215635   6.720   2.703   4.446
 5224TIP3    H115636   6.658   2.773   4.467
 5224TIP3    H215637   6.745   2.667   4.531
 5225TIP3   OH215638   6.631   0.341   4.736
 5225TIP3    H115639   6.680   0.283   4.679
 5225TIP3    H215640   6.694   0.407   4.765
 5226TIP3   OH215641   2.069   2.892   5.442
 5226TIP3    H115642   2.042   2.939   5.363
 5226TIP3    H215643   2.163   2.881   5.432
 5227TIP3   OH215644   2.858   1.830   1.074
 5227TIP3    H115645   2.802   1.805   1.147
 5227TIP3    H215646   2.812   1.902   1.031
 5228TIP3   OH215647   3.848   2.981   0.097
 5228TIP3    H115648   3.785   3.043   0.060
 5228TIP3    H215649   3.805   2.949   0.176
 5229TIP3   OH215650   1.133   0.594   1.643
 5229TIP3    H115651   1.107   0.606   1.734
 5229TIP3    H215652   1.087   0.663   1.595
 5230TIP3   OH215653   6.788   5.681   0.935
 5230TIP3    H115654   6.729   5.756   0.938
 5230TIP3    H215655   6.770   5.632   1.015
 5231TIP3   OH215656   5.011   0.827   4.219
 5231TIP3    H115657   4.964   0.859   4.142
 5231TIP3    H215658   5.025   0.734   4.202
 5232TIP3   OH215659   2.573   1.021   2.505
 5232TIP3    H115660   2.613   1.088   2.450
 5232TIP3    H215661   2.541   1.068   2.582
 5233TIP3   OH215662   2.016   2.483   1.399
 5233TIP3    H115663   1.989   2.397   1.366
 5233TIP3    H215664   2.040   2.466   1.490
 5234TIP3   OH215665   4.416   6.301   1.209
 5234TIP3    H115666   4.421   6.266   1.120
 5234TIP3    H215667   4.326   6.283   1.237
 5235TIP3   OH215668   5.809   2.002   5.187
 5235TIP3    H115669   5.784   2.046   5.105
 5235TIP3    H215670   5.729   1.957   5.214
 5236TIP3   OH215671   2.436   5.546   1.416
 5236TIP3    H115672   2.359   5.496   1.440
 5236TIP3    H215673   2.402   5.617   1.361
 5237TIP3   OH215674   0.100   6.276   0.438
 5237TIP3    H115675   0.144   6.342   0.383
 5237TIP3    H215676   0.085   6.321   0.521
 5238TIP3   OH215677   6.594   6.443   1.041
 5238TIP3    H115678   6.634   6.528   1.053
 5238TIP3    H215679   6.506   6.451   1.079
 5239TIP3   OH215680   1.568   1.756   0.591
 5239TIP3    H115681   1.619   1.809   0.530
 5239TIP3    H215682   1.485   1.741   0.547
 5240TIP3   OH215683   5.060   4.120   2.979
 5240TIP3    H115684   5.019   4.101   3.064
 5240TIP3    H215685   5.004   4.075   2.916
 5241TIP3   OH215686   3.829   6.493   2.027
 5241TIP3    H115687   3.916   6.522   2.000
 5241TIP3    H215688   3.790   6.455   1.948
 5242TIP3   OH215689   4.359   3.660   0.171
 5242TIP3    H115690   4.455   3.662   0.171
 5242TIP3    H215691   4.335   3.661   0.263
 5243TIP3   OH215692   6.239   2.237   0.520
 5243TIP3    H115693   6.294   2.251   0.443
 5243TIP3    H215694   6.178   2.310   0.521
 5244TIP3   OH215695   3.172   0.455   1.730
 5244TIP3    H115696   3.103   0.434   1.667
 5244TIP3    H215697   3.254   0.444   1.681
 5245TIP3   OH215698   5.838   0.282   2.862
 5245TIP3    H115699   5.890   0.219   2.812
 5245TIP3    H215700   5.835   0.245   2.951
 5246TIP3   OH215701   6.388   0.616   5.368
 5246TIP3    H115702   6.465   0.652   5.325
 5246TIP3    H215703   6.338   0.693   5.395
 5247TIP3   OH215704   4.738   0.201   4.595
 5247TIP3    H115705   4.647   0.209   4.624
 5247TIP3    H215706   4.748   0.268   4.527
 5248TIP3   OH215707   2.825   6.774   1.027
 5248TIP3    H115708   2.916   6.781   0.995
 5248TIP3    H215709   2.791   6.863   1.022
 5249TIP3   OH215710   5.285   4.479   4.733
 5249TIP3    H115711   5.335   4.433   4.666
 5249TIP3    H215712   5.244   4.409   4.784
 5250TIP3   OH215713  -0.021   1.750   1.506
 5250TIP3    H115714  -0.043   1.687   1.574
 5250TIP3    H215715   0.025   1.820   1.553
 5251TIP3   OH215716   1.870   3.476   0.192
 5251TIP3    H115717   1.783   3.453   0.227
 5251TIP3    H215718   1.922   3.497   0.270
 5252TIP3   OH215719   6.317   0.910   5.764
 5252TIP3    H115720   6.293   0.972   5.832
 5252TIP3    H215721   6.401   0.941   5.731
 5253TIP3   OH215722   1.266   4.312   3.330
 5253TIP3    H115723   1.281   4.245   3.264
 5253TIP3    H215724   1.353   4.333   3.364
 5254TIP3   OH215725   2.258   6.142   5.158
 5254TIP3    H115726   2.215   6.095   5.087
 5254TIP3    H215727   2.348   6.154   5.127
 5255TIP3   OH215728   1.126   3.276   3.002
 5255TIP3    H115729   1.103   3.279   3.095
 5255TIP3    H215730   1.130   3.368   2.976
 5256TIP3   OH215731   1.899   5.178   3.701
 5256TIP3    H115732   1.935   5.243   3.641
 5256TIP3    H215733   1.972   5.117   3.715
 5257TIP3   OH215734   4.839   3.311   2.945
 5257TIP3    H115735   4.899   3.340   2.876
 5257TIP3    H215736   4.764   3.371   2.939
 5258TIP3   OH215737   3.945   5.403   0.493
 5258TIP3    H115738   4.031   5.365   0.476
 5258TIP3    H215739   3.903   5.405   0.407
 5259TIP3   OH215740   3.413   6.265   1.473
 5259TIP3    H115741   3.372   6.346   1.502
 5259TIP3    H215742   3.416   6.210   1.552
 5260TIP3   OH215743   2.941   6.412   0.750
 5260TIP3    H115744   2.911   6.344   0.690
 5260TIP3    H215745   2.861   6.458   0.775
 5261TIP3   OH215746   3.306   0.550   3.026
 5261TIP3    H115747   3.257   0.614   3.079
 5261TIP3    H215748   3.329   0.481   3.088
 5262TIP3   OH215749   2.606   2.810   1.028
 5262TIP3    H115750   2.514   2.831   1.042
 5262TIP3    H215751   2.649   2.895   1.017
 5263TIP3   OH215752   6.877   0.121   2.403
 5263TIP3    H115753   6.819   0.052   2.434
 5263TIP3    H215754   6.869   0.191   2.468
 5264TIP3   OH215755   6.842   4.380   4.722
 5264TIP3    H115756   6.876   4.297   4.690
 5264TIP3    H215757   6.778   4.356   4.789
 5265TIP3   OH215758   4.206   3.493   2.761
 5265TIP3    H115759   4.229   3.436   2.834
 5265TIP3    H215760   4.227   3.581   2.792
 5266TIP3   OH215761   1.290   4.796   5.822
 5266TIP3    H115762   1.325   4.881   5.794
 5266TIP3    H215763   1.251   4.813   5.907
 5267TIP3   OH215764   3.033   6.574   0.315
 5267TIP3    H115765   3.057   6.520   0.239
 5267TIP3    H215766   2.938   6.587   0.306
 5268TIP3   OH215767   0.772   5.131   3.717
 5268TIP3    H115768   0.684   5.170   3.716
 5268TIP3    H215769   0.808   5.156   3.802
 5269TIP3   OH215770   6.158   1.356   4.373
 5269TIP3    H115771   6.250   1.337   4.389
 5269TIP3    H215772   6.144   1.333   4.282
 5270TIP3   OH215773   6.692   3.674   5.769
 5270TIP3    H115774   6.659   3.587   5.791
 5270TIP3    H215775   6.615   3.722   5.739
 5271TIP3   OH215776   2.356   5.570   0.917
 5271TIP3    H115777   2.372   5.513   0.842
 5271TIP3    H215778   2.381   5.518   0.993
 5272TIP3   OH215779   2.141   4.296   3.252
 5272TIP3    H115780   2.162   4.317   3.343
 5272TIP3    H215781   2.194   4.218   3.233
 5273TIP3   OH215782   5.429   0.453   2.501
 5273TIP3    H115783   5.443   0.365   2.465
 5273TIP3    H215784   5.454   0.512   2.430
 5274TIP3   OH215785   7.171   6.615   3.479
 5274TIP3    H115786   7.187   6.639   3.571
 5274TIP3    H215787   7.151   6.698   3.436
 5275TIP3   OH215788   1.843   3.642   1.716
 5275TIP3    H115789   1.921   3.663   1.766
 5275TIP3    H215790   1.875   3.596   1.639
 5276TIP3   OH215791   1.896   4.406   2.573
 5276TIP3    H115792   1.982   4.365   2.566
 5276TIP3    H215793   1.866   4.415   2.482
 5277TIP3   OH215794   1.970   5.920   1.407
 5277TIP3    H115795   1.921   5.980   1.350
 5277TIP3    H215796   2.051   5.966   1.427
 5278TIP3   OH215797   4.026   3.574   3.712
 5278TIP3    H115798   4.044   3.666   3.733
 5278TIP3    H215799   3.942   3.576   3.667
 5279TIP3   OH215800   1.400   0.803   3.905
 5279TIP3    H115801   1.379   0.710   3.911
 5279TIP3    H215802   1.494   0.805   3.886
 5280TIP3   OH215803   1.768   2.670   2.105
 5280TIP3    H115804   1.683   2.705   2.078
 5280TIP3    H215805   1.801   2.734   2.168
 5281TIP3   OH215806   5.704   3.739   1.395
 5281TIP3    H115807   5.742   3.657   1.427
 5281TIP3    H215808   5.697   3.794   1.473
 5282TIP3   OH215809   6.833   3.295   0.486
 5282TIP3    H115810   6.778   3.333   0.555
 5282TIP3    H215811   6.778   3.299   0.408
 5283TIP3   OH215812   5.021   0.628   2.852
 5283TIP3    H115813   5.078   0.560   2.817
 5283TIP3    H215814   5.033   0.702   2.793
 5284TIP3   OH215815   3.734   5.780   0.939
 5284TIP3    H115816   3.773   5.827   0.866
 5284TIP3    H215817   3.806   5.769   1.001
 5285TIP3   OH215818   2.202   3.025   3.946
 5285TIP3    H115819   2.221   3.092   3.879
 5285TIP3    H215820   2.272   2.961   3.935
 5286TIP3   OH215821   3.488   5.687   1.872
 5286TIP3    H115822   3.417   5.730   1.920
 5286TIP3    H215823   3.553   5.666   1.938
 5287TIP3   OH215824   2.609   1.656   4.484
 5287TIP3    H115825   2.690   1.617   4.516
 5287TIP3    H215826   2.621   1.751   4.497
 5288TIP3   OH215827   1.876   3.037   2.305
 5288TIP3    H115828   1.860   2.954   2.350
 5288TIP3    H215829   1.820   3.032   2.227
 5289TIP3   OH215830   2.805   1.491   3.167
 5289TIP3    H115831   2.861   1.446   3.104
 5289TIP3    H215832   2.737   1.427   3.189
 5290TIP3   OH215833   2.903   5.606   2.796
 5290TIP3    H115834   2.984   5.568   2.830
 5290TIP3    H215835   2.854   5.531   2.761
 5291TIP3   OH215836   1.176   5.574   2.921
 5291TIP3    H115837   1.263   5.612   2.906
 5291TIP3    H215838   1.193   5.499   2.979
 5292TIP3   OH215839   2.408   3.506   5.665
 5292TIP3    H115840   2.501   3.527   5.653
 5292TIP3    H215841   2.364   3.554   5.595
 5293TIP3   OH215842   4.715   4.038   3.509
 5293TIP3    H115843   4.646   3.998   3.561
 5293TIP3    H215844   4.755   4.103   3.568
 5294TIP3   OH215845   6.815   5.795   4.833
 5294TIP3    H115846   6.793   5.716   4.883
 5294TIP3    H215847   6.890   5.769   4.779
 5295TIP3   OH215848   6.123   2.148   2.479
 5295TIP3    H115849   6.194   2.206   2.451
 5295TIP3    H215850   6.086   2.116   2.397
 5296TIP3   OH215851   5.316   6.489   4.724
 5296TIP3    H115852   5.290   6.547   4.652
 5296TIP3    H215853   5.232   6.458   4.760
 5297TIP3   OH215854   1.764   3.975   1.025
 5297TIP3    H115855   1.858   3.959   1.022
 5297TIP3    H215856   1.756   4.070   1.031
 5298TIP3   OH215857   3.003   2.415   4.187
 5298TIP3    H115858   3.072   2.375   4.240
 5298TIP3    H215859   2.974   2.491   4.238
 5299TIP3   OH215860   1.344   1.169   0.868
 5299TIP3    H115861   1.311   1.105   0.931
 5299TIP3    H215862   1.437   1.177   0.889
 5300TIP3   OH215863   1.091   1.203   3.618
 5300TIP3    H115864   1.155   1.272   3.602
 5300TIP3    H215865   1.064   1.216   3.709
 5301TIP3   OH215866   4.702   0.259   2.441
 5301TIP3    H115867   4.690   0.250   2.535
 5301TIP3    H215868   4.628   0.213   2.402
 5302TIP3   OH215869   4.287   3.503   5.511
 5302TIP3    H115870   4.217   3.565   5.530
 5302TIP3    H215871   4.335   3.494   5.594
 5303TIP3   OH215872   1.448   0.121   3.916
 5303TIP3    H115873   1.358   0.094   3.899
 5303TIP3    H215874   1.467   0.186   3.848
 5304TIP3   OH215875   4.921   2.094   2.893
 5304TIP3    H115876   4.863   2.125   2.823
 5304TIP3    H215877   4.864   2.043   2.950
 5305TIP3   OH215878   3.972   1.836   5.064
 5305TIP3    H115879   3.922   1.899   5.116
 5305TIP3    H215880   3.981   1.878   4.978
 5306TIP3   OH215881   5.665   5.187   0.730
 5306TIP3    H115882   5.744   5.147   0.767
 5306TIP3    H215883   5.630   5.239   0.802
 5307TIP3   OH215884   3.853   5.255   1.677
 5307TIP3    H115885   3.815   5.205   1.749
 5307TIP3    H215886   3.779   5.299   1.636
 5308TIP3   OH215887   6.114   3.801   1.811
 5308TIP3    H115888   6.148   3.851   1.884
 5308TIP3    H215889   6.186   3.800   1.747
 5309TIP3   OH215890   7.100   5.579   0.049
 5309TIP3    H115891   7.016   5.578   0.004
 5309TIP3    H215892   7.081   5.547   0.137
 5310TIP3   OH215893   1.280   6.470   1.637
 5310TIP3    H115894   1.369   6.466   1.672
 5310TIP3    H215895   1.226   6.428   1.704
 5311TIP3   OH215896   3.514   6.086   0.101
 5311TIP3    H115897   3.460   6.166   0.098
 5311TIP3    H215898   3.588   6.109   0.157
 5312TIP3   OH215899   0.601   3.357   2.798
 5312TIP3    H115900   0.681   3.384   2.843
 5312TIP3    H215901   0.534   3.417   2.831
 5313TIP3   OH215902   7.089   6.670   2.396
 5313TIP3    H115903   7.099   6.678   2.491
 5313TIP3    H215904   7.002   6.707   2.378
 5314TIP3   OH215905   0.862   2.134   0.984
 5314TIP3    H115906   0.924   2.068   1.013
 5314TIP3    H215907   0.784   2.085   0.959
 5315TIP3   OH215908   1.152   6.165   5.346
 5315TIP3    H115909   1.157   6.122   5.261
 5315TIP3    H215910   1.171   6.257   5.328
 5316TIP3   OH215911   3.741   2.652   5.775
 5316TIP3    H115912   3.663   2.644   5.720
 5316TIP3    H215913   3.813   2.664   5.712
 5317TIP3   OH215914   0.754   0.926   3.253
 5317TIP3    H115915   0.684   0.910   3.316
 5317TIP3    H215916   0.833   0.938   3.306
 5318TIP3   OH215917   1.386   5.248   4.612
 5318TIP3    H115918   1.478   5.265   4.590
 5318TIP3    H215919   1.375   5.282   4.700
 5319TIP3   OH215920   1.878   2.658   4.248
 5319TIP3    H115921   1.932   2.695   4.179
 5319TIP3    H215922   1.847   2.575   4.212
 5320TIP3   OH215923   3.762   0.966   3.401
 5320TIP3    H115924   3.813   1.044   3.378
 5320TIP3    H215925   3.683   1.002   3.442
 5321TIP3   OH215926   0.715   4.478   1.222
 5321TIP3    H115927   0.705   4.515   1.310
 5321TIP3    H215928   0.772   4.540   1.176
 5322TIP3   OH215929   6.114   6.758   4.383
 5322TIP3    H115930   6.182   6.824   4.396
 5322TIP3    H215931   6.129   6.694   4.453
 5323TIP3   OH215932   1.177   5.269   1.380
 5323TIP3    H115933   1.186   5.325   1.304
 5323TIP3    H215934   1.262   5.228   1.392
 5324TIP3   OH215935   4.240   6.466   5.230
 5324TIP3    H115936   4.162   6.519   5.244
 5324TIP3    H215937   4.301   6.493   5.298
 5325TIP3   OH215938   4.742   3.397   4.494
 5325TIP3    H115939   4.816   3.455   4.515
 5325TIP3    H215940   4.722   3.416   4.402
 5326TIP3   OH215941   4.260   0.638   4.795
 5326TIP3    H115942   4.259   0.693   4.873
 5326TIP3    H215943   4.228   0.553   4.825
 5327TIP3   OH215944   5.672   4.791   2.577
 5327TIP3    H115945   5.711   4.706   2.558
 5327TIP3    H215946   5.578   4.779   2.560
 5328TIP3   OH215947   4.585   5.354   5.448
 5328TIP3    H115948   4.499   5.395   5.459
 5328TIP3    H215949   4.626   5.402   5.376
 5329TIP3   OH215950   3.720   6.303   1.519
 5329TIP3    H115951   3.732   6.353   1.600
 5329TIP3    H215952   3.625   6.305   1.504
 5330TIP3   OH215953   2.715   6.790   2.212
 5330TIP3    H115954   2.645   6.848   2.242
 5330TIP3    H215955   2.670   6.725   2.158
 5331TIP3   OH215956   2.758   0.066   1.715
 5331TIP3    H115957   2.687   0.130   1.711
 5331TIP3    H215958   2.724  -0.010   1.667
 5332TIP3   OH215959   4.104   0.794   1.962
 5332TIP3    H115960   4.114   0.791   2.058
 5332TIP3    H215961   4.101   0.702   1.937
 5333TIP3   OH215962   2.098   3.619   4.544
 5333TIP3    H115963   2.174   3.643   4.599
 5333TIP3    H215964   2.023   3.628   4.603
 5334TIP3   OH215965   4.492   5.020   4.600
 5334TIP3    H115966   4.569   5.035   4.545
 5334TIP3    H215967   4.470   4.928   4.585
 5335TIP3   OH215968   6.275   0.671   2.006
 5335TIP3    H115969   6.185   0.655   1.977
 5335TIP3    H215970   6.300   0.753   1.965
 5336TIP3   OH215971   5.579   1.894   2.716
 5336TIP3    H115972   5.621   1.812   2.740
 5336TIP3    H215973   5.514   1.869   2.649
 5337TIP3   OH215974   4.040   4.367   2.966
 5337TIP3    H115975   4.006   4.389   3.053
 5337TIP3    H215976   4.098   4.292   2.982
 5338TIP3   OH215977   3.948   1.192   3.278
 5338TIP3    H115978   4.040   1.171   3.264
 5338TIP3    H215979   3.946   1.287   3.290
 5339TIP3   OH215980   5.030   6.579   3.749
 5339TIP3    H115981   5.010   6.570   3.842
 5339TIP3    H215982   4.944   6.588   3.707
 5340TIP3   OH215983   3.035   6.512   5.550
 5340TIP3    H115984   2.986   6.551   5.477
 5340TIP3    H215985   3.021   6.573   5.623
 5341TIP3   OH215986   6.393   5.567   2.615
 5341TIP3    H115987   6.376   5.495   2.676
 5341TIP3    H215988   6.379   5.529   2.529
 5342TIP3   OH215989   2.238   0.120   5.663
 5342TIP3    H115990   2.314   0.175   5.685
 5342TIP3    H215991   2.256   0.036   5.706
 5343TIP3   OH215992   4.618   4.027   2.887
 5343TIP3    H115993   4.706   4.042   2.921
 5343TIP3    H215994   4.610   4.087   2.813
 5344TIP3   OH215995   5.053   2.110   3.310
 5344TIP3    H115996   5.098   2.082   3.231
 5344TIP3    H215997   5.035   2.029   3.358
 5345TIP3   OH215998   0.739   2.643   2.890
 5345TIP3    H115999   0.674   2.573   2.887
 5345TIP3    H216000   0.711   2.699   2.962
 5346TIP3   OH216001   1.649   5.370   3.532
 5346TIP3    H116002   1.637   5.286   3.577
 5346TIP3    H216003   1.734   5.401   3.562
 5347TIP3   OH216004   3.116   2.522   0.918
 5347TIP3    H116005   3.190   2.468   0.946
 5347TIP3    H216006   3.097   2.494   0.828
 5348TIP3   OH216007   5.689   2.505   0.841
 5348TIP3    H116008   5.717   2.584   0.886
 5348TIP3    H216009   5.595   2.499   0.860
 5349TIP3   OH216010   6.242   6.398   3.355
 5349TIP3    H116011   6.204   6.318   3.318
 5349TIP3    H216012   6.322   6.411   3.305
 5350TIP3   OH216013   6.567   6.204   1.151
 5350TIP3    H116014   6.539   6.126   1.104
 5350TIP3    H216015   6.572   6.272   1.084
 5351TIP3   OH216016   1.027   0.113   4.368
 5351TIP3    H116017   0.979   0.081   4.445
 5351TIP3    H216018   1.113   0.072   4.374
 5352TIP3   OH216019   1.445   2.087   4.935
 5352TIP3    H116020   1.525   2.138   4.947
 5352TIP3    H216021   1.475   1.999   4.915
 5353TIP3   OH216022   3.917   1.259   3.786
 5353TIP3    H116023   3.972   1.327   3.825
 5353TIP3    H216024   3.862   1.306   3.723
 5354TIP3   OH216025   0.411   2.196   1.620
 5354TIP3    H116026   0.499   2.159   1.611
 5354TIP3    H216027   0.371   2.145   1.691
 5355TIP3   OH216028   1.404   6.645   4.401
 5355TIP3    H116029   1.339   6.667   4.468
 5355TIP3    H216030   1.436   6.559   4.426
 5356TIP3   OH216031   1.729   6.010   2.306
 5356TIP3    H116032   1.789   6.084   2.298
 5356TIP3    H216033   1.724   5.975   2.217
 5357TIP3   OH216034   5.960   3.118   3.886
 5357TIP3    H116035   6.043   3.167   3.883
 5357TIP3    H216036   5.914   3.146   3.807
 5358TIP3   OH216037   0.085   3.672   3.352
 5358TIP3    H116038   0.094   3.577   3.343
 5358TIP3    H216039   0.066   3.685   3.445
 5359TIP3   OH216040   2.250   3.656   2.777
 5359TIP3    H116041   2.211   3.574   2.746
 5359TIP3    H216042   2.343   3.648   2.758
 5360TIP3   OH216043   2.374   5.778   1.277
 5360TIP3    H116044   2.301   5.837   1.294
 5360TIP3    H216045   2.420   5.817   1.203
 5361TIP3   OH216046   4.002   0.922   5.126
 5361TIP3    H116047   3.993   0.907   5.220
 5361TIP3    H216048   3.945   0.857   5.086
 5362TIP3   OH216049   2.560   2.067   0.261
 5362TIP3    H116050   2.465   2.054   0.263
 5362TIP3    H216051   2.585   2.048   0.171
 5363TIP3   OH216052   0.000   4.816   2.361
 5363TIP3    H116053   0.022   4.905   2.388
 5363TIP3    H216054  -0.078   4.826   2.306
 5364TIP3   OH216055   1.902   6.733   5.930
 5364TIP3    H116056   1.944   6.814   5.900
 5364TIP3    H216057   1.929   6.667   5.867
 5365TIP3   OH216058   5.197   1.092   0.132
 5365TIP3    H116059   5.123   1.130   0.181
 5365TIP3    H216060   5.174   1.107   0.040
 5366TIP3   OH216061   4.629   3.164   3.349
 5366TIP3    H116062   4.667   3.242   3.308
 5366TIP3    H216063   4.568   3.130   3.284
 5367TIP3   OH216064   4.616   2.164   5.565
 5367TIP3    H116065   4.530   2.171   5.524
 5367TIP3    H216066   4.598   2.159   5.659
 5368TIP3   OH216067  -0.007   5.314   1.104
 5368TIP3    H116068   0.023   5.313   1.195
 5368TIP3    H216069  -0.003   5.222   1.077
 5369TIP3   OH216070   4.731   5.139   5.201
 5369TIP3    H116071   4.684   5.105   5.277
 5369TIP3    H216072   4.764   5.224   5.228
 5370TIP3   OH216073   1.903   2.611   0.611
 5370TIP3    H116074   1.868   2.646   0.693
 5370TIP3    H216075   1.993   2.644   0.608
 5371TIP3   OH216076   2.143   5.320   5.474
 5371TIP3    H116077   2.233   5.299   5.500
 5371TIP3    H216078   2.102   5.234   5.461
 5372TIP3   OH216079   2.771   5.655   3.798
 5372TIP3    H116080   2.778   5.587   3.732
 5372TIP3    H216081   2.847   5.642   3.855
 5373TIP3   OH216082   6.320   1.357   3.000
 5373TIP3    H116083   6.298   1.292   2.933
 5373TIP3    H216084   6.393   1.318   3.048
 5374TIP3   OH216085   6.081   3.891   3.835
 5374TIP3    H116086   5.997   3.927   3.863
 5374TIP3    H216087   6.059   3.824   3.770
 5375TIP3   OH216088   0.476   5.512   0.166
 5375TIP3    H116089   0.450   5.543   0.252
 5375TIP3    H216090   0.530   5.435   0.183
 5376TIP3   OH216091   6.183   3.046   3.338
 5376TIP3    H116092   6.276   3.052   3.360
 5376TIP3    H216093   6.168   2.953   3.320
 5377TIP3   OH216094   5.346   2.842   4.344
 5377TIP3    H116095   5.348   2.841   4.248
 5377TIP3    H216096   5.369   2.752   4.370
 5378TIP3   OH216097   7.093   3.669   3.169
 5378TIP3    H116098   7.105   3.695   3.078
 5378TIP3    H216099   7.174   3.695   3.212
 5379TIP3   OH216100   5.601   4.089   3.649
 5379TIP3    H116101   5.537   4.160   3.649
 5379TIP3    H216102   5.551   4.012   3.620
 5380TIP3   OH216103   0.582   5.583   1.451
 5380TIP3    H116104   0.499   5.589   1.498
 5380TIP3    H216105   0.643   5.635   1.504
 5381TIP3   OH216106   0.396   4.038   0.278
 5381TIP3    H116107   0.326   4.091   0.317
 5381TIP3    H216108   0.373   4.032   0.185
 5382TIP3   OH216109   1.939   4.868   3.852
 5382TIP3    H116110   1.911   4.916   3.774
 5382TIP3    H216111   2.032   4.849   3.836
 5383TIP3   OH216112   1.539   3.213   3.167
 5383TIP3    H116113   1.494   3.232   3.085
 5383TIP3    H216114   1.479   3.241   3.236
 5384TIP3   OH216115   4.475   4.676   1.397
 5384TIP3    H116116   4.557   4.672   1.348
 5384TIP3    H216117   4.457   4.770   1.404
 5385TIP3   OH216118   4.422   4.226   2.025
 5385TIP3    H116119   4.499   4.236   2.080
 5385TIP3    H216120   4.444   4.152   1.967
 5386TIP3   OH216121   2.964   0.491   3.076
 5386TIP3    H116122   2.942   0.574   3.033
 5386TIP3    H216123   2.881   0.459   3.110
 5387TIP3   OH216124   2.378   3.320   5.873
 5387TIP3    H116125   2.458   3.336   5.924
 5387TIP3    H216126   2.391   3.369   5.792
 5388TIP3   OH216127   3.870   5.434   4.504
 5388TIP3    H116128   3.792   5.469   4.546
 5388TIP3    H216129   3.943   5.475   4.551
 5389TIP3   OH216130   5.576   3.388   3.009
 5389TIP3    H116131   5.548   3.440   2.933
 5389TIP3    H216132   5.660   3.351   2.983
 5390TIP3   OH216133   6.997   0.414   4.458
 5390TIP3    H116134   7.009   0.363   4.379
 5390TIP3    H216135   6.930   0.479   4.435
 5391TIP3   OH216136   0.347   6.622   3.386
 5391TIP3    H116137   0.334   6.533   3.353
 5391TIP3    H216138   0.293   6.677   3.329
 5392TIP3   OH216139   2.803   6.290   1.876
 5392TIP3    H116140   2.714   6.263   1.851
 5392TIP3    H216141   2.791   6.376   1.916
 5393TIP3   OH216142   3.266   2.458   2.044
 5393TIP3    H116143   3.341   2.400   2.057
 5393TIP3    H216144   3.267   2.516   2.120
 5394TIP3   OH216145   0.587   1.998   2.830
 5394TIP3    H116146   0.509   1.987   2.885
 5394TIP3    H216147   0.577   1.933   2.760
 5395TIP3   OH216148   0.938   4.383   4.270
 5395TIP3    H116149   0.911   4.441   4.341
 5395TIP3    H216150   0.993   4.439   4.214
 5396TIP3   OH216151   5.401   3.170   5.736
 5396TIP3    H116152   5.368   3.080   5.738
 5396TIP3    H216153   5.490   3.163   5.702
 5397TIP3   OH216154   5.351   3.663   0.551
 5397TIP3    H116155   5.416   3.726   0.583
 5397TIP3    H216156   5.399   3.581   0.541
 5398TIP3   OH216157   1.752   5.155   4.786
 5398TIP3    H116158   1.754   5.245   4.817
 5398TIP3    H216159   1.805   5.156   4.706
 5399TIP3   OH216160   4.772   4.308   3.575
 5399TIP3    H116161   4.686   4.303   3.616
 5399TIP3    H216162   4.821   4.368   3.632
 5400TIP3   OH216163   2.830   0.528   1.399
 5400TIP3    H116164   2.773   0.451   1.403
 5400TIP3    H216165   2.875   0.521   1.315
 5401TIP3   OH216166   0.708   5.893   2.921
 5401TIP3    H116167   0.771   5.822   2.909
 5401TIP3    H216168   0.728   5.927   3.009
 5402TIP3   OH216169   3.928   0.619   0.830
 5402TIP3    H116170   3.977   0.554   0.880
 5402TIP3    H216171   3.995   0.667   0.781
 5403TIP3   OH216172   5.031   1.471   1.096
 5403TIP3    H116173   4.943   1.460   1.061
 5403TIP3    H216174   5.018   1.509   1.183
 5404TIP3   OH216175   4.237   0.332   1.615
 5404TIP3    H116176   4.155   0.382   1.616
 5404TIP3    H216177   4.236   0.286   1.531
 5405TIP3   OH216178   3.168   0.352   2.338
 5405TIP3    H116179   3.214   0.431   2.308
 5405TIP3    H216180   3.105   0.333   2.268
 5406TIP3   OH216181   6.004   4.361   5.135
 5406TIP3    H116182   5.958   4.435   5.174
 5406TIP3    H216183   5.965   4.351   5.048
 5407TIP3   OH216184   1.650   5.357   4.532
 5407TIP3    H116185   1.662   5.398   4.447
 5407TIP3    H216186   1.738   5.327   4.556
 5408TIP3   OH216187   6.968   0.627   1.490
 5408TIP3    H116188   6.877   0.628   1.518
 5408TIP3    H216189   6.966   0.660   1.400
 5409TIP3   OH216190   6.264   3.408   0.868
 5409TIP3    H116191   6.245   3.499   0.846
 5409TIP3    H216192   6.185   3.377   0.912
 5410TIP3   OH216193   4.763   0.074   3.870
 5410TIP3    H116194   4.690   0.013   3.856
 5410TIP3    H216195   4.778   0.114   3.785
 5411TIP3   OH216196   2.201   6.341   3.713
 5411TIP3    H116197   2.281   6.376   3.751
 5411TIP3    H216198   2.210   6.246   3.719
 5412TIP3   OH216199   2.999   1.892   2.984
 5412TIP3    H116200   3.047   1.939   3.052
 5412TIP3    H216201   2.943   1.831   3.032
 5413TIP3   OH216202   1.891   3.308   2.278
 5413TIP3    H116203   1.890   3.214   2.297
 5413TIP3    H216204   1.919   3.348   2.360
 5414TIP3   OH216205   1.626   2.937   3.218
 5414TIP3    H116206   1.669   2.929   3.133
 5414TIP3    H216207   1.575   3.018   3.212
 5415TIP3   OH216208   6.343   1.008   2.581
 5415TIP3    H116209   6.412   0.973   2.525
 5415TIP3    H216210   6.289   1.061   2.522
 5416TIP3   OH216211   0.266   3.778   4.066
 5416TIP3    H116212   0.304   3.690   4.070
 5416TIP3    H216213   0.268   3.801   3.973
 5417TIP3   OH216214   7.131   5.592   3.500
 5417TIP3    H116215   7.065   5.571   3.566
 5417TIP3    H216216   7.080   5.632   3.428
 5418TIP3   OH216217   0.736   1.385   1.625
 5418TIP3    H116218   0.730   1.291   1.642
 5418TIP3    H216219   0.815   1.395   1.572
 5419TIP3   OH216220   1.854   0.720   4.715
 5419TIP3    H116221   1.833   0.644   4.661
 5419TIP3    H216222   1.832   0.795   4.660
 5420TIP3   OH216223   5.409   3.432   3.280
 5420TIP3    H116224   5.319   3.443   3.249
 5420TIP3    H216225   5.458   3.407   3.202
 5421TIP3   OH216226   0.413   3.272   5.515
 5421TIP3    H116227   0.383   3.204   5.576
 5421TIP3    H216228   0.413   3.230   5.429
 5422TIP3   OH216229   0.393   0.696   4.747
 5422TIP3    H116230   0.358   0.782   4.724
 5422TIP3    H216231   0.343   0.634   4.694
 5423TIP3   OH216232   5.392   5.711   4.756
 5423TIP3    H116233   5.304   5.679   4.775
 5423TIP3    H216234   5.378   5.794   4.710
 5424TIP3   OH216235   3.092   3.321   2.703
 5424TIP3    H116236   3.180   3.356   2.688
 5424TIP3    H216237   3.108   3.230   2.728
 5425TIP3   OH216238   7.165   1.861   3.212
 5425TIP3    H116239   7.216   1.843   3.291
 5425TIP3    H216240   7.083   1.814   3.226
 5426TIP3   OH216241   1.422   5.872   5.533
 5426TIP3    H116242   1.455   5.806   5.594
 5426TIP3    H216243   1.327   5.872   5.547
 5427TIP3   OH216244   4.088   4.043   3.927
 5427TIP3    H116245   4.104   3.986   4.002
 5427TIP3    H216246   4.129   4.126   3.950
 5428TIP3   OH216247   4.798   1.644   0.592
 5428TIP3    H116248   4.880   1.605   0.563
 5428TIP3    H216249   4.740   1.569   0.607
 5429TIP3   OH216250   3.116   5.153   4.212
 5429TIP3    H116251   3.041   5.209   4.230
 5429TIP3    H216252   3.085   5.090   4.147
 5430TIP3   OH216253   0.893   4.429   5.516
 5430TIP3    H116254   0.871   4.393   5.601
 5430TIP3    H216255   0.811   4.431   5.468
 5431TIP3   OH216256   7.017   0.598   1.174
 5431TIP3    H116257   7.077   0.592   1.099
 5431TIP3    H216258   7.054   0.667   1.229
 5432TIP3   OH216259   4.621   5.104   4.378
 5432TIP3    H116260   4.670   5.180   4.408
 5432TIP3    H216261   4.642   5.097   4.285
 5433TIP3   OH216262   2.624   0.321   1.446
 5433TIP3    H116263   2.559   0.256   1.422
 5433TIP3    H216264   2.626   0.319   1.542
 5434TIP3   OH216265   0.727   5.370   1.918
 5434TIP3    H116266   0.769   5.421   1.849
 5434TIP3    H216267   0.702   5.434   1.985
 5435TIP3   OH216268   5.261   2.393   2.878
 5435TIP3    H116269   5.283   2.344   2.799
 5435TIP3    H216270   5.166   2.385   2.886
 5436TIP3   OH216271   2.199   3.073   1.566
 5436TIP3    H116272   2.228   3.140   1.505
 5436TIP3    H216273   2.225   3.106   1.652
 5437TIP3   OH216274   0.930   6.302   1.484
 5437TIP3    H116275   1.008   6.253   1.508
 5437TIP3    H216276   0.879   6.242   1.429
 5438TIP3   OH216277   1.788   5.413   1.963
 5438TIP3    H116278   1.773   5.472   1.889
 5438TIP3    H216279   1.850   5.348   1.930
 5439TIP3   OH216280   2.519   0.011   5.061
 5439TIP3    H116281   2.473   0.092   5.085
 5439TIP3    H216282   2.560   0.030   4.977
 5440TIP3   OH216283   3.001   5.571   3.530
 5440TIP3    H116284   3.029   5.569   3.621
 5440TIP3    H216285   2.910   5.599   3.533
 5441TIP3   OH216286   4.249   6.108   2.781
 5441TIP3    H116287   4.284   6.189   2.820
 5441TIP3    H216288   4.237   6.049   2.856
 5442TIP3   OH216289   4.241   6.769   5.547
 5442TIP3    H116290   4.227   6.746   5.639
 5442TIP3    H216291   4.161   6.815   5.522
 5443TIP3   OH216292   2.395   0.812   4.071
 5443TIP3    H116293   2.382   0.869   3.995
 5443TIP3    H216294   2.408   0.872   4.145
 5444TIP3   OH216295   1.816   3.008   0.547
 5444TIP3    H116296   1.909   3.034   0.544
 5444TIP3    H216297   1.799   2.971   0.461
 5445TIP3   OH216298   3.196   6.084   5.664
 5445TIP3    H116299   3.226   6.147   5.599
 5445TIP3    H216300   3.169   6.137   5.739
 5446TIP3   OH216301   5.952   6.523   3.261
 5446TIP3    H116302   5.960   6.559   3.349
 5446TIP3    H216303   5.897   6.587   3.214
 5447TIP3   OH216304   5.099   5.808   3.839
 5447TIP3    H116305   5.059   5.820   3.752
 5447TIP3    H216306   5.175   5.867   3.838
 5448TIP3   OH216307   5.618   6.072   5.644
 5448TIP3    H116308   5.557   6.003   5.669
 5448TIP3    H216309   5.617   6.133   5.718
 5449TIP3   OH216310   4.491   3.535   4.622
 5449TIP3    H116311   4.486   3.517   4.528
 5449TIP3    H216312   4.558   3.475   4.655
 5450TIP3   OH216313   5.654   0.578   4.712
 5450TIP3    H116314   5.706   0.506   4.675
 5450TIP3    H216315   5.577   0.535   4.748
 5451TIP3   OH216316   6.077   6.464   3.575
 5451TIP3    H116317   6.127   6.513   3.640
 5451TIP3    H216318   6.142   6.418   3.522
 5452TIP3   OH216319   7.148   5.489   4.586
 5452TIP3    H116320   7.087   5.487   4.512
 5452TIP3    H216321   7.143   5.401   4.624
 5453TIP3   OH216322   1.302   5.500   0.321
 5453TIP3    H116323   1.360   5.528   0.250
 5453TIP3    H216324   1.227   5.460   0.276
 5454TIP3   OH216325   3.406   4.084   4.585
 5454TIP3    H116326   3.463   4.144   4.634
 5454TIP3    H216327   3.460   4.006   4.571
 5455TIP3   OH216328   2.202   1.153   3.248
 5455TIP3    H116329   2.184   1.063   3.221
 5455TIP3    H216330   2.128   1.177   3.303
 5456TIP3   OH216331   0.478   3.192   2.212
 5456TIP3    H116332   0.436   3.187   2.126
 5456TIP3    H216333   0.458   3.281   2.243
 5457TIP3   OH216334   2.821   5.126   0.575
 5457TIP3    H116335   2.750   5.186   0.595
 5457TIP3    H216336   2.900   5.170   0.608
 5458TIP3   OH216337   3.220   2.805   3.275
 5458TIP3    H116338   3.151   2.834   3.336
 5458TIP3    H216339   3.218   2.709   3.281
 5459TIP3   OH216340   1.076   5.862   4.591
 5459TIP3    H116341   1.054   5.952   4.569
 5459TIP3    H216342   1.006   5.810   4.550
 5460TIP3   OH216343   1.986   5.416   4.886
 5460TIP3    H116344   1.913   5.476   4.875
 5460TIP3    H216345   2.003   5.382   4.798
 5461TIP3   OH216346   6.655   2.127   1.413
 5461TIP3    H116347   6.661   2.037   1.380
 5461TIP3    H216348   6.619   2.118   1.501
 5462TIP3   OH216349   3.831   3.081   4.248
 5462TIP3    H116350   3.805   3.157   4.300
 5462TIP3    H216351   3.905   3.043   4.295
 5463TIP3   OH216352   1.249   2.350   3.944
 5463TIP3    H116353   1.339   2.379   3.957
 5463TIP3    H216354   1.203   2.380   4.023
 5464TIP3   OH216355   0.356   1.995   0.697
 5464TIP3    H116356   0.431   2.033   0.651
 5464TIP3    H216357   0.295   2.068   0.708
 5465TIP3   OH216358   0.243   1.917   2.775
 5465TIP3    H116359   0.170   1.856   2.780
 5465TIP3    H216360   0.254   1.950   2.864
 5466TIP3   OH216361   3.278   0.024   0.848
 5466TIP3    H116362   3.212  -0.036   0.812
 5466TIP3    H216363   3.230   0.105   0.864
 5467TIP3   OH216364   5.406   6.256   1.918
 5467TIP3    H116365   5.371   6.339   1.953
 5467TIP3    H216366   5.497   6.275   1.897
 5468TIP3   OH216367   5.356   0.643   4.275
 5468TIP3    H116368   5.417   0.693   4.329
 5468TIP3    H216369   5.331   0.569   4.329
 5469TIP3   OH216370   4.619   3.621   0.228
 5469TIP3    H116371   4.685   3.669   0.177
 5469TIP3    H216372   4.628   3.654   0.317
 5470TIP3   OH216373   0.990   4.115   0.988
 5470TIP3    H116374   1.070   4.165   1.003
 5470TIP3    H216375   1.016   4.042   0.933
 5471TIP3   OH216376   0.966   6.447   4.881
 5471TIP3    H116377   0.915   6.417   4.805
 5471TIP3    H216378   0.997   6.534   4.856
 5472TIP3   OH216379   5.079   0.653   5.633
 5472TIP3    H116380   5.135   0.675   5.559
 5472TIP3    H216381   5.000   0.618   5.594
 5473TIP3   OH216382   1.385   0.398   0.828
 5473TIP3    H116383   1.377   0.349   0.746
 5473TIP3    H216384   1.475   0.431   0.828
 5474TIP3   OH216385   1.123   4.346   2.702
 5474TIP3    H116386   1.043   4.354   2.650
 5474TIP3    H216387   1.175   4.423   2.679
 5475TIP3   OH216388   0.681   2.765   1.911
 5475TIP3    H116389   0.596   2.756   1.953
 5475TIP3    H216390   0.711   2.675   1.897
 5476TIP3   OH216391   4.531   4.642   3.028
 5476TIP3    H116392   4.515   4.547   3.031
 5476TIP3    H216393   4.626   4.650   3.017
 5477TIP3   OH216394   4.268   3.271   5.395
 5477TIP3    H116395   4.262   3.359   5.433
 5477TIP3    H216396   4.177   3.245   5.380
 5478TIP3   OH216397   6.793   1.160   2.464
 5478TIP3    H116398   6.839   1.206   2.394
 5478TIP3    H216399   6.741   1.228   2.507
 5479TIP3   OH216400   3.163   1.285   4.790
 5479TIP3    H116401   3.235   1.223   4.800
 5479TIP3    H216402   3.191   1.363   4.838
 5480TIP3   OH216403   5.086   4.841   0.510
 5480TIP3    H116404   5.179   4.841   0.531
 5480TIP3    H216405   5.075   4.913   0.448
 5481TIP3   OH216406   0.186   4.987   5.812
 5481TIP3    H116407   0.144   4.983   5.726
 5481TIP3    H216408   0.174   4.900   5.849
 5482TIP3   OH216409   4.463   6.000   1.997
 5482TIP3    H116410   4.498   6.078   2.039
 5482TIP3    H216411   4.402   5.963   2.062
 5483TIP3   OH216412   3.438   0.337   5.883
 5483TIP3    H116413   3.484   0.346   5.800
 5483TIP3    H216414   3.481   0.401   5.941
 5484TIP3   OH216415   6.356   2.112   5.569
 5484TIP3    H116416   6.267   2.117   5.604
 5484TIP3    H216417   6.412   2.130   5.644
 5485TIP3   OH216418   5.902   3.702   1.657
 5485TIP3    H116419   5.931   3.627   1.605
 5485TIP3    H216420   5.983   3.741   1.690
 5486TIP3   OH216421   2.136   1.394   0.436
 5486TIP3    H116422   2.042   1.411   0.441
 5486TIP3    H216423   2.174   1.452   0.502
 5487TIP3   OH216424   3.617   6.743   4.423
 5487TIP3    H116425   3.708   6.771   4.434
 5487TIP3    H216426   3.582   6.799   4.354
 5488TIP3   OH216427   4.296   1.106   5.199
 5488TIP3    H116428   4.324   1.111   5.108
 5488TIP3    H216429   4.293   1.012   5.217
 5489TIP3   OH216430   4.101   5.017   4.652
 5489TIP3    H116431   4.162   5.013   4.726
 5489TIP3    H216432   4.151   4.983   4.578
 5490TIP3   OH216433   4.334   3.232   1.790
 5490TIP3    H116434   4.386   3.168   1.740
 5490TIP3    H216435   4.255   3.185   1.814
 5491TIP3   OH216436   1.818   0.716   2.403
 5491TIP3    H116437   1.905   0.695   2.369
 5491TIP3    H216438   1.766   0.637   2.387
 5492TIP3   OH216439   4.621   0.359   4.389
 5492TIP3    H116440   4.693   0.370   4.327
 5492TIP3    H216441   4.593   0.448   4.410
 5493TIP3   OH216442   4.341   1.598   2.555
 5493TIP3    H116443   4.273   1.624   2.493
 5493TIP3    H216444   4.343   1.669   2.619
 5494TIP3   OH216445   5.640   0.075   4.045
 5494TIP3    H116446   5.585   0.031   4.110
 5494TIP3    H216447   5.638   0.017   3.969
 5495TIP3   OH216448   4.906   2.058   4.371
 5495TIP3    H116449   4.895   2.051   4.276
 5495TIP3    H216450   4.980   2.117   4.383
 5496TIP3   OH216451   2.861   5.856   4.962
 5496TIP3    H116452   2.822   5.831   4.879
 5496TIP3    H216453   2.788   5.891   5.014
 5497TIP3   OH216454   6.028   5.025   1.434
 5497TIP3    H116455   6.110   5.010   1.387
 5497TIP3    H216456   6.039   4.981   1.518
 5498TIP3   OH216457   0.086   2.347   0.680
 5498TIP3    H116458   0.100   2.442   0.672
 5498TIP3    H216459   0.062   2.334   0.772
 5499TIP3   OH216460   1.420   1.446   0.059
 5499TIP3    H116461   1.393   1.534   0.084
 5499TIP3    H216462   1.491   1.460  -0.005
 5500TIP3   OH216463   5.311   3.042   0.665
 5500TIP3    H116464   5.229   2.997   0.646
 5500TIP3    H216465   5.285   3.124   0.707
 5501TIP3   OH216466   1.277   0.462   3.182
 5501TIP3    H116467   1.260   0.519   3.107
 5501TIP3    H216468   1.291   0.522   3.255
 5502TIP3   OH216469   4.618   1.687   4.672
 5502TIP3    H116470   4.638   1.593   4.670
 5502TIP3    H216471   4.685   1.727   4.616
 5503TIP3   OH216472   2.387   1.564   0.910
 5503TIP3    H116473   2.425   1.492   0.858
 5503TIP3    H216474   2.293   1.557   0.896
 5504TIP3   OH216475   5.127   4.520   2.424
 5504TIP3    H116476   5.058   4.565   2.375
 5504TIP3    H216477   5.199   4.513   2.362
 5505TIP3   OH216478   1.078   1.545   5.807
 5505TIP3    H116479   1.096   1.498   5.889
 5505TIP3    H216480   0.987   1.574   5.815
 5506TIP3   OH216481   6.478   0.374   5.789
 5506TIP3    H116482   6.436   0.317   5.854
 5506TIP3    H216483   6.446   0.462   5.810
 5507TIP3   OH216484   1.190   0.422   4.676
 5507TIP3    H116485   1.200   0.447   4.584
 5507TIP3    H216486   1.109   0.464   4.704
 5508TIP3   OH216487   6.142   0.761   0.023
 5508TIP3    H116488   6.189   0.740  -0.058
 5508TIP3    H216489   6.154   0.683   0.078
 5509TIP3   OH216490   1.686   0.653   5.681
 5509TIP3    H116491   1.723   0.729   5.727
 5509TIP3    H216492   1.725   0.577   5.725
 5510TIP3   OH216493   3.263   6.498   2.107
 5510TIP3    H116494   3.191   6.497   2.044
 5510TIP3    H216495   3.271   6.590   2.132
 5511TIP3   OH216496   5.858   2.138   4.538
 5511TIP3    H116497   5.847   2.229   4.510
 5511TIP3    H216498   5.935   2.140   4.594
 5512TIP3   OH216499   2.149   3.500   5.344
 5512TIP3    H116500   2.106   3.500   5.429
 5512TIP3    H216501   2.216   3.432   5.350
 5513TIP3   OH216502   2.070   1.021   2.907
 5513TIP3    H116503   1.986   0.979   2.889
 5513TIP3    H216504   2.112   1.028   2.821
 5514TIP3   OH216505   4.309   5.473   2.333
 5514TIP3    H116506   4.298   5.529   2.410
 5514TIP3    H216507   4.302   5.533   2.259
 5515TIP3   OH216508   3.686   4.034   2.756
 5515TIP3    H116509   3.733   3.958   2.790
 5515TIP3    H216510   3.739   4.066   2.684
 5516TIP3   OH216511   0.446   0.368   4.652
 5516TIP3    H116512   0.482   0.391   4.566
 5516TIP3    H216513   0.353   0.389   4.645
 5517TIP3   OH216514   6.118   2.480   4.273
 5517TIP3    H116515   6.063   2.557   4.285
 5517TIP3    H216516   6.206   2.510   4.296
 5518TIP3   OH216517   1.599   1.527   1.043
 5518TIP3    H116518   1.544   1.524   0.965
 5518TIP3    H216519   1.674   1.472   1.022
 5519TIP3   OH216520   5.481   6.028   0.701
 5519TIP3    H116521   5.545   6.099   0.694
 5519TIP3    H216522   5.405   6.059   0.652
 5520TIP3   OH216523   2.029   2.294   1.914
 5520TIP3    H116524   2.109   2.252   1.946
 5520TIP3    H216525   1.959   2.255   1.966
 5521TIP3   OH216526   4.054   5.625   2.961
 5521TIP3    H116527   4.024   5.534   2.968
 5521TIP3    H216528   4.134   5.628   3.013
 5522TIP3   OH216529   3.982   5.863   5.009
 5522TIP3    H116530   4.043   5.800   5.047
 5522TIP3    H216531   4.032   5.944   5.001
 5523TIP3   OH216532   4.773   3.143   1.038
 5523TIP3    H116533   4.804   3.090   0.964
 5523TIP3    H216534   4.761   3.080   1.109
 5524TIP3   OH216535   6.738   1.653   4.885
 5524TIP3    H116536   6.813   1.696   4.925
 5524TIP3    H216537   6.711   1.586   4.948
 5525TIP3   OH216538   5.598   4.600   5.714
 5525TIP3    H116539   5.516   4.650   5.716
 5525TIP3    H216540   5.665   4.667   5.701
 5526TIP3   OH216541   2.686   3.565   5.630
 5526TIP3    H116542   2.719   3.614   5.555
 5526TIP3    H216543   2.686   3.628   5.702
 5527TIP3   OH216544   6.659   6.714   1.093
 5527TIP3    H116545   6.580   6.763   1.071
 5527TIP3    H216546   6.717   6.780   1.131
 5528TIP3   OH216547   0.099   0.972   4.075
 5528TIP3    H116548   0.166   1.021   4.121
 5528TIP3    H216549   0.018   1.020   4.091
 5529TIP3   OH216550   6.339   0.254   1.262
 5529TIP3    H116551   6.373   0.318   1.201
 5529TIP3    H216552   6.395   0.263   1.340
 5530TIP3   OH216553   1.566   4.208   4.394
 5530TIP3    H116554   1.655   4.222   4.363
 5530TIP3    H216555   1.534   4.134   4.342
 5531TIP3   OH216556   3.391   4.027   4.929
 5531TIP3    H116557   3.476   4.063   4.901
 5531TIP3    H216558   3.379   3.949   4.875
 5532TIP3   OH216559   2.677   3.349   2.316
 5532TIP3    H116560   2.747   3.316   2.373
 5532TIP3    H216561   2.641   3.424   2.365
 5533TIP3   OH216562   1.678   1.095   4.818
 5533TIP3    H116563   1.742   1.050   4.762
 5533TIP3    H216564   1.679   1.046   4.900
 5534TIP3   OH216565   3.515   6.194   4.779
 5534TIP3    H116566   3.419   6.192   4.776
 5534TIP3    H216567   3.538   6.141   4.855
 5535TIP3   OH216568   4.637   3.442   2.749
 5535TIP3    H116569   4.574   3.413   2.815
 5535TIP3    H216570   4.598   3.521   2.712
 5536TIP3   OH216571   2.063   2.745   2.540
 5536TIP3    H116572   2.138   2.798   2.566
 5536TIP3    H216573   1.995   2.766   2.604
 5537TIP3   OH216574   3.506   4.094   0.373
 5537TIP3    H116575   3.448   4.025   0.342
 5537TIP3    H216576   3.519   4.150   0.296
 5538TIP3   OH216577   6.007   4.174   3.583
 5538TIP3    H116578   6.010   4.103   3.518
 5538TIP3    H216579   6.098   4.192   3.604
 5539TIP3   OH216580   4.378   6.121   0.695
 5539TIP3    H116581   4.318   6.153   0.762
 5539TIP3    H216582   4.458   6.172   0.709
 5540TIP3   OH216583   0.293   3.186   4.554
 5540TIP3    H116584   0.289   3.195   4.649
 5540TIP3    H216585   0.362   3.247   4.527
 5541TIP3   OH216586   6.028   5.305   4.128
 5541TIP3    H116587   5.990   5.391   4.140
 5541TIP3    H216588   5.954   5.245   4.132
 5542TIP3   OH216589   6.953   0.565   5.407
 5542TIP3    H116590   6.995   0.495   5.457
 5542TIP3    H216591   6.933   0.632   5.473
 5543TIP3   OH216592   0.820   2.278   1.218
 5543TIP3    H116593   0.739   2.230   1.240
 5543TIP3    H216594   0.851   2.237   1.138
 5544TIP3   OH216595   7.053   3.440   4.789
 5544TIP3    H116596   7.141   3.434   4.751
 5544TIP3    H216597   7.012   3.513   4.743
 5545TIP3   OH216598   2.974   1.987   4.425
 5545TIP3    H116599   3.027   2.002   4.346
 5545TIP3    H216600   2.905   2.053   4.419
 5546TIP3   OH216601   5.596   1.159   4.902
 5546TIP3    H116602   5.611   1.253   4.886
 5546TIP3    H216603   5.585   1.122   4.814
 5547TIP3   OH216604   3.720   4.606   4.509
 5547TIP3    H116605   3.758   4.518   4.503
 5547TIP3    H216606   3.743   4.648   4.427
 5548TIP3   OH216607   0.864   2.624   4.206
 5548TIP3    H116608   0.816   2.544   4.229
 5548TIP3    H216609   0.812   2.694   4.245
 5549TIP3   OH216610   2.491   5.948   1.924
 5549TIP3    H116611   2.479   6.025   1.868
 5549TIP3    H216612   2.577   5.961   1.965
 5550TIP3   OH216613   5.634   2.023   4.400
 5550TIP3    H116614   5.710   2.080   4.412
 5550TIP3    H216615   5.593   2.019   4.487
 5551TIP3   OH216616   2.187   2.527   0.382
 5551TIP3    H116617   2.221   2.586   0.450
 5551TIP3    H216618   2.240   2.546   0.305
 5552TIP3   OH216619   0.716   2.667   5.661
 5552TIP3    H116620   0.667   2.594   5.699
 5552TIP3    H216621   0.764   2.629   5.587
 5553TIP3   OH216622   6.046   0.400   2.646
 5553TIP3    H116623   6.081   0.353   2.571
 5553TIP3    H216624   5.951   0.392   2.637
 5554TIP3   OH216625   1.205   5.391   1.672
 5554TIP3    H116626   1.250   5.384   1.587
 5554TIP3    H216627   1.150   5.469   1.663
 5555TIP3   OH216628   5.183   5.954   5.215
 5555TIP3    H116629   5.097   5.990   5.196
 5555TIP3    H216630   5.220   5.934   5.129
 5556TIP3   OH216631   2.375   2.853   3.649
 5556TIP3    H116632   2.382   2.937   3.604
 5556TIP3    H216633   2.371   2.787   3.579
 5557TIP3   OH216634   1.505   5.745   4.024
 5557TIP3    H116635   1.589   5.753   4.071
 5557TIP3    H216636   1.443   5.717   4.091
 5558TIP3   OH216637   2.103   5.883   2.266
 5558TIP3    H116638   2.122   5.929   2.185
 5558TIP3    H216639   2.189   5.852   2.297
 5559TIP3   OH216640   0.445   5.791   1.883
 5559TIP3    H116641   0.378   5.724   1.898
 5559TIP3    H216642   0.412   5.869   1.928
 5560TIP3   OH216643   2.973   5.711   2.525
 5560TIP3    H116644   2.932   5.667   2.451
 5560TIP3    H216645   2.961   5.650   2.599
 5561TIP3   OH216646   6.983   0.788   4.176
 5561TIP3    H116647   6.989   0.864   4.118
 5561TIP3    H216648   6.960   0.715   4.118
 5562TIP3   OH216649   3.297   3.848   2.985
 5562TIP3    H116650   3.367   3.880   3.043
 5562TIP3    H216651   3.311   3.895   2.903
 5563TIP3   OH216652   2.652   5.125   3.920
 5563TIP3    H116653   2.739   5.166   3.921
 5563TIP3    H216654   2.656   5.061   3.850
 5564TIP3   OH216655   6.470   2.489   0.448
 5564TIP3    H116656   6.478   2.556   0.516
 5564TIP3    H216657   6.559   2.476   0.417
 5565TIP3   OH216658   5.007   2.981   0.433
 5565TIP3    H116659   4.947   2.996   0.360
 5565TIP3    H216660   4.995   3.058   0.489
 5566TIP3   OH216661   2.439   0.098   0.264
 5566TIP3    H116662   2.348   0.104   0.292
 5566TIP3    H216663   2.435   0.079   0.170
 5567TIP3   OH216664   2.012   5.870   3.032
 5567TIP3    H116665   1.964   5.864   2.950
 5567TIP3    H216666   2.047   5.782   3.046
 5568TIP3   OH216667   1.595   5.568   1.544
 5568TIP3    H116668   1.611   5.604   1.457
 5568TIP3    H216669   1.520   5.509   1.533
 5569TIP3   OH216670   6.876   3.166   3.964
 5569TIP3    H116671   6.875   3.071   3.979
 5569TIP3    H216672   6.963   3.194   3.990
 5570TIP3   OH216673   3.987   5.765   0.203
 5570TIP3    H116674   3.988   5.750   0.298
 5570TIP3    H216675   4.003   5.679   0.165
 5571TIP3   OH216676   2.833   1.859   4.222
 5571TIP3    H116677   2.783   1.939   4.238
 5571TIP3    H216678   2.886   1.848   4.301
 5572TIP3   OH216679   5.767   4.827   0.791
 5572TIP3    H116680   5.862   4.812   0.794
 5572TIP3    H216681   5.754   4.880   0.712
 5573TIP3   OH216682   1.550   3.612   1.210
 5573TIP3    H116683   1.493   3.687   1.228
 5573TIP3    H216684   1.541   3.556   1.287
 5574TIP3   OH216685   2.136   0.404   0.395
 5574TIP3    H116686   2.098   0.453   0.322
 5574TIP3    H216687   2.226   0.437   0.403
 5575TIP3   OH216688   5.464   0.097   4.933
 5575TIP3    H116689   5.460   0.083   4.838
 5575TIP3    H216690   5.375   0.123   4.957
 5576TIP3   OH216691   0.596   5.497   3.166
 5576TIP3    H116692   0.565   5.446   3.091
 5576TIP3    H216693   0.558   5.453   3.242
 5577TIP3   OH216694   3.769   5.043   0.569
 5577TIP3    H116695   3.827   5.083   0.633
 5577TIP3    H216696   3.762   4.952   0.597
 5578TIP3   OH216697   1.660   0.219   2.900
 5578TIP3    H116698   1.573   0.253   2.882
 5578TIP3    H216699   1.645   0.133   2.940
 5579TIP3   OH216700   2.285   2.624   4.133
 5579TIP3    H116701   2.312   2.703   4.085
 5579TIP3    H216702   2.199   2.603   4.096
 5580TIP3   OH216703   1.850   1.192   0.783
 5580TIP3    H116704   1.861   1.216   0.691
 5580TIP3    H216705   1.939   1.192   0.819
 5581TIP3   OH216706   0.634   2.930   5.592
 5581TIP3    H116707   0.631   2.834   5.587
 5581TIP3    H216708   0.544   2.956   5.610
 5582TIP3   OH216709   6.575   6.806   0.087
 5582TIP3    H116710   6.566   6.712   0.071
 5582TIP3    H216711   6.669   6.820   0.099
 5583TIP3   OH216712   2.878   5.232   5.805
 5583TIP3    H116713   2.877   5.163   5.739
 5583TIP3    H216714   2.954   5.212   5.860
 5584TIP3   OH216715   1.003   1.677   3.619
 5584TIP3    H116716   1.041   1.638   3.541
 5584TIP3    H216717   0.914   1.702   3.593
 5585TIP3   OH216718   1.656   5.303   3.833
 5585TIP3    H116719   1.648   5.398   3.819
 5585TIP3    H216720   1.748   5.290   3.854
 5586TIP3   OH216721   1.353   3.620   3.971
 5586TIP3    H116722   1.343   3.682   3.900
 5586TIP3    H216723   1.445   3.593   3.967
 5587TIP3   OH216724   1.183   1.203   5.594
 5587TIP3    H116725   1.215   1.172   5.679
 5587TIP3    H216726   1.181   1.124   5.540
 5588TIP3   OH216727   6.127   2.062   3.354
 5588TIP3    H116728   6.062   2.132   3.354
 5588TIP3    H216729   6.085   1.990   3.306
 5589TIP3   OH216730   0.976   3.994   0.029
 5589TIP3    H116731   1.008   3.907   0.006
 5589TIP3    H216732   0.982   3.997   0.125
 5590TIP3   OH216733   4.658   0.916   4.313
 5590TIP3    H116734   4.722   0.955   4.373
 5590TIP3    H216735   4.702   0.840   4.276
 5591TIP3   OH216736   2.973   5.026   4.019
 5591TIP3    H116737   2.885   5.041   4.051
 5591TIP3    H216738   2.983   4.931   4.019
 5592TIP3   OH216739   6.359   1.228   2.145
 5592TIP3    H116740   6.435   1.245   2.090
 5592TIP3    H216741   6.290   1.285   2.110
 5593TIP3   OH216742   4.978   6.239   5.413
 5593TIP3    H116743   4.941   6.322   5.443
 5593TIP3    H216744   5.021   6.260   5.330
 5594TIP3   OH216745   5.743   3.001   3.028
 5594TIP3    H116746   5.738   3.065   3.099
 5594TIP3    H216747   5.829   3.014   2.990
 5595TIP3   OH216748   4.880   2.258   5.738
 5595TIP3    H116749   4.826   2.212   5.802
 5595TIP3    H216750   4.853   2.350   5.746
 5596TIP3   OH216751   3.875   5.796   2.876
 5596TIP3    H116752   3.926   5.874   2.895
 5596TIP3    H216753   3.925   5.724   2.915
 5597TIP3   OH216754   6.523   4.194   3.832
 5597TIP3    H116755   6.504   4.100   3.835
 5597TIP3    H216756   6.439   4.234   3.811
 5598TIP3   OH216757   1.114   3.638   0.813
 5598TIP3    H116758   1.151   3.594   0.737
 5598TIP3    H216759   1.176   3.621   0.883
 5599TIP3   OH216760   4.492   6.111   4.917
 5599TIP3    H116761   4.465   6.203   4.920
 5599TIP3    H216762   4.502   6.092   4.824
 5600TIP3   OH216763   0.902   4.163   3.353
 5600TIP3    H116764   0.942   4.210   3.426
 5600TIP3    H216765   0.950   4.192   3.275
 5601TIP3   OH216766   3.002   6.734   2.746
 5601TIP3    H116767   2.970   6.797   2.681
 5601TIP3    H216768   2.930   6.672   2.758
 5602TIP3   OH216769   1.092   5.072   3.072
 5602TIP3    H116770   1.014   5.056   3.125
 5602TIP3    H216771   1.156   5.009   3.104
 5603TIP3   OH216772   2.469   5.565   5.441
 5603TIP3    H116773   2.452   5.472   5.452
 5603TIP3    H216774   2.474   5.577   5.346
 5604TIP3   OH216775   0.498   4.213   1.977
 5604TIP3    H116776   0.436   4.268   2.025
 5604TIP3    H216777   0.451   4.131   1.962
 5605TIP3   OH216778   6.617   0.432   5.083
 5605TIP3    H116779   6.569   0.502   5.040
 5605TIP3    H216780   6.552   0.389   5.139
 5606TIP3   OH216781   1.081   6.728   4.109
 5606TIP3    H116782   1.150   6.784   4.143
 5606TIP3    H216783   1.000   6.762   4.148
 5607TIP3   OH216784   2.777   0.321   0.621
 5607TIP3    H116785   2.728   0.366   0.690
 5607TIP3    H216786   2.738   0.353   0.539
 5608TIP3   OH216787   3.498   0.611   2.830
 5608TIP3    H116788   3.439   0.570   2.894
 5608TIP3    H216789   3.577   0.631   2.880
 5609TIP3   OH216790   5.159   2.618   4.493
 5609TIP3    H116791   5.239   2.573   4.465
 5609TIP3    H216792   5.122   2.561   4.560
 5610TIP3   OH216793   6.998   1.292   3.231
 5610TIP3    H116794   6.960   1.213   3.269
 5610TIP3    H216795   6.989   1.358   3.299
 5611TIP3   OH216796   7.166   3.327   3.586
 5611TIP3    H116797   7.198   3.324   3.677
 5611TIP3    H216798   7.184   3.239   3.552
 5612TIP3   OH216799   3.930   4.732   4.365
 5612TIP3    H116800   3.880   4.785   4.427
 5612TIP3    H216801   3.870   4.720   4.291
 5613TIP3   OH216802   5.297   4.583   2.208
 5613TIP3    H116803   5.281   4.610   2.118
 5613TIP3    H216804   5.353   4.506   2.201
 5614TIP3   OH216805   5.149   3.887   5.508
 5614TIP3    H116806   5.069   3.924   5.544
 5614TIP3    H216807   5.201   3.862   5.584
 5615TIP3   OH216808   3.090   6.431   1.895
 5615TIP3    H116809   3.100   6.353   1.840
 5615TIP3    H216810   3.007   6.419   1.939
 5616TIP3   OH216811   0.536   4.046   0.528
 5616TIP3    H116812   0.471   4.070   0.594
 5616TIP3    H216813   0.484   4.016   0.453
 5617TIP3   OH216814   6.391   2.910   2.412
 5617TIP3    H116815   6.455   2.977   2.436
 5617TIP3    H216816   6.312   2.958   2.390
 5618TIP3   OH216817   4.694   3.194   5.889
 5618TIP3    H116818   4.643   3.134   5.834
 5618TIP3    H216819   4.735   3.138   5.955
 5619TIP3   OH216820   4.008   4.086   4.971
 5619TIP3    H116821   4.085   4.041   5.004
 5619TIP3    H216822   3.958   4.110   5.049
 5620TIP3   OH216823   3.992   6.319   2.970
 5620TIP3    H116824   3.940   6.387   3.014
 5620TIP3    H216825   4.050   6.286   3.038
 5621TIP3   OH216826   1.143   0.630   5.798
 5621TIP3    H116827   1.062   0.672   5.770
 5621TIP3    H216828   1.191   0.614   5.717
 5622TIP3   OH216829   5.839   4.546   1.710
 5622TIP3    H116830   5.819   4.635   1.680
 5622TIP3    H216831   5.776   4.530   1.781
 5623TIP3   OH216832   5.373   2.246   0.950
 5623TIP3    H116833   5.407   2.335   0.944
 5623TIP3    H216834   5.282   2.257   0.975
 5624TIP3   OH216835   0.448   2.334   0.800
 5624TIP3    H116836   0.510   2.291   0.742
 5624TIP3    H216837   0.383   2.267   0.822
 5625TIP3   OH216838   0.866   5.651   2.276
 5625TIP3    H116839   0.947   5.607   2.301
 5625TIP3    H216840   0.814   5.654   2.356
 5626TIP3   OH216841   3.519   4.922   5.664
 5626TIP3    H116842   3.424   4.918   5.668
 5626TIP3    H216843   3.549   4.842   5.708
 5627TIP3   OH216844   0.780   5.596   5.688
 5627TIP3    H116845   0.816   5.507   5.694
 5627TIP3    H216846   0.760   5.620   5.778
 5628TIP3   OH216847   3.661   1.207   5.173
 5628TIP3    H116848   3.753   1.227   5.156
 5628TIP3    H216849   3.656   1.112   5.171
 5629TIP3   OH216850   0.219   1.509   5.194
 5629TIP3    H116851   0.243   1.497   5.286
 5629TIP3    H216852   0.132   1.550   5.197
 5630TIP3   OH216853   6.378   2.087   3.263
 5630TIP3    H116854   6.429   2.112   3.340
 5630TIP3    H216855   6.287   2.086   3.294
 5631TIP3   OH216856   3.483   2.796   3.846
 5631TIP3    H116857   3.413   2.769   3.786
 5631TIP3    H216858   3.437   2.830   3.922
 5632TIP3   OH216859   2.173   1.078   0.457
 5632TIP3    H116860   2.134   1.094   0.371
 5632TIP3    H216861   2.210   1.163   0.483
 5633TIP3   OH216862   5.475   3.877   3.546
 5633TIP3    H116863   5.380   3.871   3.539
 5633TIP3    H216864   5.507   3.794   3.509
 5634TIP3   OH216865   6.227   1.752   5.624
 5634TIP3    H116866   6.200   1.677   5.571
 5634TIP3    H216867   6.323   1.748   5.625
 5635TIP3   OH216868   4.252   0.939   2.354
 5635TIP3    H116869   4.209   0.861   2.320
 5635TIP3    H216870   4.218   1.011   2.299
 5636TIP3   OH216871   1.920   1.467   5.802
 5636TIP3    H116872   1.862   1.439   5.872
 5636TIP3    H216873   1.908   1.401   5.733
 5637TIP3   OH216874   6.408   6.591   5.627
 5637TIP3    H116875   6.395   6.596   5.722
 5637TIP3    H216876   6.343   6.527   5.597
 5638TIP3   OH216877   3.532   0.400   1.046
 5638TIP3    H116878   3.444   0.417   1.079
 5638TIP3    H216879   3.564   0.485   1.015
 5639TIP3   OH216880   6.894   4.203   5.739
 5639TIP3    H116881   6.858   4.123   5.779
 5639TIP3    H216882   6.822   4.265   5.741
 5640TIP3   OH216883   2.643   0.145   4.821
 5640TIP3    H116884   2.738   0.155   4.829
 5640TIP3    H216885   2.612   0.234   4.802
 5641TIP3   OH216886   4.839   5.789   2.150
 5641TIP3    H116887   4.817   5.806   2.242
 5641TIP3    H216888   4.802   5.864   2.103
 5642TIP3   OH216889   6.243   4.845   3.138
 5642TIP3    H116890   6.286   4.904   3.200
 5642TIP3    H216891   6.179   4.798   3.191
 5643TIP3   OH216892   0.257   3.141   3.781
 5643TIP3    H116893   0.218   3.065   3.737
 5643TIP3    H216894   0.182   3.198   3.801
 5644TIP3   OH216895   2.697   1.523   0.303
 5644TIP3    H116896   2.622   1.503   0.247
 5644TIP3    H216897   2.724   1.612   0.277
 5645TIP3   OH216898   6.966   6.320   0.085
 5645TIP3    H116899   6.918   6.265   0.023
 5645TIP3    H216900   6.987   6.263   0.158
 5646TIP3   OH216901   4.597   3.164   2.648
 5646TIP3    H116902   4.577   3.182   2.556
 5646TIP3    H216903   4.632   3.246   2.682
 5647TIP3   OH216904   1.532   3.119   2.797
 5647TIP3    H116905   1.443   3.105   2.830
 5647TIP3    H216906   1.525   3.198   2.744
 5648TIP3   OH216907   6.772   3.470   2.143
 5648TIP3    H116908   6.786   3.423   2.061
 5648TIP3    H216909   6.844   3.533   2.147
 5649TIP3   OH216910   4.307   4.904   4.924
 5649TIP3    H116911   4.297   4.997   4.904
 5649TIP3    H216912   4.390   4.880   4.882
 5650TIP3   OH216913   4.654   4.640   3.886
 5650TIP3    H116914   4.574   4.619   3.934
 5650TIP3    H216915   4.697   4.556   3.872
 5651TIP3   OH216916   0.556   6.529   2.209
 5651TIP3    H116917   0.622   6.519   2.140
 5651TIP3    H216918   0.500   6.601   2.178
 5652TIP3   OH216919   5.129   4.622   1.345
 5652TIP3    H116920   5.169   4.681   1.280
 5652TIP3    H216921   5.120   4.539   1.299
 5653TIP3   OH216922   6.304   0.547   3.669
 5653TIP3    H116923   6.335   0.502   3.591
 5653TIP3    H216924   6.349   0.505   3.742
 5654TIP3   OH216925   6.819   3.403   1.860
 5654TIP3    H116926   6.887   3.345   1.825
 5654TIP3    H216927   6.739   3.376   1.814
 5655TIP3   OH216928   4.348   1.263   1.954
 5655TIP3    H116929   4.388   1.178   1.973
 5655TIP3    H216930   4.354   1.311   2.037
 5656TIP3   OH216931   1.371   5.751   4.540
 5656TIP3    H116932   1.321   5.750   4.622
 5656TIP3    H216933   1.407   5.840   4.535
 5657TIP3   OH216934   1.997   4.830   5.341
 5657TIP3    H116935   1.947   4.817   5.261
 5657TIP3    H216936   1.937   4.805   5.411
 5658TIP3   OH216937   4.843   6.390   3.001
 5658TIP3    H116938   4.916   6.449   3.018
 5658TIP3    H216939   4.819   6.407   2.910
 5659TIP3   OH216940   2.129   1.082   4.903
 5659TIP3    H116941   2.111   1.154   4.842
 5659TIP3    H216942   2.105   1.003   4.854
 5660TIP3   OH216943   6.264   4.932   0.686
 5660TIP3    H116944   6.300   4.923   0.774
 5660TIP3    H216945   6.254   5.026   0.673
 5661TIP3   OH216946   2.310   3.398   0.678
 5661TIP3    H116947   2.286   3.487   0.653
 5661TIP3    H216948   2.281   3.390   0.769
 5662TIP3   OH216949   4.457   2.172   3.808
 5662TIP3    H116950   4.451   2.179   3.713
 5662TIP3    H216951   4.428   2.083   3.828
 5663TIP3   OH216952   0.990   3.231   3.541
 5663TIP3    H116953   0.988   3.291   3.615
 5663TIP3    H216954   0.939   3.155   3.570
 5664TIP3   OH216955   0.477   3.739   4.681
 5664TIP3    H116956   0.548   3.802   4.673
 5664TIP3    H216957   0.415   3.764   4.612
 5665TIP3   OH216958   1.749   2.339   5.678
 5665TIP3    H116959   1.777   2.412   5.734
 5665TIP3    H216960   1.829   2.289   5.664
 5666TIP3   OH216961   1.198   1.009   5.081
 5666TIP3    H116962   1.279   1.006   5.132
 5666TIP3    H216963   1.220   0.966   4.998
 5667TIP3   OH216964   5.370   6.638   3.120
 5667TIP3    H116965   5.351   6.727   3.149
 5667TIP3    H216966   5.407   6.648   3.032
 5668TIP3   OH216967   3.243   1.667   4.155
 5668TIP3    H116968   3.337   1.673   4.171
 5668TIP3    H216969   3.212   1.601   4.217
 5669TIP3   OH216970   6.169   5.541   5.020
 5669TIP3    H116971   6.084   5.568   4.985
 5669TIP3    H216972   6.151   5.516   5.111
 5670TIP3   OH216973   6.764   6.476   0.812
 5670TIP3    H116974   6.728   6.556   0.774
 5670TIP3    H216975   6.699   6.450   0.877
 5671TIP3   OH216976   5.129   0.995   5.199
 5671TIP3    H116977   5.201   1.014   5.259
 5671TIP3    H216978   5.115   1.077   5.152
 5672TIP3   OH216979   5.838   3.047   4.446
 5672TIP3    H116980   5.757   2.996   4.460
 5672TIP3    H216981   5.840   3.062   4.351
 5673TIP3   OH216982   7.100   6.113   3.917
 5673TIP3    H116983   7.123   6.186   3.975
 5673TIP3    H216984   7.025   6.072   3.960
 5674TIP3   OH216985   2.143   4.277   2.578
 5674TIP3    H116986   2.114   4.192   2.545
 5674TIP3    H216987   2.198   4.256   2.653
 5675TIP3   OH216988   1.508   5.481   5.467
 5675TIP3    H116989   1.541   5.392   5.454
 5675TIP3    H216990   1.578   5.538   5.436
 5676TIP3   OH216991   0.358   5.729   3.413
 5676TIP3    H116992   0.378   5.815   3.376
 5676TIP3    H216993   0.272   5.707   3.377
 5677TIP3   OH216994   1.846   0.481   4.555
 5677TIP3    H116995   1.784   0.524   4.497
 5677TIP3    H216996   1.932   0.503   4.520
 5678TIP3   OH216997   3.585   0.456   2.509
 5678TIP3    H116998   3.509   0.514   2.499
 5678TIP3    H216999   3.650   0.510   2.554
 5679TIP3   OH217000   4.948   1.237   4.722
 5679TIP3    H117001   4.913   1.237   4.633
 5679TIP3    H217002   5.024   1.296   4.718
 5680TIP3   OH217003   1.225   1.408   3.174
 5680TIP3    H117004   1.135   1.391   3.199
 5680TIP3    H217005   1.218   1.474   3.104
 5681TIP3   OH217006   3.698   4.028   5.524
 5681TIP3    H117007   3.741   4.112   5.540
 5681TIP3    H217008   3.730   3.971   5.595
 5682TIP3   OH217009   0.703   4.605   0.917
 5682TIP3    H117010   0.780   4.551   0.933
 5682TIP3    H217011   0.629   4.553   0.948
 5683TIP3   OH217012   4.497   1.185   5.420
 5683TIP3    H117013   4.474   1.277   5.436
 5683TIP3    H217014   4.469   1.169   5.330
 5684TIP3   OH217015   4.770   3.844   3.295
 5684TIP3    H117016   4.846   3.902   3.286
 5684TIP3    H217017   4.716   3.885   3.362
 5685TIP3   OH217018   5.606   2.345   3.753
 5685TIP3    H117019   5.574   2.297   3.677
 5685TIP3    H217020   5.597   2.284   3.826
 5686TIP3   OH217021   0.077   2.516   2.518
 5686TIP3    H117022   0.145   2.546   2.458
 5686TIP3    H217023   0.099   2.425   2.537
 5687TIP3   OH217024   4.309   1.913   5.431
 5687TIP3    H117025   4.238   1.893   5.371
 5687TIP3    H217026   4.310   2.008   5.438
 5688TIP3   OH217027   5.584   4.096   0.426
 5688TIP3    H117028   5.574   4.105   0.521
 5688TIP3    H217029   5.565   4.004   0.409
 5689TIP3   OH217030   3.969   6.058   5.413
 5689TIP3    H117031   3.979   6.127   5.478
 5689TIP3    H217032   4.041   5.997   5.431
 5690TIP3   OH217033   5.154   6.087   1.309
 5690TIP3    H117034   5.152   6.024   1.382
 5690TIP3    H217035   5.123   6.169   1.348
 5691TIP3   OH217036   0.238   5.053   5.535
 5691TIP3    H117037   0.175   5.111   5.578
 5691TIP3    H217038   0.250   5.092   5.449
 5692TIP3   OH217039   6.712   0.910   3.929
 5692TIP3    H117040   6.710   0.864   4.013
 5692TIP3    H217041   6.625   0.951   3.922
 5693TIP3   OH217042   2.334   3.868   4.469
 5693TIP3    H117043   2.419   3.904   4.442
 5693TIP3    H217044   2.355   3.782   4.506
 5694TIP3   OH217045   6.986   3.900   2.814
 5694TIP3    H117046   7.059   3.853   2.774
 5694TIP3    H217047   6.925   3.915   2.743
 5695TIP3   OH217048   2.976   3.888   1.735
 5695TIP3    H117049   2.914   3.823   1.702
 5695TIP3    H217050   2.937   3.972   1.712
 5696TIP3   OH217051   7.024   5.026   0.908
 5696TIP3    H117052   6.952   5.074   0.868
 5696TIP3    H217053   7.090   5.093   0.927
 5697TIP3   OH217054   6.271   4.627   4.513
 5697TIP3    H117055   6.201   4.653   4.574
 5697TIP3    H217056   6.278   4.532   4.525
 5698TIP3   OH217057   0.957   4.878   3.298
 5698TIP3    H117058   1.050   4.856   3.293
 5698TIP3    H217059   0.952   4.947   3.364
 5699TIP3   OH217060   6.222   3.854   0.130
 5699TIP3    H117061   6.132   3.881   0.110
 5699TIP3    H217062   6.253   3.814   0.049
 5700TIP3   OH217063   5.667   4.055   4.715
 5700TIP3    H117064   5.593   4.001   4.689
 5700TIP3    H217065   5.682   4.113   4.641
 5701TIP3   OH217066   6.647   6.579   3.059
 5701TIP3    H117067   6.721   6.611   3.008
 5701TIP3    H217068   6.632   6.490   3.027
 5702TIP3   OH217069   4.839   0.303   2.061
 5702TIP3    H117070   4.893   0.373   2.097
 5702TIP3    H217071   4.807   0.339   1.978
 5703TIP3   OH217072   0.540   1.520   1.452
 5703TIP3    H117073   0.457   1.485   1.485
 5703TIP3    H217074   0.607   1.473   1.501
 5704TIP3   OH217075   5.563   1.188   3.256
 5704TIP3    H117076   5.656   1.178   3.239
 5704TIP3    H217077   5.532   1.245   3.186
 5705TIP3   OH217078   0.378   4.074   5.027
 5705TIP3    H117079   0.338   4.007   5.083
 5705TIP3    H217080   0.381   4.033   4.940
 5706TIP3   OH217081   2.270   6.421   3.990
 5706TIP3    H117082   2.332   6.470   3.935
 5706TIP3    H217083   2.324   6.357   4.036
 5707TIP3   OH217084   0.981   4.934   1.122
 5707TIP3    H117085   1.006   4.948   1.213
 5707TIP3    H217086   0.902   4.988   1.109
 5708TIP3   OH217087   2.618   3.044   3.273
 5708TIP3    H117088   2.620   3.058   3.178
 5708TIP3    H217089   2.627   3.131   3.311
 5709TIP3   OH217090   5.191   2.723   4.970
 5709TIP3    H117091   5.182   2.649   5.031
 5709TIP3    H217092   5.285   2.730   4.956
 5710TIP3   OH217093   2.193   4.784   2.903
 5710TIP3    H117094   2.203   4.802   2.810
 5710TIP3    H217095   2.185   4.870   2.944
 5711TIP3   OH217096   4.999   5.363   5.912
 5711TIP3    H117097   5.064   5.412   5.861
 5711TIP3    H217098   4.940   5.327   5.846
 5712TIP3   OH217099   4.649   6.088   3.389
 5712TIP3    H117100   4.739   6.072   3.362
 5712TIP3    H217101   4.645   6.182   3.405
 5713TIP3   OH217102   4.665   1.865   3.309
 5713TIP3    H117103   4.602   1.794   3.322
 5713TIP3    H217104   4.746   1.832   3.350
 5714TIP3   OH217105   0.133   4.994   0.771
 5714TIP3    H117106   0.079   4.999   0.850
 5714TIP3    H217107   0.209   4.943   0.797
 5715TIP3   OH217108   4.682   6.277   5.601
 5715TIP3    H117109   4.745   6.304   5.534
 5715TIP3    H217110   4.615   6.345   5.600
 5716TIP3   OH217111   4.629   0.574   2.016
 5716TIP3    H117112   4.537   0.588   1.993
 5716TIP3    H217113   4.630   0.573   2.112
 5717TIP3   OH217114   2.138   5.485   2.551
 5717TIP3    H117115   2.163   5.458   2.463
 5717TIP3    H217116   2.153   5.407   2.605
 5718TIP3   OH217117   0.450   3.713   2.585
 5718TIP3    H117118   0.499   3.771   2.526
 5718TIP3    H217119   0.360   3.717   2.553
 5719TIP3   OH217120   1.711   5.673   3.140
 5719TIP3    H117121   1.631   5.645   3.185
 5719TIP3    H217122   1.720   5.613   3.066
 5720TIP3   OH217123   3.659   0.923   1.881
 5720TIP3    H117124   3.732   0.922   1.943
 5720TIP3    H217125   3.699   0.944   1.797
 5721TIP3   OH217126   5.127   2.925   5.585
 5721TIP3    H117127   5.054   2.949   5.642
 5721TIP3    H217128   5.100   2.951   5.498
 5722TIP3   OH217129   2.160   4.776   5.945
 5722TIP3    H117130   2.199   4.771   5.857
 5722TIP3    H217131   2.068   4.795   5.929
 5723TIP3   OH217132   2.680   5.900   3.847
 5723TIP3    H117133   2.753   5.952   3.879
 5723TIP3    H217134   2.713   5.810   3.847
 5724TIP3   OH217135   5.256   5.449   4.958
 5724TIP3    H117136   5.241   5.392   4.883
 5724TIP3    H217137   5.349   5.440   4.978
 5725TIP3   OH217138   0.504   1.102   1.441
 5725TIP3    H117139   0.460   1.151   1.510
 5725TIP3    H217140   0.549   1.031   1.487
 5726TIP3   OH217141   2.303   2.232   1.653
 5726TIP3    H117142   2.358   2.304   1.623
 5726TIP3    H217143   2.280   2.255   1.743
 5727TIP3   OH217144   2.060   4.231   0.044
 5727TIP3    H117145   2.012   4.199  -0.031
 5727TIP3    H217146   2.148   4.194   0.034
 5728TIP3   OH217147   0.128   1.005   4.802
 5728TIP3    H117148   0.152   1.023   4.710
 5728TIP3    H217149   0.157   1.082   4.850
 5729TIP3   OH217150   2.599   1.308   3.106
 5729TIP3    H117151   2.588   1.250   3.181
 5729TIP3    H217152   2.541   1.272   3.038
 5730TIP3   OH217153   5.943   0.628   1.217
 5730TIP3    H117154   5.860   0.606   1.259
 5730TIP3    H217155   5.991   0.678   1.284
 5731TIP3   OH217156   0.117   5.677   2.808
 5731TIP3    H117157   0.175   5.622   2.757
 5731TIP3    H217158   0.030   5.661   2.772
 5732TIP3   OH217159   5.945   1.139   1.718
 5732TIP3    H117160   6.004   1.140   1.642
 5732TIP3    H217161   5.923   1.047   1.729
 5733TIP3   OH217162   4.277   1.359   4.406
 5733TIP3    H117163   4.260   1.453   4.405
 5733TIP3    H217164   4.368   1.350   4.378
 5734TIP3   OH217165   6.243   4.042   1.707
 5734TIP3    H117166   6.288   4.110   1.758
 5734TIP3    H217167   6.294   4.035   1.626
 5735TIP3   OH217168   2.503   2.183   1.870
 5735TIP3    H117169   2.510   2.257   1.810
 5735TIP3    H217170   2.585   2.183   1.919
 5736TIP3   OH217171   1.600   6.701   0.168
 5736TIP3    H117172   1.625   6.762   0.238
 5736TIP3    H217173   1.532   6.747   0.120
 5737TIP3   OH217174   0.873   2.239   1.481
 5737TIP3    H117175   0.861   2.231   1.386
 5737TIP3    H217176   0.959   2.280   1.491
 5738TIP3   OH217177   5.027   6.151   3.009
 5738TIP3    H117178   5.080   6.231   3.008
 5738TIP3    H217179   4.937   6.181   3.018
 5739TIP3   OH217180   3.497   3.323   4.186
 5739TIP3    H117181   3.474   3.240   4.145
 5739TIP3    H217182   3.425   3.382   4.162
 5740TIP3   OH217183   3.271   6.753   3.423
 5740TIP3    H117184   3.288   6.721   3.335
 5740TIP3    H217185   3.202   6.819   3.411
 5741TIP3   OH217186   0.835   6.654   5.793
 5741TIP3    H117187   0.823   6.559   5.793
 5741TIP3    H217188   0.922   6.666   5.832
 5742TIP3   OH217189   6.497   3.563   0.484
 5742TIP3    H117190   6.504   3.469   0.468
 5742TIP3    H217191   6.588   3.592   0.495
 5743TIP3   OH217192   5.438   3.474   1.514
 5743TIP3    H117193   5.418   3.476   1.420
 5743TIP3    H217194   5.531   3.494   1.519
 5744TIP3   OH217195   1.220  -0.015   0.535
 5744TIP3    H117196   1.281   0.019   0.602
 5744TIP3    H217197   1.230   0.044   0.461
 5745TIP3   OH217198   0.677   5.026   0.530
 5745TIP3    H117199   0.727   5.101   0.500
 5745TIP3    H217200   0.704   5.014   0.621
 5746TIP3   OH217201   4.373   1.766   1.659
 5746TIP3    H117202   4.436   1.818   1.709
 5746TIP3    H217203   4.328   1.713   1.725
 5747TIP3   OH217204   2.487   5.088   4.173
 5747TIP3    H117205   2.461   4.998   4.154
 5747TIP3    H217206   2.533   5.117   4.094
 5748TIP3   OH217207   5.411   1.538   3.913
 5748TIP3    H117208   5.378   1.624   3.938
 5748TIP3    H217209   5.501   1.537   3.945
 5749TIP3   OH217210   1.638   5.290   0.515
 5749TIP3    H117211   1.647   5.296   0.420
 5749TIP3    H217212   1.714   5.337   0.549
 5750TIP3   OH217213   6.484   3.453   2.513
 5750TIP3    H117214   6.514   3.471   2.602
 5750TIP3    H217215   6.564   3.442   2.461
 5751TIP3   OH217216   0.039   0.732   3.749
 5751TIP3    H117217   0.073   0.681   3.676
 5751TIP3    H217218   0.045   0.823   3.721
 5752TIP3   OH217219   6.530   5.763   5.206
 5752TIP3    H117220   6.458   5.825   5.218
 5752TIP3    H217221   6.516   5.728   5.118
 5753TIP3   OH217222   0.597   5.076   2.754
 5753TIP3    H117223   0.622   4.987   2.729
 5753TIP3    H217224   0.619   5.082   2.847
 5754TIP3   OH217225   2.010   5.358   3.529
 5754TIP3    H117226   1.953   5.432   3.512
 5754TIP3    H217227   2.097   5.396   3.541
 5755TIP3   OH217228   5.471   2.528   3.285
 5755TIP3    H117229   5.502   2.502   3.372
 5755TIP3    H217230   5.414   2.603   3.302
 5756TIP3   OH217231   3.486   1.502   1.162
 5756TIP3    H117232   3.523   1.470   1.079
 5756TIP3    H217233   3.524   1.445   1.229
 5757TIP3   OH217234   5.210   6.172   4.891
 5757TIP3    H117235   5.302   6.197   4.887
 5757TIP3    H217236   5.210   6.077   4.893
 5758TIP3   OH217237   3.688   2.613   3.644
 5758TIP3    H117238   3.751   2.549   3.678
 5758TIP3    H217239   3.655   2.657   3.723
 5759TIP3   OH217240   0.811   1.029   4.058
 5759TIP3    H117241   0.803   1.124   4.064
 5759TIP3    H217242   0.902   1.011   4.083
 5760TIP3   OH217243   3.426   5.750   3.067
 5760TIP3    H117244   3.394   5.810   3.000
 5760TIP3    H217245   3.416   5.663   3.029
 5761TIP3   OH217246  -0.010   0.765   1.333
 5761TIP3    H117247   0.036   0.842   1.300
 5761TIP3    H217248   0.059   0.711   1.373
 5762TIP3   OH217249   6.554   0.356   0.389
 5762TIP3    H117250   6.503   0.333   0.466
 5762TIP3    H217251   6.538   0.449   0.376
 5763TIP3   OH217252   6.570   1.151   1.307
 5763TIP3    H117253   6.504   1.182   1.246
 5763TIP3    H217254   6.654   1.173   1.266
 5764TIP3   OH217255   2.132   1.217   0.816
 5764TIP3    H117256   2.208   1.200   0.760
 5764TIP3    H217257   2.141   1.155   0.888
 5765TIP3   OH217258   5.676   2.344   1.914
 5765TIP3    H117259   5.610   2.413   1.903
 5765TIP3    H217260   5.629   2.272   1.956
 5766TIP3   OH217261   4.954   4.793   2.371
 5766TIP3    H117262   4.896   4.723   2.340
 5766TIP3    H217263   4.936   4.798   2.465
 5767TIP3   OH217264   0.567   6.270   3.412
 5767TIP3    H117265   0.615   6.348   3.383
 5767TIP3    H217266   0.612   6.242   3.491
 5768TIP3   OH217267   5.387   5.689   3.888
 5768TIP3    H117268   5.320   5.680   3.821
 5768TIP3    H217269   5.382   5.608   3.939
 5769TIP3   OH217270   4.815   0.271   0.749
 5769TIP3    H117271   4.787   0.184   0.777
 5769TIP3    H217272   4.826   0.320   0.830
 5770TIP3   OH217273   2.497   1.875   2.278
 5770TIP3    H117274   2.547   1.948   2.314
 5770TIP3    H217275   2.410   1.910   2.262
 5771TIP3   OH217276   5.347   1.148   0.652
 5771TIP3    H117277   5.395   1.230   0.663
 5771TIP3    H217278   5.349   1.107   0.738
 5772TIP3   OH217279   3.247   3.798   5.125
 5772TIP3    H117280   3.196   3.782   5.045
 5772TIP3    H217281   3.188   3.776   5.196
 5773TIP3   OH217282   5.444   4.122   4.303
 5773TIP3    H117283   5.490   4.097   4.222
 5773TIP3    H217284   5.466   4.214   4.316
 5774TIP3   OH217285   0.799   2.695   3.490
 5774TIP3    H117286   0.876   2.689   3.545
 5774TIP3    H217287   0.766   2.606   3.485
 5775TIP3   OH217288   0.114   4.373   2.364
 5775TIP3    H117289   0.086   4.365   2.456
 5775TIP3    H217290   0.098   4.286   2.327
 5776TIP3   OH217291   0.005   0.060   4.314
 5776TIP3    H117292   0.093   0.098   4.316
 5776TIP3    H217293   0.016  -0.025   4.272
 5777TIP3   OH217294   5.721   6.461   2.655
 5777TIP3    H117295   5.795   6.485   2.600
 5777TIP3    H217296   5.733   6.512   2.735
 5778TIP3   OH217297   6.597   6.665   5.455
 5778TIP3    H117298   6.525   6.646   5.515
 5778TIP3    H217299   6.669   6.692   5.511
 5779TIP3   OH217300   3.764   2.319   0.342
 5779TIP3    H117301   3.804   2.337   0.427
 5779TIP3    H217302   3.833   2.277   0.292
 5780TIP3   OH217303   0.518   5.370   1.295
 5780TIP3    H117304   0.436   5.411   1.268
 5780TIP3    H217305   0.563   5.439   1.345
 5781TIP3   OH217306   5.245   4.762   1.134
 5781TIP3    H117307   5.278   4.720   1.055
 5781TIP3    H217308   5.322   4.806   1.171
 5782TIP3   OH217309   0.966   3.142   2.425
 5782TIP3    H117310   1.031   3.132   2.495
 5782TIP3    H217311   0.905   3.069   2.438
 5783TIP3   OH217312   2.014   1.441   5.176
 5783TIP3    H117313   2.011   1.519   5.230
 5783TIP3    H217314   1.927   1.434   5.138
 5784TIP3   OH217315   3.334   4.934   3.222
 5784TIP3    H117316   3.393   5.005   3.196
 5784TIP3    H217317   3.249   4.959   3.186
 5785TIP3   OH217318   0.030   5.629   1.105
 5785TIP3    H117319  -0.006   5.661   1.023
 5785TIP3    H217320   0.022   5.534   1.100
 5786TIP3   OH217321   3.512   1.651   4.205
 5786TIP3    H117322   3.594   1.686   4.241
 5786TIP3    H217323   3.538   1.610   4.122
 5787TIP3   OH217324   0.921   1.349   0.474
 5787TIP3    H117325   0.888   1.336   0.562
 5787TIP3    H217326   1.011   1.314   0.477
 5788TIP3   OH217327   6.835   5.231   5.320
 5788TIP3    H117328   6.850   5.325   5.315
 5788TIP3    H217329   6.916   5.195   5.355
 5789TIP3   OH217330   2.438   1.786   4.303
 5789TIP3    H117331   2.476   1.732   4.372
 5789TIP3    H217332   2.364   1.830   4.345
 5790TIP3   OH217333   1.388   4.929   0.144
 5790TIP3    H117334   1.398   4.847   0.191
 5790TIP3    H217335   1.398   4.997   0.211
 5791TIP3   OH217336   3.972   1.997   4.520
 5791TIP3    H117337   4.037   2.025   4.455
 5791TIP3    H217338   3.901   1.959   4.468
 5792TIP3   OH217339   3.241   1.935   5.152
 5792TIP3    H117340   3.240   2.030   5.139
 5792TIP3    H217341   3.271   1.900   5.068
 5793TIP3   OH217342   3.769   1.287   0.030
 5793TIP3    H117343   3.795   1.373  -0.001
 5793TIP3    H217344   3.715   1.304   0.107
 5794TIP3   OH217345   2.984   2.622   5.252
 5794TIP3    H117346   2.943   2.705   5.227
 5794TIP3    H217347   3.010   2.636   5.344
 5795TIP3   OH217348   1.955   0.784   0.519
 5795TIP3    H117349   2.045   0.810   0.534
 5795TIP3    H217350   1.942   0.707   0.575
 5796TIP3   OH217351   5.081   5.018   0.281
 5796TIP3    H117352   4.989   5.002   0.261
 5796TIP3    H217353   5.128   4.990   0.203
 5797TIP3   OH217354   5.718   0.291   4.751
 5797TIP3    H117355   5.725   0.210   4.700
 5797TIP3    H217356   5.784   0.349   4.714
 5798TIP3   OH217357   0.452   1.721   5.750
 5798TIP3    H117358   0.418   1.658   5.814
 5798TIP3    H217359   0.444   1.806   5.794
 5799TIP3   OH217360   1.443   0.080   3.443
 5799TIP3    H117361   1.429   0.000   3.392
 5799TIP3    H217362   1.531   0.071   3.479
 5800TIP3   OH217363   4.771   1.362   1.083
 5800TIP3    H117364   4.788   1.363   1.178
 5800TIP3    H217365   4.758   1.270   1.062
 5801TIP3   OH217366   4.282   2.071   4.763
 5801TIP3    H117367   4.336   2.139   4.723
 5801TIP3    H217368   4.314   1.989   4.723
 5802TIP3   OH217369   5.643   4.363   3.931
 5802TIP3    H117370   5.730   4.403   3.929
 5802TIP3    H217371   5.582   4.437   3.927
 5803TIP3   OH217372   7.165   0.026   2.272
 5803TIP3    H117373   7.087   0.067   2.234
 5803TIP3    H217374   7.179  -0.052   2.219
 5804TIP3   OH217375   6.751   2.556   1.374
 5804TIP3    H117376   6.824   2.516   1.422
 5804TIP3    H217377   6.673   2.512   1.409
 5805TIP3   OH217378   5.429   1.156   2.800
 5805TIP3    H117379   5.435   1.201   2.716
 5805TIP3    H217380   5.519   1.130   2.820
 5806TIP3   OH217381   6.607   4.062   5.216
 5806TIP3    H117382   6.597   3.977   5.173
 5806TIP3    H217383   6.519   4.101   5.211
 5807TIP3   OH217384   3.698   3.662   0.704
 5807TIP3    H117385   3.792   3.668   0.721
 5807TIP3    H217386   3.667   3.594   0.764
 5808TIP3   OH217387   0.496   6.728   4.057
 5808TIP3    H117388   0.470   6.641   4.088
 5808TIP3    H217389   0.469   6.787   4.127
 5809TIP3   OH217390   6.058   6.516   5.849
 5809TIP3    H117391   5.977   6.533   5.898
 5809TIP3    H217392   6.034   6.529   5.757
 5810TIP3   OH217393   0.187   1.469   4.483
 5810TIP3    H117394   0.177   1.450   4.576
 5810TIP3    H217395   0.263   1.419   4.455
 5811TIP3   OH217396   5.440   3.229   3.492
 5811TIP3    H117397   5.396   3.301   3.448
 5811TIP3    H217398   5.478   3.177   3.422
 5812TIP3   OH217399   5.416   0.110   1.552
 5812TIP3    H117400   5.468   0.107   1.633
 5812TIP3    H217401   5.339   0.056   1.571
 5813TIP3   OH217402   6.299   6.699   1.862
 5813TIP3    H117403   6.299   6.795   1.856
 5813TIP3    H217404   6.293   6.670   1.771
 5814TIP3   OH217405   6.888   6.397   0.531
 5814TIP3    H117406   6.874   6.308   0.499
 5814TIP3    H217407   6.853   6.396   0.620
 5815TIP3   OH217408   1.464   4.650   0.813
 5815TIP3    H117409   1.395   4.631   0.877
 5815TIP3    H217410   1.498   4.735   0.841
 5816TIP3   OH217411   0.037   2.309   5.269
 5816TIP3    H117412   0.085   2.364   5.208
 5816TIP3    H217413  -0.014   2.370   5.322
 5817TIP3   OH217414   5.659   4.912   3.506
 5817TIP3    H117415   5.666   4.829   3.460
 5817TIP3    H217416   5.670   4.978   3.438
 5818TIP3   OH217417   4.464   1.011   3.839
 5818TIP3    H117418   4.381   1.056   3.820
 5818TIP3    H217419   4.444   0.918   3.826
 5819TIP3   OH217420   5.150   0.838   2.149
 5819TIP3    H117421   5.207   0.902   2.191
 5819TIP3    H217422   5.168   0.848   2.055
 5820TIP3   OH217423   6.505   5.861   0.000
 5820TIP3    H117424   6.554   5.941   0.016
 5820TIP3    H217425   6.418   5.878   0.036
 5821TIP3   OH217426   3.987   5.508   2.299
 5821TIP3    H117427   3.983   5.425   2.346
 5821TIP3    H217428   3.957   5.488   2.210
 5822TIP3   OH217429   1.310   3.958   2.266
 5822TIP3    H117430   1.336   4.038   2.222
 5822TIP3    H217431   1.253   3.913   2.204
 5823TIP3   OH217432   4.573   1.108   1.436
 5823TIP3    H117433   4.575   1.199   1.466
 5823TIP3    H217434   4.626   1.061   1.500
 5824TIP3   OH217435   6.403   3.985   5.459
 5824TIP3    H117436   6.471   3.918   5.463
 5824TIP3    H217437   6.450   4.068   5.459
 5825TIP3   OH217438   3.418   1.646   2.420
 5825TIP3    H117439   3.513   1.653   2.419
 5825TIP3    H217440   3.401   1.554   2.400
 5826TIP3   OH217441   4.886   5.631   2.627
 5826TIP3    H117442   4.964   5.629   2.571
 5826TIP3    H217443   4.867   5.539   2.645
 5827TIP3   OH217444   4.972   1.281   3.465
 5827TIP3    H117445   5.011   1.366   3.444
 5827TIP3    H217446   5.039   1.236   3.517
 5828TIP3   OH217447   5.183   3.609   1.992
 5828TIP3    H117448   5.225   3.632   1.909
 5828TIP3    H217449   5.091   3.632   1.981
 5829TIP3   OH217450   5.174   3.190   2.048
 5829TIP3    H117451   5.204   3.164   2.135
 5829TIP3    H217452   5.142   3.109   2.009
 5830TIP3   OH217453   5.630   2.135   2.890
 5830TIP3    H117454   5.547   2.179   2.908
 5830TIP3    H217455   5.657   2.098   2.974
 5831TIP3   OH217456   0.620   4.004   4.127
 5831TIP3    H117457   0.671   4.066   4.178
 5831TIP3    H217458   0.627   4.036   4.037
 5832TIP3   OH217459   6.992   0.107   5.749
 5832TIP3    H117460   6.945   0.035   5.792
 5832TIP3    H217461   6.957   0.186   5.790
 5833TIP3   OH217462   6.241   1.248   1.739
 5833TIP3    H117463   6.323   1.223   1.782
 5833TIP3    H217464   6.201   1.165   1.713
 5834TIP3   OH217465   0.796   5.667   5.261
 5834TIP3    H117466   0.732   5.735   5.241
 5834TIP3    H217467   0.823   5.633   5.176
 5835TIP3   OH217468   6.676   0.527   3.929
 5835TIP3    H117469   6.660   0.539   3.835
 5835TIP3    H217470   6.761   0.482   3.933
 5836TIP3   OH217471   6.972   2.681   1.219
 5836TIP3    H117472   6.945   2.770   1.198
 5836TIP3    H217473   6.891   2.635   1.240
 5837TIP3   OH217474   2.222   6.182   4.680
 5837TIP3    H117475   2.153   6.149   4.737
 5837TIP3    H217476   2.201   6.275   4.669
 5838TIP3   OH217477   4.841   6.000   0.221
 5838TIP3    H117478   4.905   6.022   0.153
 5838TIP3    H217479   4.764   5.969   0.172
 5839TIP3   OH217480   5.110   0.932   0.458
 5839TIP3    H117481   5.051   0.959   0.388
 5839TIP3    H217482   5.197   0.951   0.425
 5840TIP3   OH217483   0.921   1.196   0.954
 5840TIP3    H117484   0.972   1.135   1.007
 5840TIP3    H217485   0.962   1.281   0.970
 5841TIP3   OH217486   0.920   1.347   5.034
 5841TIP3    H117487   0.927   1.440   5.010
 5841TIP3    H217488   0.982   1.336   5.106
 5842TIP3   OH217489   5.005   2.365   4.984
 5842TIP3    H117490   5.026   2.412   5.064
 5842TIP3    H217491   4.957   2.287   5.013
 5843TIP3   OH217492   2.007   4.622   2.274
 5843TIP3    H117493   1.992   4.653   2.363
 5843TIP3    H217494   2.037   4.699   2.226
 5844TIP3   OH217495   2.232   0.053   1.342
 5844TIP3    H117496   2.195   0.054   1.430
 5844TIP3    H217497   2.156   0.055   1.284
 5845TIP3   OH217498   0.981   3.018   3.167
 5845TIP3    H117499   0.928   2.963   3.224
 5845TIP3    H217500   0.946   3.004   3.080
 5846TIP3   OH217501   4.753   5.932   1.947
 5846TIP3    H117502   4.665   5.948   1.914
 5846TIP3    H217503   4.801   6.013   1.928
 5847TIP3   OH217504   1.796   1.612   4.387
 5847TIP3    H117505   1.831   1.593   4.300
 5847TIP3    H217506   1.712   1.654   4.370
 5848TIP3   OH217507   6.079   2.037   3.626
 5848TIP3    H117508   6.134   2.040   3.548
 5848TIP3    H217509   5.992   2.016   3.593
 5849TIP3   OH217510   0.459   5.762   1.226
 5849TIP3    H117511   0.449   5.742   1.319
 5849TIP3    H217512   0.550   5.739   1.206
 5850TIP3   OH217513   6.445   5.222   0.903
 5850TIP3    H117514   6.509   5.191   0.968
 5850TIP3    H217515   6.368   5.245   0.955
 5851TIP3   OH217516   3.848   4.274   1.607
 5851TIP3    H117517   3.797   4.330   1.549
 5851TIP3    H217518   3.939   4.299   1.591
 5852TIP3   OH217519   2.823   0.670   2.571
 5852TIP3    H117520   2.747   0.663   2.513
 5852TIP3    H217521   2.875   0.592   2.550
 5853TIP3   OH217522   1.034   5.786   1.591
 5853TIP3    H117523   0.947   5.778   1.553
 5853TIP3    H217524   1.021   5.771   1.685
 5854TIP3   OH217525   4.395   0.073   3.158
 5854TIP3    H117526   4.475   0.039   3.117
 5854TIP3    H217527   4.396   0.167   3.136
 5855TIP3   OH217528   1.838   0.129   4.077
 5855TIP3    H117529   1.908   0.074   4.042
 5855TIP3    H217530   1.873   0.164   4.159
 5856TIP3   OH217531   1.280   1.300   4.703
 5856TIP3    H117532   1.226   1.339   4.635
 5856TIP3    H217533   1.336   1.371   4.733
 5857TIP3   OH217534   2.768   0.522   3.362
 5857TIP3    H117535   2.714   0.601   3.361
 5857TIP3    H217536   2.857   0.554   3.374
 5858TIP3   OH217537   6.092   3.365   1.655
 5858TIP3    H117538   6.014   3.361   1.710
 5858TIP3    H217539   6.063   3.411   1.576
 5859TIP3   OH217540   5.907   4.083   4.866
 5859TIP3    H117541   5.983   4.035   4.834
 5859TIP3    H217542   5.836   4.056   4.807
 5860TIP3   OH217543   5.960   4.320   0.013
 5860TIP3    H117544   6.044   4.320   0.058
 5860TIP3    H217545   5.975   4.271  -0.067
 5861TIP3   OH217546   0.781   3.081   5.378
 5861TIP3    H117547   0.814   3.004   5.423
 5861TIP3    H217548   0.792   3.062   5.285
 5862TIP3   OH217549   5.278   0.367   3.022
 5862TIP3    H117550   5.365   0.328   3.020
 5862TIP3    H217551   5.273   0.418   2.941
 5863TIP3   OH217552   1.174   3.453   3.697
 5863TIP3    H117553   1.228   3.394   3.750
 5863TIP3    H217554   1.101   3.476   3.754
 5864TIP3   OH217555   5.493   0.951   4.736
 5864TIP3    H117556   5.483   0.875   4.794
 5864TIP3    H217557   5.573   0.933   4.687
 5865TIP3   OH217558   7.031   0.803   0.596
 5865TIP3    H117559   6.983   0.870   0.547
 5865TIP3    H217560   7.003   0.816   0.687
 5866TIP3   OH217561   3.726   2.970   5.233
 5866TIP3    H117562   3.687   2.903   5.289
 5866TIP3    H217563   3.740   3.045   5.291
 5867TIP3   OH217564   4.006   5.772   4.022
 5867TIP3    H117565   4.042   5.702   4.077
 5867TIP3    H217566   3.913   5.774   4.046
 5868TIP3   OH217567   1.596   4.560   1.595
 5868TIP3    H117568   1.610   4.612   1.674
 5868TIP3    H217569   1.593   4.470   1.626
 5869TIP3   OH217570   5.382   1.891   0.234
 5869TIP3    H117571   5.360   1.833   0.161
 5869TIP3    H217572   5.390   1.832   0.309
 5870TIP3   OH217573   4.212   3.769   1.001
 5870TIP3    H117574   4.284   3.825   1.028
 5870TIP3    H217575   4.139   3.830   0.986
 5871TIP3   OH217576   1.973   1.351   2.938
 5871TIP3    H117577   2.042   1.286   2.952
 5871TIP3    H217578   1.894   1.308   2.971
 5872TIP3   OH217579   0.199   5.626   4.641
 5872TIP3    H117580   0.191   5.622   4.545
 5872TIP3    H217581   0.120   5.583   4.673
 5873TIP3   OH217582   1.540   3.473   5.546
 5873TIP3    H117583   1.624   3.442   5.511
 5873TIP3    H217584   1.562   3.508   5.633
 5874TIP3   OH217585   4.706   5.298   4.544
 5874TIP3    H117586   4.769   5.245   4.593
 5874TIP3    H217587   4.761   5.356   4.490
 5875TIP3   OH217588   2.617   4.688   2.127
 5875TIP3    H117589   2.637   4.595   2.125
 5875TIP3    H217590   2.648   4.718   2.212
 5876TIP3   OH217591   3.544   2.219   5.250
 5876TIP3    H117592   3.496   2.148   5.291
 5876TIP3    H217593   3.612   2.242   5.313
 5877TIP3   OH217594   5.546   3.971   4.046
 5877TIP3    H117595   5.598   3.921   4.109
 5877TIP3    H217596   5.517   3.905   3.982
 5878TIP3   OH217597   2.636   6.579   0.528
 5878TIP3    H117598   2.553   6.627   0.538
 5878TIP3    H217599   2.645   6.566   0.434
 5879TIP3   OH217600   0.417   1.854   3.375
 5879TIP3    H117601   0.457   1.833   3.290
 5879TIP3    H217602   0.365   1.777   3.397
 5880TIP3   OH217603   1.181   3.135   4.408
 5880TIP3    H117604   1.242   3.184   4.463
 5880TIP3    H217605   1.237   3.092   4.343
 5881TIP3   OH217606   0.955   3.215   0.214
 5881TIP3    H117607   0.918   3.210   0.302
 5881TIP3    H217608   1.011   3.292   0.216
 5882TIP3   OH217609   4.184   1.319   1.577
 5882TIP3    H117610   4.185   1.311   1.481
 5882TIP3    H217611   4.224   1.237   1.608
 5883TIP3   OH217612   4.069   3.956   3.028
 5883TIP3    H117613   4.123   3.878   3.014
 5883TIP3    H217614   4.107   3.998   3.105
 5884TIP3   OH217615   4.001   5.487   1.797
 5884TIP3    H117616   3.978   5.416   1.737
 5884TIP3    H217617   4.033   5.557   1.739
 5885TIP3   OH217618   2.957   2.505   3.600
 5885TIP3    H117619   2.922   2.594   3.608
 5885TIP3    H217620   3.046   2.510   3.635
 5886TIP3   OH217621   0.587   2.743   4.884
 5886TIP3    H117622   0.521   2.731   4.816
 5886TIP3    H217623   0.639   2.662   4.882
 5887TIP3   OH217624   2.245   4.431   4.612
 5887TIP3    H117625   2.221   4.342   4.637
 5887TIP3    H217626   2.162   4.478   4.608
 5888TIP3   OH217627   1.753   1.901   2.518
 5888TIP3    H117628   1.663   1.872   2.535
 5888TIP3    H217629   1.742   1.981   2.466
 5889TIP3   OH217630   0.569   3.332   4.099
 5889TIP3    H117631   0.660   3.342   4.128
 5889TIP3    H217632   0.574   3.272   4.025
 5890TIP3   OH217633   4.616   6.803   3.999
 5890TIP3    H117634   4.559   6.861   4.049
 5890TIP3    H217635   4.701   6.809   4.043
 5891TIP3   OH217636   5.538   0.265   1.973
 5891TIP3    H117637   5.551   0.221   2.057
 5891TIP3    H217638   5.451   0.304   1.979
 5892TIP3   OH217639   1.154   2.440   0.298
 5892TIP3    H117640   1.107   2.493   0.234
 5892TIP3    H217641   1.199   2.373   0.246
 5893TIP3   OH217642   0.260   0.307   0.537
 5893TIP3    H117643   0.276   0.366   0.610
 5893TIP3    H217644   0.187   0.252   0.566
 5894TIP3   OH217645   0.378   4.941   1.063
 5894TIP3    H117646   0.470   4.933   1.039
 5894TIP3    H217647   0.348   4.851   1.073
 5895TIP3   OH217648   1.280   0.315   1.802
 5895TIP3    H117649   1.214   0.341   1.738
 5895TIP3    H217650   1.236   0.323   1.887
 5896TIP3   OH217651   3.441   2.403   1.148
 5896TIP3    H117652   3.410   2.367   1.065
 5896TIP3    H217653   3.534   2.418   1.135
 5897TIP3   OH217654   4.886   1.432   3.975
 5897TIP3    H117655   4.876   1.460   3.884
 5897TIP3    H217656   4.963   1.481   4.006
 5898TIP3   OH217657   1.511   1.516   0.762
 5898TIP3    H117658   1.541   1.589   0.707
 5898TIP3    H217659   1.505   1.442   0.703
 5899TIP3   OH217660   3.287   1.068   0.918
 5899TIP3    H117661   3.235   0.993   0.948
 5899TIP3    H217662   3.250   1.143   0.966
 5900TIP3   OH217663   2.165   0.091   3.009
 5900TIP3    H117664   2.249   0.053   3.035
 5900TIP3    H217665   2.159   0.073   2.915
 5901TIP3   OH217666   0.818   5.742   1.272
 5901TIP3    H117667   0.786   5.773   1.357
 5901TIP3    H217668   0.770   5.796   1.208
 5902TIP3   OH217669   2.223   0.927   1.294
 5902TIP3    H117670   2.296   0.930   1.356
 5902TIP3    H217671   2.156   0.984   1.332
 5903TIP3   OH217672   4.576   0.434   5.803
 5903TIP3    H117673   4.569   0.472   5.716
 5903TIP3    H217674   4.670   0.425   5.818
 5904TIP3   OH217675   5.000   3.406   2.109
 5904TIP3    H117676   5.012   3.498   2.130
 5904TIP3    H217677   5.088   3.369   2.111
 5905TIP3   OH217678   0.602   6.472   0.736
 5905TIP3    H117679   0.665   6.444   0.669
 5905TIP3    H217680   0.627   6.562   0.757
 5906TIP3   OH217681   6.956   4.431   3.055
 5906TIP3    H117682   7.019   4.382   3.109
 5906TIP3    H217683   6.903   4.480   3.118
 5907TIP3   OH217684   3.287   6.445   1.630
 5907TIP3    H117685   3.258   6.516   1.572
 5907TIP3    H217686   3.294   6.486   1.716
 5908TIP3   OH217687   5.892   0.619   5.513
 5908TIP3    H117688   5.876   0.534   5.473
 5908TIP3    H217689   5.948   0.665   5.451
 5909TIP3   OH217690   2.492   2.809   5.848
 5909TIP3    H117691   2.553   2.812   5.921
 5909TIP3    H217692   2.456   2.897   5.843
 5910TIP3   OH217693   4.138   6.212   3.184
 5910TIP3    H117694   4.216   6.258   3.153
 5910TIP3    H217695   4.171   6.130   3.220
 5911TIP3   OH217696   6.620   5.656   1.914
 5911TIP3    H117697   6.668   5.620   1.989
 5911TIP3    H217698   6.608   5.748   1.935
 5912TIP3   OH217699   5.457   4.861   1.807
 5912TIP3    H117700   5.466   4.832   1.897
 5912TIP3    H217701   5.364   4.878   1.796
 5913TIP3   OH217702   0.040   1.707   2.756
 5913TIP3    H117703  -0.038   1.651   2.752
 5913TIP3    H217704   0.113   1.646   2.757
 5914TIP3   OH217705   6.238   0.848   4.288
 5914TIP3    H117706   6.165   0.858   4.227
 5914TIP3    H217707   6.283   0.933   4.287
 5915TIP3   OH217708   6.286   5.299   3.579
 5915TIP3    H117709   6.196   5.324   3.555
 5915TIP3    H217710   6.276   5.213   3.621
 5916TIP3   OH217711   0.878   3.881   3.223
 5916TIP3    H117712   0.893   3.966   3.264
 5916TIP3    H217713   0.783   3.869   3.226
 5917TIP3   OH217714   0.460   1.120   5.132
 5917TIP3    H117715   0.448   1.063   5.208
 5917TIP3    H217716   0.513   1.192   5.164
 5918TIP3   OH217717   4.421   1.666   0.147
 5918TIP3    H117718   4.484   1.736   0.165
 5918TIP3    H217719   4.475   1.587   0.141
 5919TIP3   OH217720   3.204   3.319   2.356
 5919TIP3    H117721   3.268   3.265   2.404
 5919TIP3    H217722   3.120   3.297   2.395
 5920TIP3   OH217723   3.893   6.271   3.762
 5920TIP3    H117724   3.809   6.233   3.736
 5920TIP3    H217725   3.894   6.263   3.857
 5921TIP3   OH217726   4.168   5.588   5.873
 5921TIP3    H117727   4.163   5.622   5.962
 5921TIP3    H217728   4.077   5.590   5.842
 5922TIP3   OH217729   1.824   6.485   1.024
 5922TIP3    H117730   1.806   6.552   0.958
 5922TIP3    H217731   1.882   6.527   1.086
 5923TIP3   OH217732   4.455   4.417   5.224
 5923TIP3    H117733   4.508   4.409   5.303
 5923TIP3    H217734   4.497   4.487   5.174
 5924TIP3   OH217735   6.795   5.461   3.470
 5924TIP3    H117736   6.702   5.477   3.483
 5924TIP3    H217737   6.838   5.531   3.519
 5925TIP3   OH217738   5.061   1.238   5.835
 5925TIP3    H117739   5.112   1.158   5.829
 5925TIP3    H217740   4.998   1.221   5.905
 5926TIP3   OH217741   6.316   5.112   3.317
 5926TIP3    H117742   6.230   5.097   3.277
 5926TIP3    H217743   6.299   5.175   3.387
 5927TIP3   OH217744   5.034   5.983   4.439
 5927TIP3    H117745   4.954   5.963   4.487
 5927TIP3    H217746   5.043   5.911   4.377
 5928TIP3   OH217747   2.787   0.571   0.022
 5928TIP3    H117748   2.837   0.583  -0.059
 5928TIP3    H217749   2.696   0.581  -0.004
 5929TIP3   OH217750   0.945   3.647   0.217
 5929TIP3    H117751   0.854   3.663   0.194
 5929TIP3    H217752   0.978   3.732   0.248
 5930TIP3   OH217753   3.506   4.925   4.423
 5930TIP3    H117754   3.492   4.838   4.461
 5930TIP3    H217755   3.518   4.910   4.330
 5931TIP3   OH217756   5.716   3.711   2.554
 5931TIP3    H117757   5.670   3.778   2.503
 5931TIP3    H217758   5.736   3.642   2.491
 5932TIP3   OH217759   6.096   4.030   4.422
 5932TIP3    H117760   6.009   4.004   4.391
 5932TIP3    H217761   6.151   4.028   4.344
 5933TIP3   OH217762   1.610   2.128   0.342
 5933TIP3    H117763   1.635   2.215   0.310
 5933TIP3    H217764   1.521   2.140   0.376
 5934TIP3   OH217765   3.090   6.452   4.399
 5934TIP3    H117766   3.127   6.370   4.432
 5934TIP3    H217767   3.116   6.518   4.463
 5935TIP3   OH217768   3.506   1.537   5.521
 5935TIP3    H117769   3.505   1.553   5.427
 5935TIP3    H217770   3.462   1.452   5.531
 5936TIP3   OH217771   6.117   1.904   3.900
 5936TIP3    H117772   6.132   1.815   3.866
 5936TIP3    H217773   6.084   1.952   3.824
 5937TIP3   OH217774   4.241   2.964   1.952
 5937TIP3    H117775   4.311   2.919   1.904
 5937TIP3    H217776   4.167   2.903   1.948
 5938TIP3   OH217777   1.896   1.864   3.960
 5938TIP3    H117778   1.951   1.790   3.984
 5938TIP3    H217779   1.936   1.900   3.881
 5939TIP3   OH217780   1.788   1.522   3.212
 5939TIP3    H117781   1.798   1.553   3.122
 5939TIP3    H217782   1.696   1.496   3.219
 5940TIP3   OH217783   2.963   4.765   4.448
 5940TIP3    H117784   2.972   4.859   4.465
 5940TIP3    H217785   2.883   4.757   4.397
 5941TIP3   OH217786   0.934   5.092   5.679
 5941TIP3    H117787   0.843   5.062   5.683
 5941TIP3    H217788   0.959   5.083   5.587
 5942TIP3   OH217789   0.148   0.761   2.622
 5942TIP3    H117790   0.161   0.750   2.528
 5942TIP3    H217791   0.137   0.671   2.655
 5943TIP3   OH217792   3.993   2.732   3.237
 5943TIP3    H117793   3.997   2.812   3.289
 5943TIP3    H217794   4.055   2.673   3.278
 5944TIP3   OH217795   3.920   1.787   2.200
 5944TIP3    H117796   3.975   1.709   2.188
 5944TIP3    H217797   3.883   1.804   2.114
 5945TIP3   OH217798   5.351   1.060   1.519
 5945TIP3    H117799   5.323   1.085   1.607
 5945TIP3    H217800   5.330   1.136   1.465
 5946TIP3   OH217801   1.252   0.126   0.301
 5946TIP3    H117802   1.292   0.213   0.297
 5946TIP3    H217803   1.203   0.118   0.219
 5947TIP3   OH217804   2.438   2.859   3.296
 5947TIP3    H117805   2.380   2.919   3.342
 5947TIP3    H217806   2.523   2.904   3.294
 5948TIP3   OH217807   3.350   2.910   4.653
 5948TIP3    H117808   3.356   2.920   4.558
 5948TIP3    H217809   3.401   2.983   4.688
 5949TIP3   OH217810   1.201   6.239   4.795
 5949TIP3    H117811   1.146   6.311   4.824
 5949TIP3    H217812   1.182   6.230   4.702
 5950TIP3   OH217813   5.935   5.037   3.620
 5950TIP3    H117814   5.939   5.073   3.532
 5950TIP3    H217815   5.884   4.957   3.611
 5951TIP3   OH217816   2.841   5.477   5.185
 5951TIP3    H117817   2.860   5.422   5.262
 5951TIP3    H217818   2.813   5.415   5.118
 5952TIP3   OH217819   5.022   3.622   2.681
 5952TIP3    H117820   4.954   3.620   2.613
 5952TIP3    H217821   5.076   3.697   2.660
 5953TIP3   OH217822   3.369   2.247   0.096
 5953TIP3    H117823   3.433   2.242   0.167
 5953TIP3    H217824   3.332   2.335   0.103
 5954TIP3   OH217825   4.526   3.461   5.720
 5954TIP3    H117826   4.589   3.458   5.648
 5954TIP3    H217827   4.507   3.369   5.739
 5955TIP3   OH217828   2.662   4.570   0.018
 5955TIP3    H117829   2.646   4.561   0.112
 5955TIP3    H217830   2.733   4.509   0.000
 5956TIP3   OH217831   0.430   2.429   4.310
 5956TIP3    H117832   0.477   2.431   4.393
 5956TIP3    H217833   0.495   2.401   4.245
 5957TIP3   OH217834   6.056   3.437   3.758
 5957TIP3    H117835   6.012   3.473   3.834
 5957TIP3    H217836   6.065   3.511   3.698
 5958TIP3   OH217837   4.198   5.872   5.427
 5958TIP3    H117838   4.176   5.798   5.371
 5958TIP3    H217839   4.262   5.922   5.376
 5959TIP3   OH217840   1.999   0.139   1.186
 5959TIP3    H117841   2.017   0.190   1.107
 5959TIP3    H217842   1.988   0.204   1.255
 5960TIP3   OH217843   5.143   3.785   4.025
 5960TIP3    H117844   5.231   3.778   4.063
 5960TIP3    H217845   5.084   3.766   4.098
 5961TIP3   OH217846   6.692   0.548   1.371
 5961TIP3    H117847   6.667   0.615   1.308
 5961TIP3    H217848   6.610   0.517   1.408
 5962TIP3   OH217849   4.600   2.190   0.279
 5962TIP3    H117850   4.693   2.210   0.289
 5962TIP3    H217851   4.557   2.276   0.277
 5963TIP3   OH217852   1.833   5.268   0.081
 5963TIP3    H117853   1.826   5.261   0.177
 5963TIP3    H217854   1.850   5.179   0.052
 5964TIP3   OH217855   4.984   1.367   0.524
 5964TIP3    H117856   4.954   1.318   0.447
 5964TIP3    H217857   5.032   1.442   0.488
 5965TIP3   OH217858   5.957   1.550   1.106
 5965TIP3    H117859   6.022   1.506   1.162
 5965TIP3    H217860   5.944   1.636   1.148
 5966TIP3   OH217861   5.610   5.644   0.656
 5966TIP3    H117862   5.589   5.603   0.572
 5966TIP3    H217863   5.531   5.692   0.679
 5967TIP3   OH217864   4.848   2.021   3.554
 5967TIP3    H117865   4.772   2.019   3.612
 5967TIP3    H217866   4.837   1.944   3.499
 5968TIP3   OH217867   0.780   6.735   4.185
 5968TIP3    H117868   0.703   6.700   4.140
 5968TIP3    H217869   0.769   6.708   4.276
 5969TIP3   OH217870   0.484   1.171   4.730
 5969TIP3    H117871   0.556   1.234   4.736
 5969TIP3    H217872   0.485   1.124   4.813
 5970TIP3   OH217873   3.802   0.203   4.498
 5970TIP3    H117874   3.851   0.133   4.540
 5970TIP3    H217875   3.775   0.260   4.570
 5971TIP3   OH217876   2.776   4.720   5.315
 5971TIP3    H117877   2.795   4.804   5.274
 5971TIP3    H217878   2.702   4.685   5.265
 5972TIP3   OH217879   1.155   0.964   2.550
 5972TIP3    H117880   1.107   0.886   2.520
 5972TIP3    H217881   1.105   0.995   2.625
 5973TIP3   OH217882   6.651   0.967   3.298
 5973TIP3    H117883   6.583   1.017   3.343
 5973TIP3    H217884   6.729   1.022   3.304
 5974TIP3   OH217885   6.682   5.013   3.071
 5974TIP3    H117886   6.768   4.975   3.055
 5974TIP3    H217887   6.644   4.960   3.141
 5975TIP3   OH217888   6.123   6.638   4.117
 5975TIP3    H117889   6.119   6.652   4.212
 5975TIP3    H217890   6.216   6.632   4.097
 5976TIP3   OH217891   4.884   4.995   4.518
 5976TIP3    H117892   4.930   4.949   4.589
 5976TIP3    H217893   4.871   4.928   4.451
 5977TIP3   OH217894   2.301   0.523   5.542
 5977TIP3    H117895   2.287   0.566   5.626
 5977TIP3    H217896   2.334   0.436   5.565
 5978TIP3   OH217897   0.665   2.798   0.418
 5978TIP3    H117898   0.724   2.742   0.469
 5978TIP3    H217899   0.611   2.841   0.483
 5979TIP3   OH217900   3.286   6.297   4.956
 5979TIP3    H117901   3.231   6.226   4.992
 5979TIP3    H217902   3.365   6.295   5.009
 5980TIP3   OH217903   0.765   3.209   5.010
 5980TIP3    H117904   0.714   3.276   5.055
 5980TIP3    H217905   0.704   3.136   4.999
 5981TIP3   OH217906   6.995   2.686   0.192
 5981TIP3    H117907   6.905   2.654   0.180
 5981TIP3    H217908   7.050   2.611   0.170
 5982TIP3   OH217909   1.368   0.036   5.518
 5982TIP3    H117910   1.275   0.057   5.527
 5982TIP3    H217911   1.396   0.012   5.607
 5983TIP3   OH217912   6.313   1.713   1.954
 5983TIP3    H117913   6.342   1.799   1.987
 5983TIP3    H217914   6.230   1.698   1.998
 5984TIP3   OH217915   5.262   4.081   1.920
 5984TIP3    H117916   5.252   4.176   1.919
 5984TIP3    H217917   5.260   4.055   1.828
 5985TIP3   OH217918   4.137   4.500   0.196
 5985TIP3    H117919   4.169   4.587   0.172
 5985TIP3    H217920   4.046   4.514   0.223
 5986TIP3   OH217921   0.551   0.422   4.400
 5986TIP3    H117922   0.469   0.391   4.361
 5986TIP3    H217923   0.615   0.419   4.329
 5987TIP3   OH217924   5.779   6.070   1.208
 5987TIP3    H117925   5.758   6.095   1.118
 5987TIP3    H217926   5.875   6.068   1.211
 5988TIP3   OH217927   3.810   5.670   3.790
 5988TIP3    H117928   3.856   5.588   3.807
 5988TIP3    H217929   3.759   5.652   3.710
 5989TIP3   OH217930   0.848   3.636   5.336
 5989TIP3    H117931   0.926   3.583   5.318
 5989TIP3    H217932   0.813   3.656   5.249
 5990TIP3   OH217933   1.973   2.217   2.301
 5990TIP3    H117934   1.930   2.281   2.243
 5990TIP3    H217935   1.977   2.137   2.249
 5991TIP3   OH217936   0.917   0.645   0.590
 5991TIP3    H117937   0.993   0.591   0.566
 5991TIP3    H217938   0.931   0.666   0.682
 5992TIP3   OH217939   6.951   3.006   3.295
 5992TIP3    H117940   6.898   3.061   3.353
 5992TIP3    H217941   6.888   2.949   3.251
 5993TIP3   OH217942   4.135   6.624   3.375
 5993TIP3    H117943   4.143   6.720   3.380
 5993TIP3    H217944   4.171   6.602   3.289
 5994TIP3   OH217945   0.232   1.262   1.559
 5994TIP3    H117946   0.300   1.221   1.612
 5994TIP3    H217947   0.243   1.356   1.574
 5995TIP3   OH217948   0.397   4.189   4.063
 5995TIP3    H117949   0.304   4.187   4.041
 5995TIP3    H217950   0.425   4.097   4.059
 5996TIP3   OH217951   1.275   1.574   0.918
 5996TIP3    H117952   1.351   1.581   0.860
 5996TIP3    H217953   1.261   1.663   0.950
 5997TIP3   OH217954   6.542   4.635   1.046
 5997TIP3    H117955   6.466   4.615   0.990
 5997TIP3    H217956   6.529   4.726   1.072
 5998TIP3   OH217957   6.792   6.380   2.242
 5998TIP3    H117958   6.817   6.425   2.322
 5998TIP3    H217959   6.809   6.287   2.260
 5999TIP3   OH217960   4.972   6.185   2.249
 5999TIP3    H117961   5.015   6.100   2.251
 5999TIP3    H217962   5.042   6.247   2.270
 6000TIP3   OH217963   7.102   3.047   5.253
 6000TIP3    H117964   7.196   3.063   5.255
 6000TIP3    H217965   7.088   2.978   5.317
 6001TIP3   OH217966   0.071   5.033   2.531
 6001TIP3    H117967  -0.001   5.072   2.580
 6001TIP3    H217968   0.149   5.059   2.579
 6002TIP3   OH217969   6.454   1.922   5.419
 6002TIP3    H117970   6.416   1.859   5.480
 6002TIP3    H217971   6.433   2.007   5.457
 6003TIP3   OH217972   3.067   2.701   5.485
 6003TIP3    H117973   3.015   2.682   5.564
 6003TIP3    H217974   3.070   2.797   5.482
 6004TIP3   OH217975   2.506   3.636   2.706
 6004TIP3    H117976   2.532   3.547   2.729
 6004TIP3    H217977   2.576   3.691   2.743
 6005TIP3   OH217978   6.461   3.095   3.329
 6005TIP3    H117979   6.505   3.178   3.312
 6005TIP3    H217980   6.519   3.050   3.392
 6006TIP3   OH217981   0.291   3.754   4.935
 6006TIP3    H117982   0.350   3.782   4.865
 6006TIP3    H217983   0.212   3.726   4.889
 6007TIP3   OH217984   2.702   2.033   0.972
 6007TIP3    H117985   2.629   2.095   0.973
 6007TIP3    H217986   2.664   1.951   0.942
 6008TIP3   OH217987   6.422   2.673   4.877
 6008TIP3    H117988   6.327   2.678   4.872
 6008TIP3    H217989   6.450   2.763   4.894
 6009TIP3   OH217990   5.049   2.060   4.829
 6009TIP3    H117991   5.134   2.104   4.832
 6009TIP3    H217992   5.033   2.033   4.919
 6010TIP3   OH217993   2.200   1.616   1.135
 6010TIP3    H117994   2.122   1.599   1.082
 6010TIP3    H217995   2.214   1.535   1.183
 6011TIP3   OH217996   1.587   4.761   4.791
 6011TIP3    H117997   1.552   4.768   4.702
 6011TIP3    H217998   1.666   4.708   4.782
 6012TIP3   OH217999   0.290   4.535   5.783
 6012TIP3    H118000   0.339   4.616   5.793
 6012TIP3    H218001   0.256   4.538   5.694
 6013TIP3   OH218002   6.727  -0.026   0.432
 6013TIP3    H118003   6.634  -0.045   0.419
 6013TIP3    H218004   6.729   0.054   0.484
 6014TIP3   OH218005   1.177   2.059   4.899
 6014TIP3    H118006   1.265   2.081   4.929
 6014TIP3    H218007   1.191   1.993   4.830
 6015TIP3   OH218008   2.922   2.731   4.676
 6015TIP3    H118009   3.017   2.748   4.678
 6015TIP3    H218010   2.894   2.748   4.766
 6016TIP3   OH218011   0.795   2.423   0.807
 6016TIP3    H118012   0.808   2.502   0.860
 6016TIP3    H218013   0.809   2.351   0.868
 6017TIP3   OH218014   7.080   4.662   2.971
 6017TIP3    H118015   7.006   4.601   2.971
 6017TIP3    H218016   7.070   4.711   3.052
 6018TIP3   OH218017   0.387   5.677   4.190
 6018TIP3    H118018   0.352   5.758   4.154
 6018TIP3    H218019   0.480   5.696   4.206
 6019TIP3   OH218020   7.143   3.218   3.247
 6019TIP3    H118021   7.116   3.146   3.305
 6019TIP3    H218022   7.064   3.271   3.237
 6020TIP3   OH218023   7.175   4.059   4.286
 6020TIP3    H118024   7.262   4.032   4.258
 6020TIP3    H218025   7.146   3.990   4.346
 6021TIP3   OH218026   2.026   6.726   5.196
 6021TIP3    H118027   1.987   6.667   5.260
 6021TIP3    H218028   1.983   6.703   5.113
 6022TIP3   OH218029   4.172   2.682   1.917
 6022TIP3    H118030   4.115   2.614   1.953
 6022TIP3    H218031   4.113   2.740   1.869
 6023TIP3   OH218032   2.889   1.802   2.154
 6023TIP3    H118033   2.936   1.748   2.218
 6023TIP3    H218034   2.901   1.892   2.185
 6024TIP3   OH218035   2.087   0.911   0.971
 6024TIP3    H118036   2.153   0.879   0.910
 6024TIP3    H218037   2.026   0.837   0.980
 6025TIP3   OH218038   5.506   4.843   1.236
 6025TIP3    H118039   5.565   4.824   1.164
 6025TIP3    H218040   5.525   4.934   1.260
 6026TIP3   OH218041   5.064   5.136   1.165
 6026TIP3    H118042   5.013   5.089   1.100
 6026TIP3    H218043   5.100   5.211   1.117
 6027TIP3   OH218044   5.465   5.720   4.277
 6027TIP3    H118045   5.460   5.773   4.356
 6027TIP3    H218046   5.449   5.782   4.206
 6028TIP3   OH218047   4.591   2.941   5.215
 6028TIP3    H118048   4.613   2.920   5.306
 6028TIP3    H218049   4.671   2.922   5.166
 6029TIP3   OH218050   0.920   1.924   3.238
 6029TIP3    H118051   0.859   1.911   3.165
 6029TIP3    H218052   0.945   2.016   3.232
 6030TIP3   OH218053   1.824   6.595   2.714
 6030TIP3    H118054   1.804   6.521   2.658
 6030TIP3    H218055   1.916   6.583   2.738
 6031TIP3   OH218056   2.442   0.960   5.276
 6031TIP3    H118057   2.450   1.047   5.237
 6031TIP3    H218058   2.386   0.912   5.215
 6032TIP3   OH218059   6.612   1.812   0.097
 6032TIP3    H118060   6.602   1.867   0.020
 6032TIP3    H218061   6.552   1.850   0.162
 6033TIP3   OH218062   5.767   4.944   3.246
 6033TIP3    H118063   5.773   5.027   3.198
 6033TIP3    H218064   5.858   4.913   3.252
 6034TIP3   OH218065   3.880   6.475   1.392
 6034TIP3    H118066   3.812   6.420   1.431
 6034TIP3    H218067   3.959   6.421   1.396
 6035TIP3   OH218068   7.205   5.423   2.146
 6035TIP3    H118069   7.230   5.351   2.088
 6035TIP3    H218070   7.184   5.380   2.229
 6036TIP3   OH218071   1.376   4.694   3.402
 6036TIP3    H118072   1.301   4.643   3.372
 6036TIP3    H218073   1.347   4.785   3.396
 6037TIP3   OH218074   6.178   4.255   0.565
 6037TIP3    H118075   6.253   4.198   0.551
 6037TIP3    H218076   6.187   4.285   0.656
 6038TIP3   OH218077   3.822   0.530   2.654
 6038TIP3    H118078   3.909   0.500   2.679
 6038TIP3    H218079   3.780   0.554   2.736
 6039TIP3   OH218080   4.052   0.824   0.650
 6039TIP3    H118081   4.023   0.885   0.582
 6039TIP3    H218082   4.097   0.880   0.714
 6040TIP3   OH218083   0.834   4.678   3.174
 6040TIP3    H118084   0.884   4.608   3.217
 6040TIP3    H218085   0.865   4.758   3.217
 6041TIP3   OH218086   0.496   3.068   5.331
 6041TIP3    H118087   0.442   3.005   5.377
 6041TIP3    H218088   0.585   3.033   5.338
 6042TIP3   OH218089   0.130   4.183   3.999
 6042TIP3    H118090   0.038   4.156   3.996
 6042TIP3    H218091   0.159   4.182   3.908
 6043TIP3   OH218092   4.016   1.216   0.147
 6043TIP3    H118093   3.940   1.227   0.090
 6043TIP3    H218094   4.086   1.186   0.089
 6044TIP3   OH218095   3.395   2.553   0.785
 6044TIP3    H118096   3.332   2.577   0.716
 6044TIP3    H218097   3.410   2.634   0.833
 6045TIP3   OH218098   2.162   5.502   0.261
 6045TIP3    H118099   2.219   5.480   0.186
 6045TIP3    H218100   2.074   5.479   0.232
 6046TIP3   OH218101   3.843   0.072   1.110
 6046TIP3    H118102   3.866  -0.016   1.141
 6046TIP3    H218103   3.883   0.131   1.174
 6047TIP3   OH218104   1.471   2.374   5.207
 6047TIP3    H118105   1.419   2.359   5.128
 6047TIP3    H218106   1.428   2.446   5.252
 6048TIP3   OH218107   2.423   1.684   5.743
 6048TIP3    H118108   2.346   1.633   5.769
 6048TIP3    H218109   2.466   1.632   5.676
 6049TIP3   OH218110   1.674   5.948   3.097
 6049TIP3    H118111   1.599   5.918   3.046
 6049TIP3    H218112   1.720   5.867   3.122
 6050TIP3   OH218113   2.463   4.775   1.191
 6050TIP3    H118114   2.529   4.709   1.212
 6050TIP3    H218115   2.406   4.732   1.127
 6051TIP3   OH218116   6.726   5.854   2.165
 6051TIP3    H118117   6.733   5.761   2.187
 6051TIP3    H218118   6.634   5.876   2.181
 6052TIP3   OH218119   6.455   2.315   1.032
 6052TIP3    H118120   6.404   2.340   0.955
 6052TIP3    H218121   6.393   2.317   1.104
 6053TIP3   OH218122   0.862   6.028   3.722
 6053TIP3    H118123   0.854   5.941   3.759
 6053TIP3    H218124   0.786   6.076   3.757
 6054TIP3   OH218125   0.709   4.947   5.715
 6054TIP3    H118126   0.629   4.918   5.670
 6054TIP3    H218127   0.719   4.887   5.789
 6055TIP3   OH218128   0.473   4.920   5.573
 6055TIP3    H118129   0.457   4.837   5.528
 6055TIP3    H218130   0.394   4.971   5.558
 6056TIP3   OH218131   1.873   5.186   1.241
 6056TIP3    H118132   1.896   5.245   1.169
 6056TIP3    H218133   1.805   5.129   1.205
 6057TIP3   OH218134   2.147   2.044   2.995
 6057TIP3    H118135   2.238   2.017   2.982
 6057TIP3    H218136   2.110   2.046   2.906
 6058TIP3   OH218137   6.478   5.716   4.510
 6058TIP3    H118138   6.529   5.739   4.587
 6058TIP3    H218139   6.504   5.626   4.490
 6059TIP3   OH218140   3.508   1.455   3.921
 6059TIP3    H118141   3.600   1.470   3.940
 6059TIP3    H218142   3.481   1.531   3.869
 6060TIP3   OH218143   4.628   2.239   3.323
 6060TIP3    H118144   4.691   2.202   3.261
 6060TIP3    H218145   4.579   2.164   3.355
 6061TIP3   OH218146   3.093   1.223   1.071
 6061TIP3    H118147   3.139   1.246   1.151
 6061TIP3    H218148   3.006   1.260   1.081
 6062TIP3   OH218149   1.672   0.062   0.852
 6062TIP3    H118150   1.751   0.020   0.817
 6062TIP3    H218151   1.603  -0.004   0.839
 6063TIP3   OH218152   3.582   1.198   1.596
 6063TIP3    H118153   3.499   1.154   1.616
 6063TIP3    H218154   3.591   1.264   1.665
 6064TIP3   OH218155   2.103   3.939   1.974
 6064TIP3    H118156   2.143   3.906   2.055
 6064TIP3    H218157   2.009   3.924   1.986
 6065TIP3   OH218158   3.564   2.158   0.269
 6065TIP3    H118159   3.641   2.205   0.302
 6065TIP3    H218160   3.598   2.071   0.246
 6066TIP3   OH218161   2.878   2.976   1.766
 6066TIP3    H118162   2.860   3.063   1.803
 6066TIP3    H218163   2.964   2.986   1.724
 6067TIP3   OH218164   1.578   0.995   1.923
 6067TIP3    H118165   1.595   0.902   1.911
 6067TIP3    H218166   1.489   1.008   1.892
 6068TIP3   OH218167   2.350   6.553   0.437
 6068TIP3    H118168   2.299   6.486   0.484
 6068TIP3    H218169   2.406   6.504   0.378
 6069TIP3   OH218170   5.934   5.903   5.911
 6069TIP3    H118171   5.917   5.971   5.845
 6069TIP3    H218172   5.847   5.876   5.940
 6070TIP3   OH218173   5.170   3.314   5.694
 6070TIP3    H118174   5.181   3.344   5.785
 6070TIP3    H218175   5.245   3.256   5.679
 6071TIP3   OH218176   2.129   0.505   0.804
 6071TIP3    H118177   2.157   0.595   0.789
 6071TIP3    H218178   2.074   0.484   0.728
 6072TIP3   OH218179   5.987   0.083   2.752
 6072TIP3    H118180   6.040   0.084   2.672
 6072TIP3    H218181   5.925   0.011   2.739
 6073TIP3   OH218182   2.039   6.649   1.418
 6073TIP3    H118183   2.026   6.717   1.484
 6073TIP3    H218184   1.957   6.649   1.368
 6074TIP3   OH218185   5.936   4.957   4.591
 6074TIP3    H118186   5.894   5.020   4.532
 6074TIP3    H218187   6.013   5.004   4.623
 6075TIP3   OH218188   3.278   0.688   1.833
 6075TIP3    H118189   3.191   0.721   1.856
 6075TIP3    H218190   3.264   0.596   1.809
 6076TIP3   OH218191   5.347   5.782   0.721
 6076TIP3    H118192   5.276   5.797   0.784
 6076TIP3    H218193   5.400   5.861   0.725
 6077TIP3   OH218194   1.537   5.572   3.340
 6077TIP3    H118195   1.544   5.502   3.406
 6077TIP3    H218196   1.558   5.652   3.388
 6078TIP3   OH218197   6.271   4.724   0.392
 6078TIP3    H118198   6.256   4.817   0.408
 6078TIP3    H218199   6.303   4.690   0.476
 6079TIP3   OH218200   0.162   0.533   5.887
 6079TIP3    H118201   0.159   0.596   5.815
 6079TIP3    H218202   0.239   0.558   5.938
 6080TIP3   OH218203   5.892   3.052   2.123
 6080TIP3    H118204   5.913   2.961   2.101
 6080TIP3    H218205   5.806   3.067   2.085
 6081TIP3   OH218206   3.338   1.958   0.040
 6081TIP3    H118207   3.367   1.936  -0.048
 6081TIP3    H218208   3.375   2.044   0.057
 6082TIP3   OH218209   4.013   6.625   0.791
 6082TIP3    H118210   3.944   6.645   0.728
 6082TIP3    H218211   3.977   6.654   0.875
 6083TIP3   OH218212   0.207   3.421   5.256
 6083TIP3    H118213   0.131   3.459   5.211
 6083TIP3    H218214   0.239   3.491   5.313
 6084TIP3   OH218215   1.358   3.648   4.947
 6084TIP3    H118216   1.283   3.591   4.964
 6084TIP3    H218217   1.344   3.680   4.858
 6085TIP3   OH218218   4.716   2.583   4.766
 6085TIP3    H118219   4.774   2.527   4.715
 6085TIP3    H218220   4.724   2.669   4.726
 6086TIP3   OH218221   1.915   5.254   0.863
 6086TIP3    H118222   1.962   5.287   0.939
 6086TIP3    H218223   1.923   5.159   0.869
 6087TIP3   OH218224   5.626   5.497   0.435
 6087TIP3    H118225   5.703   5.449   0.464
 6087TIP3    H218226   5.621   5.480   0.341
 6088TIP3   OH218227   6.312   5.121   1.585
 6088TIP3    H118228   6.387   5.169   1.620
 6088TIP3    H218229   6.309   5.040   1.636
 6089TIP3   OH218230   0.508   0.783   0.647
 6089TIP3    H118231   0.436   0.817   0.700
 6089TIP3    H218232   0.480   0.797   0.557
 6090TIP3   OH218233   0.106   5.196   2.059
 6090TIP3    H118234   0.181   5.211   2.116
 6090TIP3    H218235   0.138   5.218   1.971
 6091TIP3   OH218236   2.383   6.762   4.717
 6091TIP3    H118237   2.290   6.743   4.726
 6091TIP3    H218238   2.387   6.836   4.656
 6092TIP3   OH218239   5.930   1.755   1.320
 6092TIP3    H118240   6.003   1.778   1.378
 6092TIP3    H218241   5.914   1.835   1.270
 6093TIP3   OH218242   1.063   2.327   4.660
 6093TIP3    H118243   1.106   2.412   4.670
 6093TIP3    H218244   1.122   2.277   4.604
 6094TIP3   OH218245   2.539   3.859   3.005
 6094TIP3    H118246   2.528   3.764   3.000
 6094TIP3    H218247   2.620   3.872   3.054
 6095TIP3   OH218248   1.941   5.146   5.126
 6095TIP3    H118249   1.922   5.239   5.127
 6095TIP3    H218250   2.002   5.133   5.199
 6096TIP3   OH218251   0.392   1.221   1.130
 6096TIP3    H118252   0.370   1.128   1.119
 6096TIP3    H218253   0.486   1.225   1.112
 6097TIP3   OH218254   7.131   6.266   4.822
 6097TIP3    H118255   7.081   6.272   4.740
 6097TIP3    H218256   7.203   6.206   4.802
 6098TIP3   OH218257   3.400   3.969   2.745
 6098TIP3    H118258   3.351   4.028   2.688
 6098TIP3    H218259   3.490   4.001   2.741
 6099TIP3   OH218260   3.024   2.331   1.971
 6099TIP3    H118261   3.102   2.361   2.019
 6099TIP3    H218262   2.958   2.398   1.989
 6100TIP3   OH218263   1.219   5.917   2.777
 6100TIP3    H118264   1.199   5.849   2.713
 6100TIP3    H218265   1.246   5.993   2.724
 6101TIP3   OH218266   6.554   6.052   0.760
 6101TIP3    H118267   6.640   6.086   0.736
 6101TIP3    H218268   6.492   6.103   0.708
 6102TIP3   OH218269   6.884   4.047   4.453
 6102TIP3    H118270   6.915   4.136   4.433
 6102TIP3    H218271   6.825   4.025   4.381
 6103TIP3   OH218272   1.649   5.582   3.829
 6103TIP3    H118273   1.593   5.655   3.852
 6103TIP3    H218274   1.738   5.616   3.837
 6104TIP3   OH218275   5.767   1.417   1.408
 6104TIP3    H118276   5.731   1.503   1.386
 6104TIP3    H218277   5.768   1.416   1.504
 6105TIP3   OH218278   3.290   1.046   0.045
 6105TIP3    H118279   3.263   1.078  -0.041
 6105TIP3    H218280   3.299   1.124   0.099
 6106TIP3   OH218281   2.798   0.198   2.719
 6106TIP3    H118282   2.841   0.147   2.651
 6106TIP3    H218283   2.765   0.133   2.781
 6107TIP3   OH218284   5.341   5.500   4.364
 6107TIP3    H118285   5.409   5.563   4.340
 6107TIP3    H218286   5.359   5.479   4.456
 6108TIP3   OH218287   6.446   6.772   0.306
 6108TIP3    H118288   6.505   6.783   0.232
 6108TIP3    H218289   6.360   6.756   0.266
 6109TIP3   OH218290   1.102   0.271   3.230
 6109TIP3    H118291   1.175   0.327   3.205
 6109TIP3    H218292   1.140   0.184   3.238
 6110TIP3   OH218293   3.950   6.614   4.153
 6110TIP3    H118294   4.011   6.554   4.108
 6110TIP3    H218295   3.898   6.556   4.209
 6111TIP3   OH218296   1.208   3.569   0.552
 6111TIP3    H118297   1.302   3.562   0.568
 6111TIP3    H218298   1.201   3.580   0.457
 6112TIP3   OH218299   5.804   0.141   3.618
 6112TIP3    H118300   5.856   0.065   3.646
 6112TIP3    H218301   5.741   0.105   3.555
 6113TIP3   OH218302   3.234   0.822   5.024
 6113TIP3    H118303   3.286   0.798   5.100
 6113TIP3    H218304   3.152   0.773   5.034
 6114TIP3   OH218305   3.426   4.860   4.920
 6114TIP3    H118306   3.389   4.874   4.833
 6114TIP3    H218307   3.408   4.941   4.967
 6115TIP3   OH218308   3.121   6.514   0.571
 6115TIP3    H118309   3.056   6.468   0.624
 6115TIP3    H218310   3.077   6.532   0.488
 6116TIP3   OH218311   6.764   1.015   4.579
 6116TIP3    H118312   6.771   1.011   4.674
 6116TIP3    H218313   6.806   1.098   4.556
 6117TIP3   OH218314   5.326   2.838   4.039
 6117TIP3    H118315   5.371   2.809   3.960
 6117TIP3    H218316   5.321   2.933   4.030
 6118TIP3   OH218317   0.043   6.414   0.954
 6118TIP3    H118318   0.124   6.389   0.999
 6118TIP3    H218319  -0.009   6.458   1.021
 6119TIP3   OH218320   0.229   4.345   0.196
 6119TIP3    H118321   0.220   4.286   0.271
 6119TIP3    H218322   0.312   4.320   0.156
 6120TIP3   OH218323   1.449   1.147   1.518
 6120TIP3    H118324   1.416   1.144   1.608
 6120TIP3    H218325   1.463   1.055   1.495
 6121TIP3   OH218326   2.468   3.444   1.693
 6121TIP3    H118327   2.405   3.499   1.740
 6121TIP3    H218328   2.488   3.492   1.613
 6122TIP3   OH218329   3.609   0.999   2.380
 6122TIP3    H118330   3.650   0.974   2.462
 6122TIP3    H218331   3.665   0.963   2.312
 6123TIP3   OH218332   3.957   2.456   4.746
 6123TIP3    H118333   4.037   2.458   4.798
 6123TIP3    H218334   3.904   2.528   4.780
 6124TIP3   OH218335   2.654   5.750   5.569
 6124TIP3    H118336   2.662   5.779   5.478
 6124TIP3    H218337   2.596   5.674   5.566
 6125TIP3   OH218338   1.721   2.259   1.595
 6125TIP3    H118339   1.676   2.196   1.538
 6125TIP3    H218340   1.744   2.210   1.673
 6126TIP3   OH218341   4.103   6.430   2.755
 6126TIP3    H118342   4.079   6.364   2.820
 6126TIP3    H218343   4.143   6.379   2.684
 6127TIP3   OH218344   1.385   0.238   2.984
 6127TIP3    H118345   1.337   0.317   3.009
 6127TIP3    H218346   1.400   0.192   3.067
 6128TIP3   OH218347   2.129   1.551   2.864
 6128TIP3    H118348   2.084   1.628   2.830
 6128TIP3    H218349   2.061   1.485   2.873
 6129TIP3   OH218350   0.714   0.489   3.462
 6129TIP3    H118351   0.673   0.458   3.543
 6129TIP3    H218352   0.794   0.438   3.455
 6130TIP3   OH218353   1.867   6.682   4.298
 6130TIP3    H118354   1.863   6.764   4.348
 6130TIP3    H218355   1.816   6.701   4.219
 6131TIP3   OH218356   3.281   2.659   1.847
 6131TIP3    H118357   3.255   2.633   1.758
 6131TIP3    H218358   3.282   2.577   1.896
 6132TIP3   OH218359   1.051   0.801   5.140
 6132TIP3    H118360   1.024   0.781   5.050
 6132TIP3    H218361   1.093   0.887   5.133
 6133TIP3   OH218362   2.364   0.615   1.529
 6133TIP3    H118363   2.358   0.520   1.533
 6133TIP3    H218364   2.310   0.646   1.601
 6134TIP3   OH218365   2.220   1.488   2.443
 6134TIP3    H118366   2.283   1.554   2.472
 6134TIP3    H218367   2.142   1.505   2.495
 6135TIP3   OH218368   3.325   6.526   5.648
 6135TIP3    H118369   3.291   6.485   5.728
 6135TIP3    H218370   3.249   6.532   5.590
 6136TIP3   OH218371   6.526   4.970   3.639
 6136TIP3    H118372   6.537   4.901   3.573
 6136TIP3    H218373   6.604   4.963   3.693
 6137TIP3   OH218374   6.376   4.031   1.456
 6137TIP3    H118375   6.299   4.064   1.410
 6137TIP3    H218376   6.422   4.110   1.485
 6138TIP3   OH218377   5.313   2.901   2.116
 6138TIP3    H118378   5.282   2.891   2.207
 6138TIP3    H218379   5.404   2.929   2.125
 6139TIP3   OH218380   3.065   2.691   2.251
 6139TIP3    H118381   3.061   2.721   2.160
 6139TIP3    H218382   2.980   2.715   2.288
 6140TIP3   OH218383   0.144   2.341   5.681
 6140TIP3    H118384   0.108   2.289   5.752
 6140TIP3    H218385   0.236   2.353   5.703
 6141TIP3   OH218386   2.631   2.580   5.254
 6141TIP3    H118387   2.620   2.498   5.205
 6141TIP3    H218388   2.622   2.649   5.188
 6142TIP3   OH218389   2.968   3.985   3.581
 6142TIP3    H118390   2.951   3.999   3.674
 6142TIP3    H218391   2.954   4.072   3.542
 6143TIP3   OH218392   6.514   2.622   5.357
 6143TIP3    H118393   6.539   2.570   5.280
 6143TIP3    H218394   6.482   2.705   5.321
 6144TIP3   OH218395   6.240   5.210   1.162
 6144TIP3    H118396   6.263   5.121   1.187
 6144TIP3    H218397   6.265   5.263   1.238
 6145TIP3   OH218398   5.911   2.281   5.934
 6145TIP3    H118399   5.866   2.332   5.867
 6145TIP3    H218400   5.957   2.347   5.987
 6146TIP3   OH218401   0.191   0.485   4.774
 6146TIP3    H118402   0.171   0.415   4.836
 6146TIP3    H218403   0.188   0.565   4.826
 6147TIP3   OH218404   4.033   4.802   0.415
 6147TIP3    H118405   4.111   4.773   0.366
 6147TIP3    H218406   3.979   4.723   0.422
 6148TIP3   OH218407   4.131   4.635   2.900
 6148TIP3    H118408   4.148   4.544   2.874
 6148TIP3    H218409   4.080   4.627   2.981
 6149TIP3   OH218410   1.854   0.347   3.381
 6149TIP3    H118411   1.852   0.427   3.328
 6149TIP3    H218412   1.876   0.278   3.318
 6150TIP3   OH218413   0.600   1.144   3.099
 6150TIP3    H118414   0.674   1.099   3.139
 6150TIP3    H218415   0.638   1.223   3.060
 6151TIP3   OH218416   7.045   3.986   5.107
 6151TIP3    H118417   7.018   4.005   5.197
 6151TIP3    H218418   7.094   3.904   5.114
 6152TIP3   OH218419   5.932   4.101   2.037
 6152TIP3    H118420   5.849   4.097   2.085
 6152TIP3    H218421   5.916   4.050   1.957
 6153TIP3   OH218422   0.663   0.251   5.129
 6153TIP3    H118423   0.696   0.341   5.124
 6153TIP3    H218424   0.592   0.248   5.065
 6154TIP3   OH218425   2.725   1.452   2.896
 6154TIP3    H118426   2.650   1.437   2.953
 6154TIP3    H218427   2.794   1.395   2.930
 6155TIP3   OH218428   2.274   5.146   3.385
 6155TIP3    H118429   2.309   5.217   3.330
 6155TIP3    H218430   2.185   5.132   3.352
 6156TIP3   OH218431   2.088   0.611   4.516
 6156TIP3    H118432   2.142   0.683   4.547
 6156TIP3    H218433   2.079   0.626   4.421
 6157TIP3   OH218434   3.933   3.640   1.041
 6157TIP3    H118435   3.877   3.686   1.103
 6157TIP3    H218436   3.950   3.556   1.083
 6158TIP3   OH218437   0.851   4.473   1.726
 6158TIP3    H118438   0.819   4.477   1.816
 6158TIP3    H218439   0.941   4.508   1.732
 6159TIP3   OH218440   3.095   1.188   0.291
 6159TIP3    H118441   3.186   1.211   0.272
 6159TIP3    H218442   3.047   1.271   0.281
 6160TIP3   OH218443   0.025   4.368   5.196
 6160TIP3    H118444   0.111   4.384   5.234
 6160TIP3    H218445   0.011   4.273   5.207
 6161TIP3   OH218446   2.503   5.400   4.723
 6161TIP3    H118447   2.521   5.402   4.629
 6161TIP3    H218448   2.552   5.324   4.755
 6162TIP3   OH218449   6.446   3.288   0.138
 6162TIP3    H118450   6.452   3.358   0.204
 6162TIP3    H218451   6.537   3.269   0.116
 6163TIP3   OH218452   6.136   6.135   0.581
 6163TIP3    H118453   6.115   6.207   0.640
 6163TIP3    H218454   6.168   6.177   0.501
 6164TIP3   OH218455   5.188   0.754   1.857
 6164TIP3    H118456   5.153   0.666   1.868
 6164TIP3    H218457   5.151   0.785   1.774
 6165TIP3   OH218458   6.210   6.067   1.716
 6165TIP3    H118459   6.264   6.146   1.716
 6165TIP3    H218460   6.210   6.039   1.807
 6166TIP3   OH218461   6.940   2.220   4.024
 6166TIP3    H118462   7.013   2.163   4.002
 6166TIP3    H218463   6.931   2.212   4.119
 6167TIP3   OH218464   2.712   3.659   4.025
 6167TIP3    H118465   2.804   3.636   4.010
 6167TIP3    H218466   2.666   3.622   3.950
 6168TIP3   OH218467   1.698   2.187   4.636
 6168TIP3    H118468   1.663   2.168   4.723
 6168TIP3    H218469   1.746   2.269   4.646
 6169TIP3   OH218470   1.011   0.763   3.852
 6169TIP3    H118471   1.057   0.818   3.788
 6169TIP3    H218472   0.980   0.688   3.801
 6170TIP3   OH218473   5.393   5.109   3.250
 6170TIP3    H118474   5.341   5.081   3.326
 6170TIP3    H218475   5.389   5.034   3.190
 6171TIP3   OH218476   5.010   5.590   1.132
 6171TIP3    H118477   5.026   5.543   1.214
 6171TIP3    H218478   4.950   5.660   1.156
 6172TIP3   OH218479   6.539   2.514   5.088
 6172TIP3    H118480   6.554   2.554   5.002
 6172TIP3    H218481   6.568   2.424   5.079
 6173TIP3   OH218482   6.657   0.037   4.847
 6173TIP3    H118483   6.702  -0.033   4.894
 6173TIP3    H218484   6.695   0.118   4.880
 6174TIP3   OH218485   5.677  -0.014   2.080
 6174TIP3    H118486   5.726  -0.001   1.998
 6174TIP3    H218487   5.737   0.015   2.149
 6175TIP3   OH218488   2.114   0.640   2.394
 6175TIP3    H118489   2.151   0.570   2.340
 6175TIP3    H218490   2.121   0.719   2.341
 6176TIP3   OH218491   2.227   5.232   4.927
 6176TIP3    H118492   2.259   5.302   4.984
 6176TIP3    H218493   2.132   5.248   4.921
 6177TIP3   OH218494   4.286   4.053   2.173
 6177TIP3    H118495   4.301   4.058   2.267
 6177TIP3    H218496   4.356   4.105   2.134
 6178TIP3   OH218497   2.284   3.027   4.999
 6178TIP3    H118498   2.329   2.972   4.936
 6178TIP3    H218499   2.191   3.018   4.977
 6179TIP3   OH218500   6.078   1.831   1.591
 6179TIP3    H118501   6.064   1.738   1.575
 6179TIP3    H218502   6.041   1.846   1.678
 6180TIP3   OH218503   2.016   4.392   0.257
 6180TIP3    H118504   2.043   4.325   0.194
 6180TIP3    H218505   1.985   4.342   0.333
 6181TIP3   OH218506   5.853   6.315   4.309
 6181TIP3    H118507   5.809   6.324   4.224
 6181TIP3    H218508   5.865   6.405   4.339
 6182TIP3   OH218509   3.943   5.782   1.109
 6182TIP3    H118510   3.926   5.780   1.204
 6182TIP3    H218511   4.034   5.751   1.102
 6183TIP3   OH218512   3.613   2.747   1.282
 6183TIP3    H118513   3.700   2.787   1.288
 6183TIP3    H218514   3.607   2.690   1.358
 6184TIP3   OH218515   2.701   3.736   4.285
 6184TIP3    H118516   2.795   3.737   4.303
 6184TIP3    H218517   2.695   3.726   4.190
 6185TIP3   OH218518   1.632   1.002   2.969
 6185TIP3    H118519   1.714   1.019   2.923
 6185TIP3    H218520   1.565   1.049   2.919
 6186TIP3   OH218521   2.864   5.358   0.006
 6186TIP3    H118522   2.883   5.379   0.097
 6186TIP3    H218523   2.938   5.393  -0.044
 6187TIP3   OH218524   3.125   1.456   4.553
 6187TIP3    H118525   3.217   1.442   4.576
 6187TIP3    H218526   3.077   1.396   4.611
 6188TIP3   OH218527   6.975   5.370   0.961
 6188TIP3    H118528   7.066   5.362   0.988
 6188TIP3    H218529   6.977   5.432   0.888
 6189TIP3   OH218530   3.166   4.677   4.983
 6189TIP3    H118531   3.198   4.587   4.977
 6189TIP3    H218532   3.240   4.731   4.957
 6190TIP3   OH218533   0.756   0.041   4.838
 6190TIP3    H118534   0.797   0.125   4.860
 6190TIP3    H218535   0.666   0.064   4.814
 6191TIP3   OH218536   1.862   1.826   1.828
 6191TIP3    H118537   1.859   1.768   1.751
 6191TIP3    H218538   1.892   1.910   1.794
 6192TIP3   OH218539   0.684   2.272   1.970
 6192TIP3    H118540   0.603   2.269   2.021
 6192TIP3    H218541   0.665   2.329   1.896
 6193TIP3   OH218542   1.264   4.444   2.402
 6193TIP3    H118543   1.254   4.538   2.420
 6193TIP3    H218544   1.190   4.422   2.346
 6194TIP3   OH218545   3.413   3.172   3.978
 6194TIP3    H118546   3.507   3.187   3.966
 6194TIP3    H218547   3.380   3.151   3.891
 6195TIP3   OH218548   1.775   3.734   5.266
 6195TIP3    H118549   1.708   3.751   5.332
 6195TIP3    H218550   1.731   3.679   5.201
 6196TIP3   OH218551   3.936   0.853   2.785
 6196TIP3    H118552   3.866   0.870   2.721
 6196TIP3    H218553   4.014   0.837   2.731
 6197TIP3   OH218554   0.046   5.905   4.086
 6197TIP3    H118555   0.139   5.925   4.071
 6197TIP3    H218556   0.000   5.953   4.018
 6198TIP3   OH218557   5.699   5.770   3.057
 6198TIP3    H118558   5.620   5.740   3.102
 6198TIP3    H218559   5.711   5.861   3.087
 6199TIP3   OH218560   0.650   3.539   0.195
 6199TIP3    H118561   0.719   3.516   0.132
 6199TIP3    H218562   0.673   3.628   0.224
 6200TIP3   OH218563   5.856   0.413   4.549
 6200TIP3    H118564   5.909   0.492   4.539
 6200TIP3    H218565   5.785   0.424   4.486
 6201TIP3   OH218566   4.052   3.434   0.598
 6201TIP3    H118567   4.138   3.425   0.558
 6201TIP3    H218568   4.053   3.520   0.641
 6202TIP3   OH218569   7.217   6.477   2.226
 6202TIP3    H118570   7.196   6.550   2.283
 6202TIP3    H218571   7.237   6.405   2.286
 6203TIP3   OH218572   0.941   0.689   4.284
 6203TIP3    H118573   0.906   0.675   4.372
 6203TIP3    H218574   0.981   0.606   4.260
 6204TIP3   OH218575   4.873   3.683   2.929
 6204TIP3    H118576   4.868   3.638   2.845
 6204TIP3    H218577   4.895   3.773   2.907
 6205TIP3   OH218578   4.470   3.213   5.200
 6205TIP3    H118579   4.397   3.215   5.262
 6205TIP3    H218580   4.516   3.132   5.220
 6206TIP3   OH218581   3.251   2.485   0.106
 6206TIP3    H118582   3.286   2.554   0.161
 6206TIP3    H218583   3.161   2.511   0.089
 6207TIP3   OH218584   6.959   2.214   4.309
 6207TIP3    H118585   6.930   2.158   4.381
 6207TIP3    H218586   6.913   2.297   4.323
 6208TIP3   OH218587   6.290   3.774   3.481
 6208TIP3    H118588   6.236   3.731   3.415
 6208TIP3    H218589   6.238   3.768   3.562
 6209TIP3   OH218590   6.932   5.939   1.220
 6209TIP3    H118591   6.947   6.014   1.163
 6209TIP3    H218592   7.020   5.907   1.242
 6210TIP3   OH218593   5.716   3.922   1.604
 6210TIP3    H118594   5.792   3.932   1.661
 6210TIP3    H218595   5.679   4.010   1.597
 6211TIP3   OH218596   6.100   6.580   4.596
 6211TIP3    H118597   6.162   6.514   4.626
 6211TIP3    H218598   6.016   6.552   4.633
 6212TIP3   OH218599   4.730   0.409   0.311
 6212TIP3    H118600   4.687   0.347   0.370
 6212TIP3    H218601   4.758   0.356   0.236
 6213TIP3   OH218602   5.325   1.428   5.156
 6213TIP3    H118603   5.362   1.461   5.074
 6213TIP3    H218604   5.376   1.350   5.176
 6214TIP3   OH218605   0.902   0.362   4.417
 6214TIP3    H118606   0.855   0.383   4.336
 6214TIP3    H218607   0.890   0.268   4.427
 6215TIP3   OH218608   0.730   3.260   3.269
 6215TIP3    H118609   0.768   3.346   3.287
 6215TIP3    H218610   0.752   3.243   3.177
 6216TIP3   OH218611   3.450   2.455   4.218
 6216TIP3    H118612   3.398   2.410   4.284
 6216TIP3    H218613   3.511   2.389   4.186
 6217TIP3   OH218614   1.737   4.029   5.707
 6217TIP3    H118615   1.791   4.043   5.785
 6217TIP3    H218616   1.758   4.103   5.650
 6218TIP3   OH218617   1.823   1.366   1.003
 6218TIP3    H118618   1.832   1.314   0.923
 6218TIP3    H218619   1.853   1.308   1.073
 6219TIP3   OH218620   5.398   6.455   1.565
 6219TIP3    H118621   5.475   6.511   1.557
 6219TIP3    H218622   5.325   6.516   1.576
 6220TIP3   OH218623   5.384   4.931   2.114
 6220TIP3    H118624   5.291   4.912   2.127
 6220TIP3    H218625   5.385   5.019   2.076
 6221TIP3   OH218626   2.033   0.253   0.937
 6221TIP3    H118627   2.072   0.176   0.896
 6221TIP3    H218628   2.074   0.327   0.892
 6222TIP3   OH218629   3.674   1.942   5.233
 6222TIP3    H118630   3.734   1.953   5.307
 6222TIP3    H218631   3.587   1.953   5.271
 6223TIP3   OH218632   4.681   2.580   3.427
 6223TIP3    H118633   4.710   2.566   3.517
 6223TIP3    H218634   4.640   2.498   3.402
 6224TIP3   OH218635   3.033   2.449   0.659
 6224TIP3    H118636   3.123   2.442   0.627
 6224TIP3    H218637   2.988   2.374   0.621
 6225TIP3   OH218638   1.979   6.091   4.536
 6225TIP3    H118639   2.010   6.175   4.503
 6225TIP3    H218640   2.046   6.028   4.510
 6226TIP3   OH218641   1.455   1.272   1.818
 6226TIP3    H118642   1.538   1.238   1.853
 6226TIP3    H218643   1.403   1.293   1.895
 6227TIP3   OH218644   4.390   6.748   5.880
 6227TIP3    H118645   4.369   6.822   5.936
 6227TIP3    H218646   4.307   6.701   5.871
 6228TIP3   OH218647   0.959   2.782   0.997
 6228TIP3    H118648   1.038   2.835   1.011
 6228TIP3    H218649   0.991   2.704   0.952
 6229TIP3   OH218650   3.302   1.024   5.396
 6229TIP3    H118651   3.246   1.055   5.466
 6229TIP3    H218652   3.362   0.963   5.438
 6230TIP3   OH218653   5.495   1.177   3.575
 6230TIP3    H118654   5.560   1.245   3.560
 6230TIP3    H218655   5.505   1.152   3.667
 6231TIP3   OH218656   4.338   2.071   3.151
 6231TIP3    H118657   4.295   1.995   3.190
 6231TIP3    H218658   4.280   2.144   3.169
 6232TIP3   OH218659   3.659   4.446   5.138
 6232TIP3    H118660   3.588   4.408   5.086
 6232TIP3    H218661   3.619   4.464   5.223
 6233TIP3   OH218662   2.352   2.683   5.108
 6233TIP3    H118663   2.422   2.695   5.044
 6233TIP3    H218664   2.329   2.772   5.135
 6234TIP3   OH218665   6.955   3.424   3.459
 6234TIP3    H118666   7.040   3.400   3.496
 6234TIP3    H218667   6.930   3.504   3.506
 6235TIP3   OH218668   6.127   6.564   2.049
 6235TIP3    H118669   6.190   6.606   1.990
 6235TIP3    H218670   6.180   6.501   2.099
 6236TIP3   OH218671   5.468   5.276   1.938
 6236TIP3    H118672   5.387   5.326   1.928
 6236TIP3    H218673   5.480   5.234   1.853
 6237TIP3   OH218674   5.457   0.625   3.613
 6237TIP3    H118675   5.459   0.712   3.652
 6237TIP3    H218676   5.548   0.596   3.615
 6238TIP3   OH218677   3.569   5.095   1.356
 6238TIP3    H118678   3.571   5.182   1.315
 6238TIP3    H218679   3.558   5.114   1.450
 6239TIP3   OH218680   1.913   5.431   0.348
 6239TIP3    H118681   1.893   5.434   0.442
 6239TIP3    H218682   1.835   5.467   0.306
 6240TIP3   OH218683   5.344   6.294   0.892
 6240TIP3    H118684   5.284   6.367   0.908
 6240TIP3    H218685   5.393   6.285   0.974
 6241TIP3   OH218686   0.089   4.431   3.172
 6241TIP3    H118687   0.137   4.393   3.246
 6241TIP3    H218688   0.063   4.518   3.203
 6242TIP3   OH218689   3.837   5.324   0.163
 6242TIP3    H118690   3.882   5.271   0.098
 6242TIP3    H218691   3.751   5.282   0.173
 6243TIP3   OH218692   3.053   2.738   1.985
 6243TIP3    H118693   3.132   2.701   1.944
 6243TIP3    H218694   2.987   2.736   1.916
 6244TIP3   OH218695   3.843   6.676   0.570
 6244TIP3    H118696   3.835   6.581   0.563
 6244TIP3    H218697   3.754   6.709   0.562
 6245TIP3   OH218698   3.903   3.291   5.872
 6245TIP3    H118699   3.835   3.343   5.828
 6245TIP3    H218700   3.867   3.273   5.958
 6246TIP3   OH218701   3.945   3.253   3.416
 6246TIP3    H118702   4.031   3.240   3.457
 6246TIP3    H218703   3.912   3.333   3.455
 6247TIP3   OH218704   3.833   0.827   4.794
 6247TIP3    H118705   3.803   0.772   4.867
 6247TIP3    H218706   3.769   0.899   4.792
 6248TIP3   OH218707   1.484   0.281   3.711
 6248TIP3    H118708   1.434   0.292   3.630
 6248TIP3    H218709   1.570   0.318   3.691
 6249TIP3   OH218710   2.066   0.552   3.121
 6249TIP3    H118711   2.137   0.554   3.184
 6249TIP3    H218712   1.992   0.593   3.166
 6250TIP3   OH218713   5.316   0.900   5.600
 6250TIP3    H118714   5.343   0.951   5.676
 6250TIP3    H218715   5.229   0.866   5.623
 6251TIP3   OH218716   1.197   3.159   1.495
 6251TIP3    H118717   1.130   3.185   1.432
 6251TIP3    H218718   1.269   3.126   1.442
 6252TIP3   OH218719   2.070   3.937   4.686
 6252TIP3    H118720   2.059   3.921   4.780
 6252TIP3    H218721   2.146   3.883   4.662
 6253TIP3   OH218722   0.289   0.495   1.947
 6253TIP3    H118723   0.311   0.524   1.858
 6253TIP3    H218724   0.294   0.399   1.943
 6254TIP3   OH218725   1.890   4.098   2.860
 6254TIP3    H118726   1.902   4.086   2.766
 6254TIP3    H218727   1.967   4.057   2.899
 6255TIP3   OH218728   6.241   4.743   5.257
 6255TIP3    H118729   6.180   4.786   5.317
 6255TIP3    H218730   6.328   4.759   5.294
 6256TIP3   OH218731   1.168   0.963   0.997
 6256TIP3    H118732   1.112   1.000   1.066
 6256TIP3    H218733   1.108   0.941   0.927
 6257TIP3   OH218734   3.824   1.729   1.935
 6257TIP3    H118735   3.918   1.714   1.923
 6257TIP3    H218736   3.801   1.790   1.865
 6258TIP3   OH218737   4.455   0.190   2.280
 6258TIP3    H118738   4.360   0.180   2.292
 6258TIP3    H218739   4.465   0.210   2.187
 6259TIP3   OH218740   0.172   1.684   0.915
 6259TIP3    H118741   0.185   1.624   0.989
 6259TIP3    H218742   0.090   1.729   0.934
 6260TIP3   OH218743   3.937   1.801   5.513
 6260TIP3    H118744   3.997   1.875   5.508
 6260TIP3    H218745   3.940   1.763   5.425
 6261TIP3   OH218746   0.987   5.174   2.526
 6261TIP3    H118747   0.983   5.175   2.621
 6261TIP3    H218748   1.074   5.208   2.505
 6262TIP3   OH218749   1.539   6.219   1.694
 6262TIP3    H118750   1.599   6.255   1.759
 6262TIP3    H218751   1.594   6.201   1.618
 6263TIP3   OH218752   0.892   5.952   3.231
 6263TIP3    H118753   0.936   5.867   3.243
 6263TIP3    H218754   0.919   6.004   3.307
 6264TIP3   OH218755   5.245   4.610   3.906
 6264TIP3    H118756   5.223   4.678   3.842
 6264TIP3    H218757   5.180   4.621   3.975
 6265TIP3   OH218758   2.455   6.813   0.651
 6265TIP3    H118759   2.418   6.813   0.563
 6265TIP3    H218760   2.544   6.847   0.639
 6266TIP3   OH218761   2.031   6.622   3.095
 6266TIP3    H118762   1.992   6.536   3.081
 6266TIP3    H218763   1.987   6.657   3.172
 6267TIP3   OH218764   3.030   2.821   0.668
 6267TIP3    H118765   3.106   2.858   0.623
 6267TIP3    H218766   3.067   2.770   0.740
 6268TIP3   OH218767   3.428   1.861   0.739
 6268TIP3    H118768   3.471   1.868   0.654
 6268TIP3    H218769   3.347   1.910   0.730
 6269TIP3   OH218770   0.921   3.440   0.441
 6269TIP3    H118771   0.923   3.500   0.366
 6269TIP3    H218772   0.881   3.490   0.511
 6270TIP3   OH218773   0.609   2.014   0.967
 6270TIP3    H118774   0.571   1.931   0.936
 6270TIP3    H218775   0.541   2.079   0.949
 6271TIP3   OH218776   5.448   3.470   0.193
 6271TIP3    H118777   5.403   3.423   0.123
 6271TIP3    H218778   5.536   3.487   0.158
 6272TIP3   OH218779   0.121   2.896   5.508
 6272TIP3    H118780   0.029   2.904   5.532
 6272TIP3    H218781   0.121   2.834   5.435
 6273TIP3   OH218782   0.449   6.513   1.311
 6273TIP3    H118783   0.432   6.505   1.405
 6273TIP3    H218784   0.538   6.481   1.300
 6274TIP3   OH218785   0.320   3.372   2.570
 6274TIP3    H118786   0.305   3.336   2.657
 6274TIP3    H218787   0.286   3.462   2.575
 6275TIP3   OH218788   6.668   1.081   2.857
 6275TIP3    H118789   6.692   1.171   2.877
 6275TIP3    H218790   6.732   1.053   2.792
 6276TIP3   OH218791   2.330   4.639   0.994
 6276TIP3    H118792   2.395   4.598   0.937
 6276TIP3    H218793   2.249   4.637   0.943
 6277TIP3   OH218794   0.172   2.387   3.592
 6277TIP3    H118795   0.077   2.389   3.578
 6277TIP3    H218796   0.197   2.296   3.576
 6278TIP3   OH218797   5.787   1.271   4.385
 6278TIP3    H118798   5.774   1.364   4.370
 6278TIP3    H218799   5.827   1.266   4.472
 6279TIP3   OH218800   4.470   4.075   3.236
 6279TIP3    H118801   4.509   3.997   3.275
 6279TIP3    H218802   4.527   4.147   3.264
 6280TIP3   OH218803   3.401   3.659   5.506
 6280TIP3    H118804   3.327   3.716   5.488
 6280TIP3    H218805   3.476   3.703   5.466
 6281TIP3   OH218806   2.370   1.929   5.638
 6281TIP3    H118807   2.415   1.855   5.678
 6281TIP3    H218808   2.342   1.983   5.712
 6282TIP3   OH218809   2.444   3.779   4.043
 6282TIP3    H118810   2.533   3.801   4.069
 6282TIP3    H218811   2.420   3.705   4.098
 6283TIP3   OH218812   0.834   4.281   2.676
 6283TIP3    H118813   0.783   4.313   2.601
 6283TIP3    H218814   0.810   4.340   2.747
 6284TIP3   OH218815   0.439   3.888   1.760
 6284TIP3    H118816   0.436   3.792   1.751
 6284TIP3    H218817   0.356   3.910   1.802
 6285TIP3   OH218818   4.016   0.912   0.384
 6285TIP3    H118819   4.105   0.941   0.403
 6285TIP3    H218820   4.027   0.830   0.336
 6286TIP3   OH218821   5.370   2.624   2.234
 6286TIP3    H118822   5.331   2.536   2.228
 6286TIP3    H218823   5.395   2.646   2.145
 6287TIP3   OH218824   5.784   3.851   5.513
 6287TIP3    H118825   5.859   3.843   5.455
 6287TIP3    H218826   5.745   3.936   5.490
 6288TIP3   OH218827   3.551   2.976   5.013
 6288TIP3    H118828   3.459   2.954   5.027
 6288TIP3    H218829   3.594   2.954   5.096
 6289TIP3   OH218830   5.261   3.910   3.291
 6289TIP3    H118831   5.326   3.978   3.311
 6289TIP3    H218832   5.270   3.846   3.361
 6290TIP3   OH218833   5.123   2.271   1.162
 6290TIP3    H118834   5.091   2.343   1.216
 6290TIP3    H218835   5.175   2.217   1.222
 6291TIP3   OH218836   6.757   3.093   4.634
 6291TIP3    H118837   6.710   3.176   4.636
 6291TIP3    H218838   6.844   3.114   4.667
 6292TIP3   OH218839   5.129   3.780   0.407
 6292TIP3    H118840   5.189   3.718   0.448
 6292TIP3    H218841   5.161   3.866   0.432
 6293TIP3   OH218842   4.072   4.274   3.741
 6293TIP3    H118843   4.163   4.293   3.720
 6293TIP3    H218844   4.073   4.186   3.778
 6294TIP3   OH218845   1.710   1.626   3.866
 6294TIP3    H118846   1.669   1.694   3.918
 6294TIP3    H218847   1.799   1.657   3.850
 6295TIP3   OH218848   0.487   4.305   0.706
 6295TIP3    H118849   0.531   4.263   0.780
 6295TIP3    H218850   0.558   4.341   0.653
 6296TIP3   OH218851   1.548   3.348   0.127
 6296TIP3    H118852   1.532   3.412   0.058
 6296TIP3    H218853   1.494   3.378   0.200
 6297TIP3   OH218854   5.790   0.931   3.514
 6297TIP3    H118855   5.729   0.888   3.454
 6297TIP3    H218856   5.778   1.024   3.498
 6298TIP3   OH218857   0.437   4.031   3.242
 6298TIP3    H118858   0.521   4.077   3.236
 6298TIP3    H218859   0.461   3.941   3.265
 6299TIP3   OH218860   6.362   0.134   2.220
 6299TIP3    H118861   6.410   0.157   2.140
 6299TIP3    H218862   6.428   0.093   2.276
 6300TIP3   OH218863   5.609   2.846   2.846
 6300TIP3    H118864   5.655   2.911   2.900
 6300TIP3    H218865   5.523   2.838   2.887
 6301TIP3   OH218866   0.288   3.619   0.608
 6301TIP3    H118867   0.258   3.558   0.540
 6301TIP3    H218868   0.211   3.634   0.663
 6302TIP3   OH218869   5.336   0.429   5.249
 6302TIP3    H118870   5.247   0.395   5.243
 6302TIP3    H218871   5.328   0.505   5.307
 6303TIP3   OH218872   4.939   0.557   3.334
 6303TIP3    H118873   4.854   0.538   3.375
 6303TIP3    H218874   4.919   0.624   3.268
 6304TIP3   OH218875   0.545   1.001   2.774
 6304TIP3    H118876   0.455   0.968   2.767
 6304TIP3    H218877   0.552   1.033   2.863
 6305TIP3   OH218878   2.624   4.769   4.625
 6305TIP3    H118879   2.689   4.704   4.650
 6305TIP3    H218880   2.544   4.741   4.670
 6306TIP3   OH218881   6.043   4.890   4.099
 6306TIP3    H118882   6.047   4.836   4.020
 6306TIP3    H218883   6.109   4.958   4.084
 6307TIP3   OH218884   2.928   5.502   5.755
 6307TIP3    H118885   2.883   5.562   5.814
 6307TIP3    H218886   2.898   5.415   5.782
 6308TIP3   OH218887   4.568   4.810   2.655
 6308TIP3    H118888   4.498   4.875   2.667
 6308TIP3    H218889   4.603   4.796   2.743
 6309TIP3   OH218890   2.921   4.658   4.757
 6309TIP3    H118891   2.861   4.585   4.771
 6309TIP3    H218892   2.986   4.623   4.697
 6310TIP3   OH218893   6.851   3.593   5.525
 6310TIP3    H118894   6.802   3.527   5.477
 6310TIP3    H218895   6.787   3.633   5.584
 6311TIP3   OH218896   4.805   5.729   3.365
 6311TIP3    H118897   4.838   5.705   3.279
 6311TIP3    H218898   4.818   5.823   3.371
 6312TIP3   OH218899   3.629   2.232   4.172
 6312TIP3    H118900   3.688   2.205   4.243
 6312TIP3    H218901   3.594   2.150   4.138
 6313TIP3   OH218902   0.382   2.040   2.389
 6313TIP3    H118903   0.362   2.097   2.463
 6313TIP3    H218904   0.330   2.075   2.317
 6314TIP3   OH218905   0.784   3.532   2.936
 6314TIP3    H118906   0.878   3.533   2.918
 6314TIP3    H218907   0.777   3.561   3.027
 6315TIP3   OH218908   5.503   2.775   4.947
 6315TIP3    H118909   5.481   2.697   4.998
 6315TIP3    H218910   5.534   2.741   4.863
 6316TIP3   OH218911   5.719   2.438   2.485
 6316TIP3    H118912   5.630   2.414   2.460
 6316TIP3    H218913   5.729   2.404   2.573
 6317TIP3   OH218914   6.708   2.597   4.720
 6317TIP3    H118915   6.720   2.682   4.762
 6317TIP3    H218916   6.614   2.581   4.726
 6318TIP3   OH218917   1.322   1.672   0.107
 6318TIP3    H118918   1.235   1.654   0.070
 6318TIP3    H218919   1.352   1.750   0.062
 6319TIP3   OH218920   3.742   1.739   3.486
 6319TIP3    H118921   3.798   1.751   3.409
 6319TIP3    H218922   3.683   1.815   3.486
 6320TIP3   OH218923   5.695   4.113   5.550
 6320TIP3    H118924   5.714   4.202   5.578
 6320TIP3    H218925   5.679   4.065   5.631
 6321TIP3   OH218926   4.481   3.076   2.103
 6321TIP3    H118927   4.461   3.154   2.155
 6321TIP3    H218928   4.396   3.046   2.070
 6322TIP3   OH218929   2.530   0.272   4.467
 6322TIP3    H118930   2.544   0.278   4.562
 6322TIP3    H218931   2.438   0.294   4.454
 6323TIP3   OH218932   0.447   0.400   1.704
 6323TIP3    H118933   0.361   0.387   1.663
 6323TIP3    H218934   0.509   0.364   1.641
 6324TIP3   OH218935   3.435   3.152   2.413
 6324TIP3    H118936   3.424   3.170   2.320
 6324TIP3    H218937   3.497   3.080   2.416
 6325TIP3   OH218938   4.172   6.475   2.403
 6325TIP3    H118939   4.138   6.457   2.315
 6325TIP3    H218940   4.194   6.388   2.437
 6326TIP3   OH218941   6.213   2.603   5.876
 6326TIP3    H118942   6.203   2.690   5.839
 6326TIP3    H218943   6.279   2.613   5.944
 6327TIP3   OH218944   1.984   1.054   3.789
 6327TIP3    H118945   2.047   0.983   3.779
 6327TIP3    H218946   2.016   1.122   3.730
 6328TIP3   OH218947   5.596   3.628   1.162
 6328TIP3    H118948   5.616   3.665   1.248
 6328TIP3    H218949   5.624   3.696   1.100
 6329TIP3   OH218950   3.134   6.192   4.453
 6329TIP3    H118951   3.174   6.130   4.391
 6329TIP3    H218952   3.098   6.137   4.522
 6330TIP3   OH218953   4.556   3.714   5.800
 6330TIP3    H118954   4.546   3.762   5.718
 6330TIP3    H218955   4.524   3.626   5.781
 6331TIP3   OH218956   1.281   4.721   2.454
 6331TIP3    H118957   1.305   4.730   2.362
 6331TIP3    H218958   1.313   4.801   2.495
 6332TIP3   OH218959   1.896   2.204   0.682
 6332TIP3    H118960   1.837   2.143   0.638
 6332TIP3    H218961   1.927   2.262   0.612
 6333TIP3   OH218962   4.942   3.097   5.313
 6333TIP3    H118963   4.994   3.175   5.331
 6333TIP3    H218964   4.996   3.045   5.254
 6334TIP3   OH218965   4.767   3.817   1.127
 6334TIP3    H118966   4.769   3.912   1.137
 6334TIP3    H218967   4.844   3.786   1.175
 6335TIP3   OH218968   0.788   2.289   0.078
 6335TIP3    H118969   0.777   2.337  -0.003
 6335TIP3    H218970   0.765   2.352   0.147
 6336TIP3   OH218971   0.931   1.584   1.270
 6336TIP3    H118972   0.933   1.526   1.194
 6336TIP3    H218973   0.995   1.652   1.251
 6337TIP3   OH218974   0.518   5.221   3.967
 6337TIP3    H118975   0.527   5.260   3.880
 6337TIP3    H218976   0.561   5.284   4.026
 6338TIP3   OH218977   3.875   4.810   2.337
 6338TIP3    H118978   3.780   4.816   2.344
 6338TIP3    H218979   3.896   4.723   2.369
 6339TIP3   OH218980   3.147   0.414   5.799
 6339TIP3    H118981   3.233   0.387   5.769
 6339TIP3    H218982   3.163   0.468   5.876
 6340TIP3   OH218983   2.422   1.747   1.244
 6340TIP3    H118984   2.424   1.688   1.319
 6340TIP3    H218985   2.337   1.730   1.203
 6341TIP3   OH218986   6.869   0.732   3.192
 6341TIP3    H118987   6.938   0.785   3.152
 6341TIP3    H218988   6.911   0.688   3.266
 6342TIP3   OH218989   5.980   5.777   1.892
 6342TIP3    H118990   5.957   5.805   1.981
 6342TIP3    H218991   6.067   5.739   1.901
 6343TIP3   OH218992   3.353   0.956   0.374
 6343TIP3    H118993   3.334   1.049   0.380
 6343TIP3    H218994   3.288   0.915   0.432
 6344TIP3   OH218995   3.939   6.174   2.565
 6344TIP3    H118996   3.953   6.080   2.553
 6344TIP3    H218997   4.017   6.215   2.528
 6345TIP3   OH218998   3.153   0.652   2.669
 6345TIP3    H118999   3.099   0.578   2.695
 6345TIP3    H219000   3.230   0.646   2.725
 6346TIP3   OH219001   0.298   2.833   1.680
 6346TIP3    H119002   0.288   2.799   1.591
 6346TIP3    H219003   0.359   2.773   1.722
 6347TIP3   OH219004   5.999   6.801   3.903
 6347TIP3    H119005   6.062   6.774   3.837
 6347TIP3    H219006   6.029   6.759   3.984
 6348TIP3   OH219007   1.551   3.210   2.095
 6348TIP3    H119008   1.543   3.263   2.016
 6348TIP3    H219009   1.480   3.146   2.089
 6349TIP3   OH219010   2.696   1.049   2.828
 6349TIP3    H119011   2.761   1.047   2.898
 6349TIP3    H219012   2.717   1.129   2.779
 6350TIP3   OH219013   5.807   1.862   0.396
 6350TIP3    H119014   5.818   1.944   0.445
 6350TIP3    H219015   5.870   1.802   0.435
 6351TIP3   OH219016   3.991   0.723   1.656
 6351TIP3    H119017   4.066   0.729   1.596
 6351TIP3    H219018   3.993   0.806   1.704
 6352TIP3   OH219019   0.911   2.292   2.166
 6352TIP3    H119020   0.940   2.378   2.195
 6352TIP3    H219021   0.856   2.260   2.237
 6353TIP3   OH219022   3.123   3.254   0.883
 6353TIP3    H119023   3.067   3.329   0.863
 6353TIP3    H219024   3.063   3.181   0.892
 6354TIP3   OH219025   4.720   6.227   0.383
 6354TIP3    H119026   4.641   6.173   0.377
 6354TIP3    H219027   4.775   6.196   0.311
 6355TIP3   OH219028   3.631   5.549   2.064
 6355TIP3    H119029   3.675   5.464   2.060
 6355TIP3    H219030   3.597   5.555   2.153
 6356TIP3   OH219031   4.160   3.016   2.482
 6356TIP3    H119032   4.148   3.025   2.387
 6356TIP3    H219033   4.228   3.080   2.503
 6357TIP3   OH219034   4.779   2.040   4.134
 6357TIP3    H119035   4.737   1.955   4.119
 6357TIP3    H219036   4.719   2.104   4.097
 6358TIP3   OH219037   0.581   3.335   5.180
 6358TIP3    H119038   0.532   3.257   5.204
 6358TIP3    H219039   0.515   3.396   5.148
 6359TIP3   OH219040   0.745   0.097   4.049
 6359TIP3    H119041   0.826   0.133   4.015
 6359TIP3    H219042   0.676   0.145   4.003
 6360TIP3   OH219043   6.972   4.345   2.406
 6360TIP3    H119044   7.013   4.320   2.489
 6360TIP3    H219045   6.893   4.291   2.401
 6361TIP3   OH219046   5.547   0.256   5.811
 6361TIP3    H119047   5.606   0.181   5.812
 6361TIP3    H219048   5.589   0.319   5.752
 6362TIP3   OH219049   0.213   0.460   3.854
 6362TIP3    H119050   0.209   0.527   3.922
 6362TIP3    H219051   0.121   0.437   3.838
 6363TIP3   OH219052   3.612   3.870   2.361
 6363TIP3    H119053   3.557   3.793   2.348
 6363TIP3    H219054   3.669   3.847   2.435
 6364TIP3   OH219055   1.934   2.285   0.953
 6364TIP3    H119056   1.924   2.253   0.864
 6364TIP3    H219057   1.862   2.347   0.964
 6365TIP3   OH219058   3.001   0.855   4.615
 6365TIP3    H119059   2.933   0.830   4.677
 6365TIP3    H219060   2.961   0.923   4.562
 6366TIP3   OH219061   5.497   5.814   2.033
 6366TIP3    H119062   5.538   5.759   1.966
 6366TIP3    H219063   5.403   5.807   2.014
 6367TIP3   OH219064   5.203   5.364   1.957
 6367TIP3    H119065   5.138   5.305   1.919
 6367TIP3    H219066   5.203   5.441   1.900
 6368TIP3   OH219067   0.629   2.245   4.939
 6368TIP3    H119068   0.579   2.204   4.868
 6368TIP3    H219069   0.672   2.171   4.983
 6369TIP3   OH219070   2.225   5.466   5.861
 6369TIP3    H119071   2.183   5.468   5.775
 6369TIP3    H219072   2.158   5.429   5.919
 6370TIP3   OH219073   1.841   4.508   2.959
 6370TIP3    H119074   1.878   4.551   2.881
 6370TIP3    H219075   1.907   4.443   2.983
 6371TIP3   OH219076   7.008   3.137   1.399
 6371TIP3    H119077   7.071   3.087   1.450
 6371TIP3    H219078   6.950   3.177   1.464
 6372TIP3   OH219079   6.709   5.490   4.225
 6372TIP3    H119080   6.617   5.462   4.222
 6372TIP3    H219081   6.744   5.466   4.140
 6373TIP3   OH219082   1.169   0.427   4.396
 6373TIP3    H119083   1.076   0.407   4.408
 6373TIP3    H219084   1.194   0.379   4.318
 6374TIP3   OH219085   5.631   2.195   0.814
 6374TIP3    H119086   5.612   2.262   0.748
 6374TIP3    H219087   5.546   2.177   0.855
 6375TIP3   OH219088   6.268   4.348   4.636
 6375TIP3    H119089   6.265   4.253   4.626
 6375TIP3    H219090   6.191   4.369   4.688
 6376TIP3   OH219091   6.145   0.749   4.947
 6376TIP3    H119092   6.143   0.678   5.011
 6376TIP3    H219093   6.147   0.705   4.862
 6377TIP3   OH219094   4.444   0.832   0.592
 6377TIP3    H119095   4.509   0.845   0.662
 6377TIP3    H219096   4.477   0.757   0.542
 6378TIP3   OH219097   3.378   1.658   1.776
 6378TIP3    H119098   3.367   1.597   1.704
 6378TIP3    H219099   3.319   1.731   1.756
 6379TIP3   OH219100   4.139   1.330   3.030
 6379TIP3    H119101   4.233   1.315   3.030
 6379TIP3    H219102   4.118   1.353   2.939
 6380TIP3   OH219103   3.458   5.286   0.499
 6380TIP3    H119104   3.537   5.249   0.539
 6380TIP3    H219105   3.484   5.373   0.470
 6381TIP3   OH219106   4.640   5.119   2.824
 6381TIP3    H119107   4.557   5.155   2.795
 6381TIP3    H219108   4.688   5.100   2.743
 6382TIP3   OH219109   4.391   2.075   0.403
 6382TIP3    H119110   4.357   2.066   0.313
 6382TIP3    H219111   4.483   2.098   0.391
 6383TIP3   OH219112   1.462   3.984   4.271
 6383TIP3    H119113   1.515   3.969   4.192
 6383TIP3    H219114   1.374   3.954   4.247
 6384TIP3   OH219115   2.679   0.939   0.751
 6384TIP3    H119116   2.710   0.853   0.723
 6384TIP3    H219117   2.746   1.000   0.720
 6385TIP3   OH219118   2.293   0.287   2.023
 6385TIP3    H119119   2.298   0.197   2.054
 6385TIP3    H219120   2.339   0.286   1.939
 6386TIP3   OH219121   2.658   3.381   4.926
 6386TIP3    H119122   2.677   3.319   4.856
 6386TIP3    H219123   2.657   3.328   5.006
 6387TIP3   OH219124   5.437   2.844   3.651
 6387TIP3    H119125   5.353   2.800   3.665
 6387TIP3    H219126   5.487   2.826   3.730
 6388TIP3   OH219127   4.970   0.135   5.463
 6388TIP3    H119128   4.940   0.057   5.416
 6388TIP3    H219129   4.894   0.162   5.515
 6389TIP3   OH219130   6.615   4.198   5.460
 6389TIP3    H119131   6.631   4.169   5.370
 6389TIP3    H219132   6.571   4.283   5.451
 6390TIP3   OH219133   0.378   6.161   4.778
 6390TIP3    H119134   0.443   6.164   4.708
 6390TIP3    H219135   0.295   6.178   4.734
 6391TIP3   OH219136   2.757   2.799   3.341
 6391TIP3    H119137   2.784   2.890   3.342
 6391TIP3    H219138   2.773   2.769   3.252
 6392TIP3   OH219139   3.695   0.321   5.785
 6392TIP3    H119140   3.663   0.241   5.744
 6392TIP3    H219141   3.787   0.304   5.803
 6393TIP3   OH219142   1.617   1.115   0.936
 6393TIP3    H119143   1.657   1.031   0.912
 6393TIP3    H219144   1.674   1.181   0.897
 6394TIP3   OH219145   2.669   6.779   4.621
 6394TIP3    H119146   2.593   6.776   4.680
 6394TIP3    H219147   2.720   6.701   4.643
 6395TIP3   OH219148   6.424   5.465   5.052
 6395TIP3    H119149   6.332   5.481   5.030
 6395TIP3    H219150   6.421   5.403   5.125
 6396TIP3   OH219151   4.313   4.123   1.002
 6396TIP3    H119152   4.225   4.092   1.023
 6396TIP3    H219153   4.356   4.133   1.087
 6397TIP3   OH219154   2.027   2.937   4.984
 6397TIP3    H119155   2.044   2.879   5.058
 6397TIP3    H219156   2.017   2.878   4.909
 6398TIP3   OH219157   5.464   4.561   1.810
 6398TIP3    H119158   5.471   4.655   1.797
 6398TIP3    H219159   5.535   4.540   1.871
 6399TIP3   OH219160   3.196   3.449   4.387
 6399TIP3    H119161   3.240   3.403   4.459
 6399TIP3    H219162   3.213   3.541   4.404
 6400TIP3   OH219163   2.901   4.793   2.788
 6400TIP3    H119164   2.833   4.859   2.772
 6400TIP3    H219165   2.923   4.802   2.881
 6401TIP3   OH219166   2.528   0.821  -0.004
 6401TIP3    H119167   2.489   0.898   0.038
 6401TIP3    H219168   2.611   0.808   0.042
 6402TIP3   OH219169   2.335   1.199   0.640
 6402TIP3    H119170   2.412   1.255   0.630
 6402TIP3    H219171   2.362   1.115   0.606
 6403TIP3   OH219172   0.152   5.113   0.528
 6403TIP3    H119173   0.244   5.104   0.504
 6403TIP3    H219174   0.148   5.079   0.618
 6404TIP3   OH219175   5.989   0.285   1.704
 6404TIP3    H119176   5.972   0.205   1.654
 6404TIP3    H219177   5.929   0.350   1.667
 6405TIP3   OH219178   3.066   2.247   1.303
 6405TIP3    H119179   3.022   2.322   1.265
 6405TIP3    H219180   3.093   2.194   1.228
 6406TIP3   OH219181   2.423   2.866   4.069
 6406TIP3    H119182   2.472   2.921   4.008
 6406TIP3    H219183   2.490   2.816   4.116
 6407TIP3   OH219184   4.177   2.512   4.438
 6407TIP3    H119185   4.134   2.576   4.495
 6407TIP3    H219186   4.120   2.435   4.442
 6408TIP3   OH219187   1.874   2.630   1.143
 6408TIP3    H119188   1.901   2.634   1.235
 6408TIP3    H219189   1.813   2.557   1.140
 6409TIP3   OH219190   0.935   2.878   2.828
 6409TIP3    H119191   0.987   2.845   2.754
 6409TIP3    H219192   0.877   2.805   2.851
 6410TIP3   OH219193   3.892   6.213   4.294
 6410TIP3    H119194   3.861   6.132   4.334
 6410TIP3    H219195   3.848   6.215   4.208
 6411TIP3   OH219196   6.694   4.025   4.214
 6411TIP3    H119197   6.605   4.056   4.200
 6411TIP3    H219198   6.724   3.996   4.128
 6412TIP3   OH219199   3.754   1.374   2.746
 6412TIP3    H119200   3.681   1.432   2.725
 6412TIP3    H219201   3.784   1.403   2.833
 6413TIP3   OH219202   3.451   3.423   0.080
 6413TIP3    H119203   3.456   3.328   0.080
 6413TIP3    H219204   3.475   3.448   0.169
 6414TIP3   OH219205   1.364   5.359   4.885
 6414TIP3    H119206   1.408   5.423   4.829
 6414TIP3    H219207   1.283   5.403   4.911
 6415TIP3   OH219208   4.829   0.622   3.089
 6415TIP3    H119209   4.881   0.623   3.009
 6415TIP3    H219210   4.830   0.531   3.118
 6416TIP3   OH219211   5.564   2.396   0.002
 6416TIP3    H119212   5.587   2.448   0.080
 6416TIP3    H219213   5.484   2.436  -0.031
 6417TIP3   OH219214   5.493   5.696   2.286
 6417TIP3    H119215   5.505   5.614   2.238
 6417TIP3    H219216   5.503   5.764   2.219
 6418TIP3   OH219217   5.469   1.528   2.644
 6418TIP3    H119218   5.454   1.588   2.571
 6418TIP3    H219219   5.466   1.441   2.605
 6419TIP3   OH219220   5.981   2.605   4.638
 6419TIP3    H119221   5.912   2.631   4.578
 6419TIP3    H219222   6.056   2.587   4.582
 6420TIP3   OH219223   6.801   1.725   4.579
 6420TIP3    H119224   6.727   1.728   4.640
 6420TIP3    H219225   6.861   1.662   4.619
 6421TIP3   OH219226   1.830   2.072   1.168
 6421TIP3    H119227   1.900   2.008   1.179
 6421TIP3    H219228   1.864   2.134   1.103
 6422TIP3   OH219229   5.509   2.850   0.324
 6422TIP3    H119230   5.524   2.940   0.352
 6422TIP3    H219231   5.464   2.809   0.398
 6423TIP3   OH219232   3.432   5.813   0.101
 6423TIP3    H119233   3.344   5.848   0.117
 6423TIP3    H219234   3.486   5.891   0.085
 6424TIP3   OH219235   5.933   2.711   4.177
 6424TIP3    H119236   5.838   2.704   4.192
 6424TIP3    H219237   5.949   2.657   4.099
 6425TIP3   OH219238   5.489   1.358   4.164
 6425TIP3    H119239   5.536   1.440   4.150
 6425TIP3    H219240   5.556   1.291   4.162
 6426TIP3   OH219241   1.768   4.783   5.506
 6426TIP3    H119242   1.753   4.706   5.561
 6426TIP3    H219243   1.704   4.847   5.536
 6427TIP3   OH219244   6.712   4.051   3.398
 6427TIP3    H119245   6.660   4.121   3.438
 6427TIP3    H219246   6.799   4.061   3.437
 6428TIP3   OH219247   1.924   4.072   2.554
 6428TIP3    H119248   1.843   4.086   2.504
 6428TIP3    H219249   1.991   4.055   2.488
 6429TIP3   OH219250   2.997   1.431   1.905
 6429TIP3    H119251   3.051   1.386   1.841
 6429TIP3    H219252   2.986   1.519   1.869
 6430TIP3   OH219253   5.579   0.456   4.374
 6430TIP3    H119254   5.491   0.435   4.404
 6430TIP3    H219255   5.588   0.408   4.292
 6431TIP3   OH219256   3.803   0.337   0.504
 6431TIP3    H119257   3.856   0.412   0.477
 6431TIP3    H219258   3.832   0.266   0.446
 6432TIP3   OH219259   5.589   4.515   0.145
 6432TIP3    H119260   5.648   4.591   0.144
 6432TIP3    H219261   5.612   4.466   0.066
 6433TIP3   OH219262   2.018   1.849   1.483
 6433TIP3    H119263   1.942   1.799   1.454
 6433TIP3    H219264   2.035   1.911   1.412
 6434TIP3   OH219265   1.529   4.649   5.826
 6434TIP3    H119266   1.470   4.723   5.813
 6434TIP3    H219267   1.473   4.578   5.857
 6435TIP3   OH219268   5.298   1.531   4.881
 6435TIP3    H119269   5.267   1.574   4.801
 6435TIP3    H219270   5.219   1.518   4.933
 6436TIP3   OH219271   6.868   3.024   0.542
 6436TIP3    H119272   6.854   3.118   0.538
 6436TIP3    H219273   6.822   2.989   0.465
 6437TIP3   OH219274   0.098   2.926   1.873
 6437TIP3    H119275   0.088   2.897   1.782
 6437TIP3    H219276   0.178   2.884   1.903
 6438TIP3   OH219277   3.458   1.301   4.134
 6438TIP3    H119278   3.437   1.343   4.051
 6438TIP3    H219279   3.393   1.335   4.195
 6439TIP3   OH219280   1.780   5.368   5.784
 6439TIP3    H119281   1.746   5.321   5.707
 6439TIP3    H219282   1.864   5.403   5.755
 6440TIP3   OH219283   2.138   0.894   2.287
 6440TIP3    H119284   2.120   0.942   2.206
 6440TIP3    H219285   2.152   0.963   2.353
 6441TIP3   OH219286   4.977   5.010   2.934
 6441TIP3    H119287   4.984   5.086   2.992
 6441TIP3    H219288   5.048   5.021   2.871
 6442TIP3   OH219289   5.069   0.595   0.319
 6442TIP3    H119290   5.126   0.522   0.341
 6442TIP3    H219291   5.124   0.655   0.270
 6443TIP3   OH219292   0.601   3.771   2.814
 6443TIP3    H119293   0.637   3.690   2.849
 6443TIP3    H219294   0.540   3.741   2.746
 6444TIP3   OH219295   4.110   5.689   2.674
 6444TIP3    H119296   4.107   5.675   2.768
 6444TIP3    H219297   4.203   5.699   2.654
 6445TIP3   OH219298   4.379   4.623   2.745
 6445TIP3    H119299   4.453   4.675   2.716
 6445TIP3    H219300   4.387   4.621   2.841
 6446TIP3   OH219301   0.229   4.336   1.865
 6446TIP3    H119302   0.279   4.401   1.816
 6446TIP3    H219303   0.173   4.387   1.923
 6447TIP3   OH219304   2.074   4.090   4.286
 6447TIP3    H119305   1.986   4.054   4.297
 6447TIP3    H219306   2.121   4.024   4.236
 6448TIP3   OH219307   0.503   6.620   5.877
 6448TIP3    H119308   0.556   6.556   5.830
 6448TIP3    H219309   0.465   6.675   5.809
 6449TIP3   OH219310   1.762   3.933   0.584
 6449TIP3    H119311   1.847   3.971   0.610
 6449TIP3    H219312   1.781   3.841   0.566
 6450TIP3   OH219313   1.181   2.627   4.958
 6450TIP3    H119314   1.215   2.636   4.870
 6450TIP3    H219315   1.086   2.632   4.948
 6451TIP3   OH219316   0.877   6.734   0.483
 6451TIP3    H119317   0.844   6.672   0.418
 6451TIP3    H219318   0.798   6.763   0.530
 6452TIP3   OH219319   6.729   5.799   4.255
 6452TIP3    H119320   6.807   5.743   4.250
 6452TIP3    H219321   6.657   5.738   4.273
 6453TIP3   OH219322   6.749   1.410   3.445
 6453TIP3    H119323   6.783   1.457   3.522
 6453TIP3    H219324   6.730   1.322   3.477
 6454TIP3   OH219325   4.522   3.092   1.647
 6454TIP3    H119326   4.597   3.085   1.588
 6454TIP3    H219327   4.510   3.004   1.682
 6455TIP3   OH219328   5.662   3.169   1.557
 6455TIP3    H119329   5.617   3.122   1.487
 6455TIP3    H219330   5.623   3.136   1.638
 6456TIP3   OH219331   0.376   6.556   2.562
 6456TIP3    H119332   0.391   6.511   2.645
 6456TIP3    H219333   0.389   6.488   2.495
 6457TIP3   OH219334   6.049   1.035   2.133
 6457TIP3    H119335   6.003   0.973   2.189
 6457TIP3    H219336   6.086   0.982   2.062
 6458TIP3   OH219337   4.317   2.574   0.750
 6458TIP3    H119338   4.325   2.666   0.726
 6458TIP3    H219339   4.318   2.527   0.666
 6459TIP3   OH219340   1.467   5.805   3.502
 6459TIP3    H119341   1.436   5.848   3.423
 6459TIP3    H219342   1.478   5.876   3.565
 6460TIP3   OH219343   5.252   6.721   1.547
 6460TIP3    H119344   5.157   6.724   1.538
 6460TIP3    H219345   5.285   6.723   1.457
 6461TIP3   OH219346   4.229   6.798   1.438
 6461TIP3    H119347   4.135   6.783   1.438
 6461TIP3    H219348   4.254   6.790   1.530
 6462TIP3   OH219349   1.973   5.111   1.475
 6462TIP3    H119350   1.909   5.161   1.526
 6462TIP3    H219351   1.930   5.094   1.391
 6463TIP3   OH219352   6.094   4.296   4.184
 6463TIP3    H119353   6.080   4.283   4.278
 6463TIP3    H219354   6.029   4.238   4.142
 6464TIP3   OH219355   5.828   4.758   5.739
 6464TIP3    H119356   5.858   4.835   5.786
 6464TIP3    H219357   5.883   4.687   5.772
 6465TIP3   OH219358   1.095   6.402   3.133
 6465TIP3    H119359   1.113   6.463   3.061
 6465TIP3    H219360   1.169   6.413   3.193
 6466TIP3   OH219361   2.540   3.319   2.969
 6466TIP3    H119362   2.541   3.254   3.039
 6466TIP3    H219363   2.610   3.293   2.909
 6467TIP3   OH219364   4.302   5.699   3.417
 6467TIP3    H119365   4.378   5.754   3.433
 6467TIP3    H219366   4.335   5.609   3.425
 6468TIP3   OH219367   1.337   6.198   5.560
 6468TIP3    H119368   1.266   6.150   5.516
 6468TIP3    H219369   1.399   6.130   5.586
 6469TIP3   OH219370   2.362   6.295   2.074
 6469TIP3    H119371   2.404   6.268   1.993
 6469TIP3    H219372   2.428   6.348   2.119
 6470TIP3   OH219373   1.084   2.765   2.316
 6470TIP3    H119374   1.053   2.844   2.273
 6470TIP3    H219375   1.178   2.761   2.296
 6471TIP3   OH219376   0.241   2.712   4.490
 6471TIP3    H119377   0.149   2.704   4.465
 6471TIP3    H219378   0.289   2.700   4.408
 6472TIP3   OH219379   1.298   4.381   0.548
 6472TIP3    H119380   1.390   4.356   0.536
 6472TIP3    H219381   1.255   4.354   0.467
 6473TIP3   OH219382   0.307   4.977   1.522
 6473TIP3    H119383   0.315   5.031   1.443
 6473TIP3    H219384   0.258   5.032   1.583
 6474TIP3   OH219385   4.608   4.378   1.481
 6474TIP3    H119386   4.676   4.396   1.417
 6474TIP3    H219387   4.526   4.397   1.435
 6475TIP3   OH219388   1.500   6.202   1.347
 6475TIP3    H119389   1.422   6.255   1.362
 6475TIP3    H219390   1.539   6.239   1.267
 6476TIP3   OH219391   2.175   5.047   3.031
 6476TIP3    H119392   2.109   5.000   3.082
 6476TIP3    H219393   2.141   5.136   3.024
 6477TIP3   OH219394   4.188   5.864   5.691
 6477TIP3    H119395   4.252   5.794   5.701
 6477TIP3    H219396   4.172   5.868   5.597
 6478TIP3   OH219397   3.289   5.684   5.501
 6478TIP3    H119398   3.282   5.653   5.411
 6478TIP3    H219399   3.367   5.640   5.536
 6479TIP3   OH219400   4.929   2.691   4.368
 6479TIP3    H119401   4.999   2.731   4.315
 6479TIP3    H219402   4.975   2.647   4.439
 6480TIP3   OH219403   6.169   1.571   0.587
 6480TIP3    H119404   6.144   1.577   0.679
 6480TIP3    H219405   6.168   1.662   0.556
 6481TIP3   OH219406   0.599   0.714   3.054
 6481TIP3    H119407   0.676   0.769   3.061
 6481TIP3    H219408   0.525   0.773   3.071
 6482TIP3   OH219409   3.403   4.470   2.744
 6482TIP3    H119410   3.376   4.380   2.761
 6482TIP3    H219411   3.489   4.462   2.703
 6483TIP3   OH219412   6.902   1.411   2.640
 6483TIP3    H119413   6.879   1.498   2.607
 6483TIP3    H219414   6.824   1.358   2.623
 6484TIP3   OH219415   2.315   5.689   2.321
 6484TIP3    H119416   2.377   5.702   2.249
 6484TIP3    H219417   2.257   5.620   2.290
 6485TIP3   OH219418   6.082   5.613   1.528
 6485TIP3    H119419   6.126   5.662   1.458
 6485TIP3    H219420   5.994   5.650   1.530
 6486TIP3   OH219421   0.947   4.571   3.747
 6486TIP3    H119422   1.009   4.511   3.705
 6486TIP3    H219423   0.966   4.562   3.841
 6487TIP3   OH219424   2.667   2.498   5.547
 6487TIP3    H119425   2.576   2.502   5.516
 6487TIP3    H219426   2.719   2.526   5.471
 6488TIP3   OH219427   0.206   4.230   0.680
 6488TIP3    H119428   0.294   4.268   0.684
 6488TIP3    H219429   0.216   4.141   0.712
 6489TIP3   OH219430   3.694   6.324   1.814
 6489TIP3    H119431   3.604   6.319   1.844
 6489TIP3    H219432   3.730   6.237   1.829
 6490TIP3   OH219433   2.008   2.377   2.989
 6490TIP3    H119434   2.064   2.403   2.916
 6490TIP3    H219435   1.969   2.458   3.020
 6491TIP3   OH219436   2.083   1.115   4.465
 6491TIP3    H119437   2.031   1.168   4.406
 6491TIP3    H219438   2.140   1.178   4.511
 6492TIP3   OH219439   1.855   1.423   3.646
 6492TIP3    H119440   1.922   1.435   3.714
 6492TIP3    H219441   1.878   1.341   3.603
 6493TIP3   OH219442   0.612   6.284   2.321
 6493TIP3    H119443   0.702   6.305   2.298
 6493TIP3    H219444   0.561   6.360   2.292
 6494TIP3   OH219445   5.262   4.811   5.404
 6494TIP3    H119446   5.194   4.779   5.462
 6494TIP3    H219447   5.300   4.733   5.365
 6495TIP3   OH219448   3.165   2.774   0.922
 6495TIP3    H119449   3.099   2.824   0.971
 6495TIP3    H219450   3.132   2.685   0.922
 6496TIP3   OH219451   0.527   5.332   3.706
 6496TIP3    H119452   0.592   5.391   3.743
 6496TIP3    H219453   0.461   5.390   3.669
 6497TIP3   OH219454   6.638   4.338   4.976
 6497TIP3    H119455   6.563   4.278   4.978
 6497TIP3    H219456   6.605   4.419   5.015
 6498TIP3   OH219457   1.969   4.514   4.657
 6498TIP3    H119458   1.916   4.558   4.723
 6498TIP3    H219459   1.935   4.545   4.573
 6499TIP3   OH219460   3.654   1.900   0.203
 6499TIP3    H119461   3.732   1.934   0.245
 6499TIP3    H219462   3.670   1.912   0.109
 6500TIP3   OH219463   0.990   5.252   2.798
 6500TIP3    H119464   0.927   5.273   2.867
 6500TIP3    H219465   1.071   5.231   2.844
 6501TIP3   OH219466   0.272   1.029   4.572
 6501TIP3    H119467   0.299   0.961   4.510
 6501TIP3    H219468   0.351   1.080   4.587
 6502TIP3   OH219469   5.532   0.164   3.515
 6502TIP3    H119470   5.557   0.202   3.600
 6502TIP3    H219471   5.529   0.239   3.455
 6503TIP3   OH219472   5.898   1.851   2.610
 6503TIP3    H119473   5.874   1.944   2.614
 6503TIP3    H219474   5.946   1.835   2.691
 6504TIP3   OH219475   2.241   0.601   1.984
 6504TIP3    H119476   2.148   0.613   2.006
 6504TIP3    H219477   2.254   0.506   1.985
 6505TIP3   OH219478   2.712   0.660   3.741
 6505TIP3    H119479   2.777   0.709   3.792
 6505TIP3    H219480   2.764   0.599   3.688
 6506TIP3   OH219481   0.194   4.262   4.984
 6506TIP3    H119482   0.246   4.184   5.005
 6506TIP3    H219483   0.201   4.317   5.061
 6507TIP3   OH219484   1.542   3.605   5.180
 6507TIP3    H119485   1.485   3.635   5.109
 6507TIP3    H219486   1.483   3.578   5.250
 6508TIP3   OH219487   3.882   6.463   5.099
 6508TIP3    H119488   3.845   6.392   5.151
 6508TIP3    H219489   3.819   6.476   5.028
 6509TIP3   OH219490   4.579   4.533   1.880
 6509TIP3    H119491   4.588   4.591   1.804
 6509TIP3    H219492   4.561   4.447   1.842
 6510TIP3   OH219493   3.781   6.277   5.667
 6510TIP3    H119494   3.794   6.289   5.762
 6510TIP3    H219495   3.703   6.327   5.647
 6511TIP3   OH219496   3.686   4.689   2.714
 6511TIP3    H119497   3.739   4.610   2.719
 6511TIP3    H219498   3.734   4.754   2.765
 6512TIP3   OH219499   3.614   3.473   4.738
 6512TIP3    H119500   3.695   3.435   4.773
 6512TIP3    H219501   3.547   3.453   4.804
 6513TIP3   OH219502   6.067   6.417   2.726
 6513TIP3    H119503   6.119   6.342   2.698
 6513TIP3    H219504   6.041   6.396   2.816
 6514TIP3   OH219505   0.251   6.287   5.880
 6514TIP3    H119506   0.303   6.300   5.960
 6514TIP3    H219507   0.161   6.305   5.908
 6515TIP3   OH219508   5.212   5.193   0.663
 6515TIP3    H119509   5.288   5.215   0.608
 6515TIP3    H219510   5.244   5.125   0.722
 6516TIP3   OH219511   4.358   4.706   5.351
 6516TIP3    H119512   4.418   4.650   5.400
 6516TIP3    H219513   4.414   4.771   5.309
 6517TIP3   OH219514   5.678   1.165   4.108
 6517TIP3    H119515   5.747   1.195   4.167
 6517TIP3    H219516   5.688   1.070   4.105
 6518TIP3   OH219517   3.751   4.529   0.713
 6518TIP3    H119518   3.690   4.532   0.787
 6518TIP3    H219519   3.744   4.440   0.679
 6519TIP3   OH219520   3.682   5.758   0.647
 6519TIP3    H119521   3.603   5.809   0.635
 6519TIP3    H219522   3.659   5.694   0.715
 6520TIP3   OH219523   6.929   6.356   3.332
 6520TIP3    H119524   6.917   6.265   3.359
 6520TIP3    H219525   6.977   6.396   3.405
 6521TIP3   OH219526   5.134   6.303   4.065
 6521TIP3    H119527   5.094   6.389   4.080
 6521TIP3    H219528   5.095   6.247   4.132
 6522TIP3   OH219529   4.212   1.498   0.094
 6522TIP3    H119530   4.276   1.562   0.127
 6522TIP3    H219531   4.133   1.517   0.144
 6523TIP3   OH219532   1.538   3.072   0.241
 6523TIP3    H119533   1.526   3.157   0.198
 6523TIP3    H219534   1.524   3.091   0.334
 6524TIP3   OH219535   0.420   1.296   3.282
 6524TIP3    H119536   0.485   1.266   3.346
 6524TIP3    H219537   0.451   1.263   3.198
 6525TIP3   OH219538   4.973   6.770   5.044
 6525TIP3    H119539   4.938   6.802   5.127
 6525TIP3    H219540   5.008   6.683   5.065
 6526TIP3   OH219541   1.797   6.138   1.303
 6526TIP3    H119542   1.704   6.130   1.324
 6526TIP3    H219543   1.818   6.229   1.324
 6527TIP3   OH219544   2.942   2.568   0.084
 6527TIP3    H119545   2.980   2.534   0.003
 6527TIP3    H219546   2.886   2.641   0.056
 6528TIP3   OH219547   4.252   2.834   0.595
 6528TIP3    H119548   4.172   2.783   0.578
 6528TIP3    H219549   4.240   2.915   0.547
 6529TIP3   OH219550   1.684   1.966   5.270
 6529TIP3    H119551   1.625   2.031   5.308
 6529TIP3    H219552   1.759   2.017   5.238
 6530TIP3   OH219553   1.624   0.642   3.647
 6530TIP3    H119554   1.715   0.618   3.668
 6530TIP3    H219555   1.598   0.580   3.579
 6531TIP3   OH219556   0.497   3.631   0.792
 6531TIP3    H119557   0.430   3.607   0.728
 6531TIP3    H219558   0.478   3.575   0.868
 6532TIP3   OH219559   1.080   2.714   1.798
 6532TIP3    H119560   1.042   2.763   1.871
 6532TIP3    H219561   1.171   2.743   1.795
 6533TIP3   OH219562   5.392   0.469   0.975
 6533TIP3    H119563   5.324   0.431   1.031
 6533TIP3    H219564   5.411   0.554   1.014
 6534TIP3   OH219565   1.804   2.870   5.525
 6534TIP3    H119566   1.897   2.865   5.544
 6534TIP3    H219567   1.773   2.946   5.575
 6535TIP3   OH219568   4.795   3.636   2.225
 6535TIP3    H119569   4.859   3.657   2.157
 6535TIP3    H219570   4.765   3.548   2.202
 6536TIP3   OH219571   6.486   1.655   5.580
 6536TIP3    H119572   6.526   1.726   5.630
 6536TIP3    H219573   6.550   1.634   5.512
 6537TIP3   OH219574   0.690   0.764   3.471
 6537TIP3    H119575   0.709   0.680   3.429
 6537TIP3    H219576   0.692   0.745   3.564
 6538TIP3   OH219577   1.227   2.710   0.334
 6538TIP3    H119578   1.137   2.708   0.304
 6538TIP3    H219579   1.276   2.663   0.266
 6539TIP3   OH219580   5.596   0.861   1.173
 6539TIP3    H119581   5.581   0.767   1.170
 6539TIP3    H219582   5.594   0.889   1.082
 6540TIP3   OH219583   0.735   1.387   2.286
 6540TIP3    H119584   0.758   1.439   2.362
 6540TIP3    H219585   0.751   1.296   2.313
 6541TIP3   OH219586   1.332   2.793   4.479
 6541TIP3    H119587   1.238   2.810   4.480
 6541TIP3    H219588   1.348   2.752   4.395
 6542TIP3   OH219589   0.264   4.669   0.918
 6542TIP3    H119590   0.325   4.596   0.911
 6542TIP3    H219591   0.285   4.726   0.845
 6543TIP3   OH219592   1.833   3.940   1.883
 6543TIP3    H119593   1.832   3.994   1.805
 6543TIP3    H219594   1.741   3.922   1.901
 6544TIP3   OH219595   6.469   2.611   3.249
 6544TIP3    H119596   6.424   2.536   3.211
 6544TIP3    H219597   6.558   2.606   3.215
 6545TIP3   OH219598   1.530   1.764   2.908
 6545TIP3    H119599   1.493   1.817   2.979
 6545TIP3    H219600   1.617   1.738   2.940
 6546TIP3   OH219601   6.446   5.803   4.227
 6546TIP3    H119602   6.376   5.738   4.219
 6546TIP3    H219603   6.435   5.840   4.314
 6547TIP3   OH219604   6.622   0.738   1.198
 6547TIP3    H119605   6.552   0.803   1.196
 6547TIP3    H219606   6.636   0.716   1.106
 6548TIP3   OH219607   3.857   1.444   2.993
 6548TIP3    H119608   3.927   1.451   3.058
 6548TIP3    H219609   3.802   1.371   3.024
 6549TIP3   OH219610   4.872   5.754   5.429
 6549TIP3    H119611   4.875   5.794   5.516
 6549TIP3    H219612   4.957   5.711   5.420
 6550TIP3   OH219613   1.658   4.061   2.398
 6550TIP3    H119614   1.708   4.093   2.324
 6550TIP3    H219615   1.568   4.088   2.380
 6551TIP3   OH219616   3.919   1.660   5.285
 6551TIP3    H119617   3.851   1.612   5.236
 6551TIP3    H219618   3.945   1.730   5.226
 6552TIP3   OH219619   4.463   6.153   2.446
 6552TIP3    H119620   4.500   6.212   2.511
 6552TIP3    H219621   4.537   6.134   2.388
 6553TIP3   OH219622   1.746   0.253   0.648
 6553TIP3    H119623   1.745   0.203   0.729
 6553TIP3    H219624   1.711   0.192   0.582
 6554TIP3   OH219625   4.808   5.089   3.807
 6554TIP3    H119626   4.797   5.003   3.767
 6554TIP3    H219627   4.721   5.129   3.801
 6555TIP3   OH219628   4.290   3.242   2.593
 6555TIP3    H119629   4.316   3.320   2.544
 6555TIP3    H219630   4.196   3.253   2.609
 6556TIP3   OH219631   5.897   5.777   3.429
 6556TIP3    H119632   5.907   5.796   3.522
 6556TIP3    H219633   5.804   5.755   3.419
 6557TIP3   OH219634   6.361   5.958   0.562
 6557TIP3    H119635   6.297   6.011   0.610
 6557TIP3    H219636   6.311   5.922   0.488
 6558TIP3   OH219637   3.431   0.847   3.341
 6558TIP3    H119638   3.397   0.872   3.427
 6558TIP3    H219639   3.374   0.892   3.278
 6559TIP3   OH219640   4.867   2.777   3.604
 6559TIP3    H119641   4.900   2.693   3.572
 6559TIP3    H219642   4.889   2.778   3.697
 6560TIP3   OH219643   2.454   5.311   2.405
 6560TIP3    H119644   2.464   5.344   2.494
 6560TIP3    H219645   2.503   5.373   2.350
 6561TIP3   OH219646   1.112   6.277   3.914
 6561TIP3    H119647   1.166   6.350   3.944
 6561TIP3    H219648   1.034   6.318   3.877
 6562TIP3   OH219649   1.764   0.142   2.061
 6562TIP3    H119650   1.852   0.137   2.024
 6562TIP3    H219651   1.730   0.053   2.055
 6563TIP3   OH219652   3.159   5.087   0.311
 6563TIP3    H119653   3.173   4.992   0.317
 6563TIP3    H219654   3.192   5.121   0.394
 6564TIP3   OH219655   4.250   5.182   3.394
 6564TIP3    H119656   4.272   5.102   3.442
 6564TIP3    H219657   4.285   5.169   3.306
 6565TIP3   OH219658   4.397   3.101   1.125
 6565TIP3    H119659   4.474   3.134   1.172
 6565TIP3    H219660   4.418   3.113   1.033
 6566TIP3   OH219661   1.822   0.982   4.053
 6566TIP3    H119662   1.765   0.925   4.106
 6566TIP3    H219663   1.911   0.959   4.080
 6567TIP3   OH219664   3.295   6.116   2.481
 6567TIP3    H119665   3.386   6.087   2.475
 6567TIP3    H219666   3.296   6.204   2.444
 6568TIP3   OH219667   2.550   6.139   1.028
 6568TIP3    H119668   2.459   6.170   1.022
 6568TIP3    H219669   2.597   6.192   0.962
 6569TIP3   OH219670   6.172   6.171   3.112
 6569TIP3    H119671   6.135   6.091   3.076
 6569TIP3    H219672   6.214   6.144   3.193
 6570TIP3   OH219673   0.638   0.606   0.993
 6570TIP3    H119674   0.585   0.531   1.019
 6570TIP3    H219675   0.654   0.653   1.074
 6571TIP3   OH219676   4.117   5.338   4.641
 6571TIP3    H119677   4.096   5.244   4.640
 6571TIP3    H219678   4.187   5.347   4.575
 6572TIP3   OH219679   0.856   1.184   0.686
 6572TIP3    H119680   0.890   1.178   0.775
 6572TIP3    H219681   0.806   1.104   0.674
 6573TIP3   OH219682   4.664   2.133   1.625
 6573TIP3    H119683   4.678   2.215   1.671
 6573TIP3    H219684   4.642   2.159   1.536
 6574TIP3   OH219685   6.081   2.112   2.949
 6574TIP3    H119686   6.001   2.122   3.002
 6574TIP3    H219687   6.102   2.200   2.920
 6575TIP3   OH219688   1.252   5.845   3.726
 6575TIP3    H119689   1.308   5.808   3.657
 6575TIP3    H219690   1.310   5.904   3.774
 6576TIP3   OH219691   1.097   6.120   5.030
 6576TIP3    H119692   1.045   6.055   4.983
 6576TIP3    H219693   1.171   6.137   4.972
 6577TIP3   OH219694   2.870   1.278   4.452
 6577TIP3    H119695   2.899   1.336   4.381
 6577TIP3    H219696   2.822   1.334   4.512
 6578TIP3   OH219697   5.248   1.523   2.392
 6578TIP3    H119698   5.272   1.532   2.300
 6578TIP3    H219699   5.296   1.593   2.436
 6579TIP3   OH219700   5.977   6.099   5.189
 6579TIP3    H119701   6.024   6.018   5.171
 6579TIP3    H219702   6.029   6.142   5.258
 6580TIP3   OH219703   2.682   2.305   3.943
 6580TIP3    H119704   2.631   2.366   3.997
 6580TIP3    H219705   2.660   2.329   3.853
 6581TIP3   OH219706   2.461   5.107   3.560
 6581TIP3    H119707   2.455   5.176   3.626
 6581TIP3    H219708   2.398   5.132   3.492
 6582TIP3   OH219709   4.416   2.315   2.357
 6582TIP3    H119710   4.379   2.354   2.278
 6582TIP3    H219711   4.389   2.374   2.428
 6583TIP3   OH219712   2.625   4.617   5.085
 6583TIP3    H119713   2.604   4.527   5.108
 6583TIP3    H219714   2.692   4.609   5.017
 6584TIP3   OH219715   5.343   0.872   5.317
 6584TIP3    H119716   5.352   0.898   5.408
 6584TIP3    H219717   5.420   0.909   5.273
 6585TIP3   OH219718   3.668   5.248   2.557
 6585TIP3    H119719   3.738   5.248   2.492
 6585TIP3    H219720   3.588   5.241   2.507
 6586TIP3   OH219721   0.787   4.700   0.434
 6586TIP3    H119722   0.752   4.704   0.345
 6586TIP3    H219723   0.876   4.733   0.426
 6587TIP3   OH219724   3.655   5.027   3.750
 6587TIP3    H119725   3.560   5.030   3.738
 6587TIP3    H219726   3.690   5.021   3.662
 6588TIP3   OH219727   5.712   0.480   2.247
 6588TIP3    H119728   5.792   0.440   2.281
 6588TIP3    H219729   5.718   0.470   2.152
 6589TIP3   OH219730   1.523   2.494   2.669
 6589TIP3    H119731   1.484   2.465   2.586
 6589TIP3    H219732   1.529   2.414   2.721
 6590TIP3   OH219733   1.444   0.191   2.096
 6590TIP3    H119734   1.405   0.123   2.151
 6590TIP3    H219735   1.386   0.266   2.106
 6591TIP3   OH219736   0.399   6.043   1.985
 6591TIP3    H119737   0.416   6.137   1.983
 6591TIP3    H219738   0.332   6.032   2.053
 6592TIP3   OH219739   6.072   0.617   3.263
 6592TIP3    H119740   6.069   0.710   3.238
 6592TIP3    H219741   5.980   0.591   3.271
 6593TIP3   OH219742   2.620   1.473   5.172
 6593TIP3    H119743   2.565   1.476   5.094
 6593TIP3    H219744   2.603   1.556   5.216
 6594TIP3   OH219745   3.813   3.364   0.705
 6594TIP3    H119746   3.826   3.309   0.782
 6594TIP3    H219747   3.901   3.386   0.675
 6595TIP3   OH219748   6.149   0.026   4.919
 6595TIP3    H119749   6.143   0.109   4.967
 6595TIP3    H219750   6.220  -0.021   4.962
 6596TIP3   OH219751   3.090   3.926   0.979
 6596TIP3    H119752   3.098   3.896   1.070
 6596TIP3    H219753   3.129   4.014   0.979
 6597TIP3   OH219754   2.560   1.793   0.900
 6597TIP3    H119755   2.510   1.846   0.838
 6597TIP3    H219756   2.495   1.737   0.942
 6598TIP3   OH219757   5.784   1.269   2.369
 6598TIP3    H119758   5.847   1.299   2.434
 6598TIP3    H219759   5.728   1.207   2.416
 6599TIP3   OH219760   2.156   2.854   5.893
 6599TIP3    H119761   2.134   2.799   5.817
 6599TIP3    H219762   2.249   2.871   5.883
 6600TIP3   OH219763   5.927   0.204   5.592
 6600TIP3    H119764   5.900   0.292   5.566
 6600TIP3    H219765   5.935   0.156   5.509
 6601TIP3   OH219766   1.382   5.851   1.111
 6601TIP3    H119767   1.373   5.761   1.079
 6601TIP3    H219768   1.474   5.872   1.098
 6602TIP3   OH219769   7.211   5.029   3.172
 6602TIP3    H119770   7.199   5.112   3.127
 6602TIP3    H219771   7.139   5.025   3.236
 6603TIP3   OH219772   6.371   3.490   4.661
 6603TIP3    H119773   6.340   3.558   4.721
 6603TIP3    H219774   6.464   3.507   4.652
 6604TIP3   OH219775   1.376   2.229   4.237
 6604TIP3    H119776   1.371   2.141   4.200
 6604TIP3    H219777   1.464   2.235   4.273
 6605TIP3   OH219778   5.341   3.731   4.183
 6605TIP3    H119779   5.353   3.747   4.276
 6605TIP3    H219780   5.397   3.656   4.164
 6606TIP3   OH219781   5.760   1.220   5.692
 6606TIP3    H119782   5.742   1.313   5.709
 6606TIP3    H219783   5.756   1.180   5.779
 6607TIP3   OH219784   0.857   3.947   5.211
 6607TIP3    H119785   0.933   3.995   5.245
 6607TIP3    H219786   0.847   3.872   5.269
 6608TIP3   OH219787   1.828   1.632   1.609
 6608TIP3    H119788   1.767   1.688   1.560
 6608TIP3    H219789   1.802   1.543   1.587
 6609TIP3   OH219790   2.125   0.156   2.556
 6609TIP3    H119791   2.175   0.235   2.573
 6609TIP3    H219792   2.154   0.094   2.623
 6610TIP3   OH219793   6.793   0.879   5.472
 6610TIP3    H119794   6.853   0.946   5.438
 6610TIP3    H219795   6.750   0.843   5.394
 6611TIP3   OH219796   5.608   3.626   5.902
 6611TIP3    H119797   5.537   3.588   5.850
 6611TIP3    H219798   5.678   3.642   5.839
 6612TIP3   OH219799   3.586   2.558   2.785
 6612TIP3    H119800   3.635   2.640   2.791
 6612TIP3    H219801   3.653   2.491   2.770
 6613TIP3   OH219802   1.782   3.610   1.030
 6613TIP3    H119803   1.705   3.585   1.082
 6613TIP3    H219804   1.746   3.660   0.957
 6614TIP3   OH219805   6.948   5.161   4.099
 6614TIP3    H119806   6.942   5.067   4.084
 6614TIP3    H219807   7.036   5.185   4.071
 6615TIP3   OH219808   2.391   4.200   4.290
 6615TIP3    H119809   2.327   4.187   4.360
 6615TIP3    H219810   2.448   4.123   4.295
 6616TIP3   OH219811   5.081   1.508   3.374
 6616TIP3    H119812   5.097   1.588   3.324
 6616TIP3    H219813   5.167   1.469   3.387
 6617TIP3   OH219814   0.834   5.175   0.831
 6617TIP3    H119815   0.926   5.183   0.805
 6617TIP3    H219816   0.815   5.082   0.822
 6618TIP3   OH219817   5.182   1.332   4.630
 6618TIP3    H119818   5.149   1.412   4.588
 6618TIP3    H219819   5.276   1.336   4.618
 6619TIP3   OH219820   6.505   2.168   3.784
 6619TIP3    H119821   6.585   2.167   3.836
 6619TIP3    H219822   6.441   2.121   3.838
 6620TIP3   OH219823   0.176   2.605   0.693
 6620TIP3    H119824   0.081   2.616   0.689
 6620TIP3    H219825   0.209   2.651   0.615
 6621TIP3   OH219826   5.082   3.727   3.761
 6621TIP3    H119827   5.104   3.762   3.847
 6621TIP3    H219828   5.071   3.633   3.775
 6622TIP3   OH219829   2.660   1.996   5.721
 6622TIP3    H119830   2.592   2.025   5.660
 6622TIP3    H219831   2.737   2.048   5.698
 6623TIP3   OH219832   2.225   2.608   4.686
 6623TIP3    H119833   2.248   2.700   4.698
 6623TIP3    H219834   2.171   2.606   4.607
 6624TIP3   OH219835   3.031   0.849   5.750
 6624TIP3    H119836   2.976   0.908   5.698
 6624TIP3    H219837   2.987   0.764   5.745
 6625TIP3   OH219838   0.649   1.603   1.199
 6625TIP3    H119839   0.592   1.587   1.275
 6625TIP3    H219840   0.722   1.654   1.235
 6626TIP3   OH219841   6.472   1.435   4.389
 6626TIP3    H119842   6.424   1.513   4.415
 6626TIP3    H219843   6.560   1.467   4.368
 6627TIP3   OH219844   6.740   1.143   5.077
 6627TIP3    H119845   6.822   1.114   5.117
 6627TIP3    H219846   6.686   1.173   5.150
 6628TIP3   OH219847   4.050   3.904   1.300
 6628TIP3    H119848   4.014   3.881   1.214
 6628TIP3    H219849   4.070   3.820   1.341
 6629TIP3   OH219850   0.548   5.791   0.460
 6629TIP3    H119851   0.454   5.781   0.448
 6629TIP3    H219852   0.557   5.861   0.525
 6630TIP3   OH219853   0.941   1.813   4.188
 6630TIP3    H119854   0.938   1.898   4.230
 6630TIP3    H219855   0.999   1.825   4.112
 6631TIP3   OH219856   6.968   1.700   5.865
 6631TIP3    H119857   6.881   1.666   5.885
 6631TIP3    H219858   7.016   1.695   5.947
 6632TIP3   OH219859   4.837   0.463   1.476
 6632TIP3    H119860   4.861   0.527   1.409
 6632TIP3    H219861   4.776   0.510   1.533
 6633TIP3   OH219862   4.950   4.793   0.750
 6633TIP3    H119863   4.971   4.828   0.664
 6633TIP3    H219864   4.966   4.699   0.743
 6634TIP3   OH219865   1.115   4.477   2.983
 6634TIP3    H119866   1.203   4.455   2.954
 6634TIP3    H219867   1.079   4.531   2.913
 6635TIP3   OH219868   4.558   0.345   4.061
 6635TIP3    H119869   4.632   0.341   4.121
 6635TIP3    H219870   4.516   0.259   4.068
 6636TIP3   OH219871   2.681   0.709   5.127
 6636TIP3    H119872   2.718   0.669   5.205
 6636TIP3    H219873   2.610   0.764   5.160
 6637TIP3   OH219874   2.781   4.253   4.170
 6637TIP3    H119875   2.863   4.251   4.120
 6637TIP3    H219876   2.738   4.170   4.150
 6638TIP3   OH219877   2.361   1.753   3.198
 6638TIP3    H119878   2.346   1.662   3.169
 6638TIP3    H219879   2.276   1.780   3.234
 6639TIP3   OH219880   6.832   0.286   2.619
 6639TIP3    H119881   6.817   0.374   2.651
 6639TIP3    H219882   6.907   0.254   2.670
 6640TIP3   OH219883   4.943   2.687   2.986
 6640TIP3    H119884   5.033   2.669   2.959
 6640TIP3    H219885   4.943   2.672   3.081
 6641TIP3   OH219886   1.664   3.729   0.370
 6641TIP3    H119887   1.676   3.641   0.405
 6641TIP3    H219888   1.573   3.731   0.341
 6642TIP3   OH219889   4.173   3.796   4.065
 6642TIP3    H119890   4.190   3.704   4.045
 6642TIP3    H219891   4.082   3.810   4.040
 6643TIP3   OH219892   0.014   4.470   0.603
 6643TIP3    H119893   0.047   4.386   0.633
 6643TIP3    H219894  -0.041   4.501   0.676
 6644TIP3   OH219895   0.692   6.122   3.114
 6644TIP3    H119896   0.751   6.150   3.044
 6644TIP3    H219897   0.749   6.086   3.181
 6645TIP3   OH219898   3.939  -0.002   3.261
 6645TIP3    H119899   3.959   0.010   3.168
 6645TIP3    H219900   3.959   0.083   3.300
 6646TIP3   OH219901   6.030   5.352   3.508
 6646TIP3    H119902   5.979   5.350   3.590
 6646TIP3    H219903   5.992   5.424   3.458
 6647TIP3   OH219904   4.339   1.330   3.674
 6647TIP3    H119905   4.301   1.252   3.715
 6647TIP3    H219906   4.342   1.309   3.581
 6648TIP3   OH219907   5.127   3.332   5.409
 6648TIP3    H119908   5.220   3.355   5.413
 6648TIP3    H219909   5.102   3.317   5.500
 6649TIP3   OH219910   2.050   1.953   5.800
 6649TIP3    H119911   1.993   1.887   5.760
 6649TIP3    H219912   1.997   1.989   5.872
 6650TIP3   OH219913   3.256   4.955   3.714
 6650TIP3    H119914   3.329   4.998   3.669
 6650TIP3    H219915   3.179   5.008   3.690
 6651TIP3   OH219916   6.301   4.276   3.052
 6651TIP3    H119917   6.294   4.281   3.148
 6651TIP3    H219918   6.262   4.192   3.029
 6652TIP3   OH219919   6.957   0.363   1.692
 6652TIP3    H119920   6.918   0.449   1.676
 6652TIP3    H219921   6.912   0.331   1.771
 6653TIP3   OH219922   0.369   2.013   3.635
 6653TIP3    H119923   0.298   2.067   3.600
 6653TIP3    H219924   0.375   2.037   3.727
 6654TIP3   OH219925   0.298   2.273   0.534
 6654TIP3    H119926   0.258   2.243   0.453
 6654TIP3    H219927   0.230   2.327   0.575
 6655TIP3   OH219928   1.140   6.428   0.377
 6655TIP3    H119929   1.180   6.377   0.307
 6655TIP3    H219930   1.046   6.424   0.360
 6656TIP3   OH219931   2.962   1.718   4.036
 6656TIP3    H119932   2.922   1.769   4.107
 6656TIP3    H219933   3.055   1.715   4.058
 6657TIP3   OH219934   3.510   5.551   5.646
 6657TIP3    H119935   3.595   5.542   5.604
 6657TIP3    H219936   3.518   5.628   5.702
 6658TIP3   OH219937   6.111   0.492   3.938
 6658TIP3    H119938   6.192   0.537   3.960
 6658TIP3    H219939   6.048   0.562   3.922
 6659TIP3   OH219940   0.201   5.815   5.867
 6659TIP3    H119941   0.159   5.764   5.936
 6659TIP3    H219942   0.218   5.752   5.797
 6660TIP3   OH219943   1.392   4.976   4.144
 6660TIP3    H119944   1.331   4.968   4.217
 6660TIP3    H219945   1.447   4.898   4.150
 6661TIP3   OH219946   6.759   3.621   3.838
 6661TIP3    H119947   6.672   3.582   3.835
 6661TIP3    H219948   6.793   3.612   3.749
 6662TIP3   OH219949   5.352   4.843   3.122
 6662TIP3    H119950   5.348   4.825   3.028
 6662TIP3    H219951   5.285   4.786   3.160
 6663TIP3   OH219952   5.698   0.874   4.148
 6663TIP3    H119953   5.641   0.815   4.098
 6663TIP3    H219954   5.703   0.835   4.235
 6664TIP3   OH219955   2.131   1.491   0.746
 6664TIP3    H119956   2.039   1.472   0.761
 6664TIP3    H219957   2.176   1.409   0.762
 6665TIP3   OH219958   6.830   3.820   3.055
 6665TIP3    H119959   6.902   3.811   3.117
 6665TIP3    H219960   6.870   3.855   2.975
 6666TIP3   OH219961   0.204   4.009   3.105
 6666TIP3    H119962   0.289   4.008   3.150
 6666TIP3    H219963   0.215   4.074   3.035
 6667TIP3   OH219964   1.406   1.090   2.848
 6667TIP3    H119965   1.320   1.048   2.852
 6667TIP3    H219966   1.402   1.145   2.770
 6668TIP3   OH219967   0.712   5.632   2.505
 6668TIP3    H119968   0.695   5.715   2.550
 6668TIP3    H219969   0.630   5.583   2.514
 6669TIP3   OH219970   4.697   4.605   5.321
 6669TIP3    H119971   4.757   4.589   5.249
 6669TIP3    H219972   4.722   4.691   5.355
 6670TIP3   OH219973   1.737   2.524   1.567
 6670TIP3    H119974   1.717   2.431   1.575
 6670TIP3    H219975   1.737   2.557   1.657
 6671TIP3   OH219976   6.530   3.500   1.147
 6671TIP3    H119977   6.457   3.562   1.139
 6671TIP3    H219978   6.546   3.496   1.241
 6672TIP3   OH219979   6.460   5.102   5.784
 6672TIP3    H119980   6.545   5.064   5.808
 6672TIP3    H219981   6.434   5.055   5.705
 6673TIP3   OH219982   1.445   2.244   1.744
 6673TIP3    H119983   1.371   2.304   1.738
 6673TIP3    H219984   1.505   2.273   1.676
 6674TIP3   OH219985   3.969   3.365   3.146
 6674TIP3    H119986   3.942   3.342   3.234
 6674TIP3    H219987   3.928   3.300   3.090
 6675TIP3   OH219988   2.398   6.499   1.772
 6675TIP3    H119989   2.324   6.438   1.770
 6675TIP3    H219990   2.370   6.571   1.716
 6676TIP3   OH219991   1.904   1.353   0.139
 6676TIP3    H119992   1.907   1.420   0.071
 6676TIP3    H219993   1.903   1.402   0.221
 6677TIP3   OH219994   6.603   0.935   0.020
 6677TIP3    H119995   6.623   1.021   0.058
 6677TIP3    H219996   6.527   0.904   0.068
 6678TIP3   OH219997   6.236   6.241   0.324
 6678TIP3    H119998   6.235   6.335   0.344
 6678TIP3    H219999   6.177   6.232   0.249
 6679TIP3   OH220000   0.187   2.359   4.208
 6679TIP3    H120001   0.264   2.373   4.264
 6679TIP3    H220002   0.126   2.311   4.264
 6680TIP3   OH220003   4.764   4.365   2.425
 6680TIP3    H120004   4.687   4.322   2.462
 6680TIP3    H220005   4.755   4.457   2.450
 6681TIP3   OH220006   4.947   2.143   5.504
 6681TIP3    H120007   4.920   2.162   5.594
 6681TIP3    H220008   4.912   2.216   5.452
 6682TIP3   OH220009   3.974   4.055   0.410
 6682TIP3    H120010   3.939   3.966   0.413
 6682TIP3    H220011   3.902   4.109   0.443
 6683TIP3   OH220012   0.681   0.805   5.240
 6683TIP3    H120013   0.704   0.737   5.177
 6683TIP3    H220014   0.723   0.884   5.208
 6684TIP3   OH220015   4.550   4.603   5.051
 6684TIP3    H120016   4.524   4.678   5.104
 6684TIP3    H220017   4.644   4.615   5.037
 6685TIP3   OH220018   2.388   5.458   1.994
 6685TIP3    H120019   2.320   5.402   2.031
 6685TIP3    H220020   2.432   5.402   1.930
 6686TIP3   OH220021   2.346   5.824   0.786
 6686TIP3    H120022   2.263   5.847   0.745
 6686TIP3    H220023   2.341   5.730   0.799
 6687TIP3   OH220024   4.665   5.274   0.402
 6687TIP3    H120025   4.603   5.214   0.445
 6687TIP3    H220026   4.641   5.361   0.435
 6688TIP3   OH220027   0.630   4.483   3.402
 6688TIP3    H120028   0.648   4.468   3.494
 6688TIP3    H220029   0.629   4.578   3.393
 6689TIP3   OH220030   6.746   6.486   5.226
 6689TIP3    H120031   6.689   6.562   5.209
 6689TIP3    H220032   6.773   6.457   5.138
 6690TIP3   OH220033   4.677   1.008   4.043
 6690TIP3    H120034   4.643   0.996   4.132
 6690TIP3    H220035   4.603   0.987   3.986
 6691TIP3   OH220036   3.993   0.845   4.091
 6691TIP3    H120037   4.004   0.905   4.018
 6691TIP3    H220038   4.012   0.759   4.055
 6692TIP3   OH220039   3.752   1.197   3.082
 6692TIP3    H120040   3.722   1.152   3.002
 6692TIP3    H220041   3.828   1.147   3.111
 6693TIP3   OH220042   0.041   1.784   1.192
 6693TIP3    H120043   0.134   1.768   1.203
 6693TIP3    H220044   0.036   1.855   1.127
 6694TIP3   OH220045   3.524   3.822   0.132
 6694TIP3    H120046   3.494   3.847   0.045
 6694TIP3    H220047   3.448   3.833   0.189
 6695TIP3   OH220048   4.293   2.433   2.595
 6695TIP3    H120049   4.350   2.496   2.640
 6695TIP3    H220050   4.208   2.476   2.591
 6696TIP3   OH220051   5.077   0.768   1.619
 6696TIP3    H120052   5.128   0.797   1.543
 6696TIP3    H220053   5.084   0.673   1.617
 6697TIP3   OH220054   6.343   2.561   4.545
 6697TIP3    H120055   6.286   2.488   4.522
 6697TIP3    H220056   6.381   2.589   4.462
 6698TIP3   OH220057   6.651   0.271   2.283
 6698TIP3    H120058   6.681   0.359   2.303
 6698TIP3    H220059   6.688   0.216   2.352
 6699TIP3   OH220060   5.159   2.403   4.783
 6699TIP3    H120061   5.096   2.391   4.711
 6699TIP3    H220062   5.106   2.395   4.862
 6700TIP3   OH220063   0.995   6.637   1.685
 6700TIP3    H120064   1.042   6.665   1.763
 6700TIP3    H220065   1.056   6.656   1.613
 6701TIP3   OH220066   4.725   2.059   2.267
 6701TIP3    H120067   4.701   2.009   2.346
 6701TIP3    H220068   4.653   2.041   2.205
 6702TIP3   OH220069   2.863   4.861   1.838
 6702TIP3    H120070   2.910   4.789   1.880
 6702TIP3    H220071   2.780   4.821   1.809
 6703TIP3   OH220072   0.398   1.085   3.661
 6703TIP3    H120073   0.388   1.104   3.568
 6703TIP3    H220074   0.336   1.144   3.705
 6704TIP3   OH220075   3.258   2.532   4.560
 6704TIP3    H120076   3.249   2.589   4.637
 6704TIP3    H220077   3.337   2.480   4.578
 6705TIP3   OH220078   0.086   2.385   1.718
 6705TIP3    H120079   0.062   2.366   1.809
 6705TIP3    H220080   0.127   2.305   1.686
 6706TIP3   OH220081   4.426   1.024   4.397
 6706TIP3    H120082   4.505   0.971   4.384
 6706TIP3    H220083   4.441   1.102   4.343
 6707TIP3   OH220084   6.022   5.453   2.671
 6707TIP3    H120085   5.999   5.398   2.596
 6707TIP3    H220086   6.114   5.432   2.688
 6708TIP3   OH220087   2.661   6.532   1.851
 6708TIP3    H120088   2.686   6.599   1.787
 6708TIP3    H220089   2.585   6.489   1.813
 6709TIP3   OH220090   0.264   5.015   4.785
 6709TIP3    H120091   0.249   4.948   4.852
 6709TIP3    H220092   0.316   5.082   4.829
 6710TIP3   OH220093   0.755   4.228   4.643
 6710TIP3    H120094   0.783   4.239   4.552
 6710TIP3    H220095   0.836   4.210   4.691
 6711TIP3   OH220096   5.235   1.949   2.886
 6711TIP3    H120097   5.246   1.873   2.829
 6711TIP3    H220098   5.200   2.018   2.829
 6712TIP3   OH220099   5.982   3.469   4.836
 6712TIP3    H120100   6.019   3.386   4.866
 6712TIP3    H220101   5.937   3.447   4.754
 6713TIP3   OH220102   3.115   6.496   2.463
 6713TIP3    H120103   3.061   6.484   2.385
 6713TIP3    H220104   3.054   6.524   2.531
 6714TIP3   OH220105   7.003   1.464   5.308
 6714TIP3    H120106   6.989   1.440   5.216
 6714TIP3    H220107   7.042   1.386   5.348
 6715TIP3   OH220108   6.636   4.919   2.809
 6715TIP3    H120109   6.699   4.991   2.802
 6715TIP3    H220110   6.600   4.928   2.897
 6716TIP3   OH220111   2.905   4.310   4.463
 6716TIP3    H120112   2.920   4.230   4.512
 6716TIP3    H220113   2.846   4.284   4.392
 6717TIP3   OH220114   1.518   1.725   1.767
 6717TIP3    H120115   1.579   1.686   1.831
 6717TIP3    H220116   1.538   1.680   1.685
 6718TIP3   OH220117   5.083   3.338   1.255
 6718TIP3    H120118   5.116   3.400   1.189
 6718TIP3    H220119   5.150   3.339   1.324
 6719TIP3   OH220120   5.667   4.666   1.090
 6719TIP3    H120121   5.652   4.706   1.004
 6719TIP3    H220122   5.761   4.672   1.104
 6720TIP3   OH220123   2.201   0.359   3.361
 6720TIP3    H120124   2.258   0.299   3.409
 6720TIP3    H220125   2.119   0.311   3.351
 6721TIP3   OH220126   0.692   4.574   4.825
 6721TIP3    H120127   0.651   4.489   4.810
 6721TIP3    H220128   0.689   4.585   4.920
 6722TIP3   OH220129   2.032   3.648   0.040
 6722TIP3    H120130   2.097   3.635   0.109
 6722TIP3    H220131   1.953   3.607   0.075
 6723TIP3   OH220132   2.936   5.766   0.277
 6723TIP3    H120133   2.905   5.702   0.341
 6723TIP3    H220134   3.027   5.781   0.300
 6724TIP3   OH220135   7.103   6.014   3.270
 6724TIP3    H120136   7.128   5.986   3.358
 6724TIP3    H220137   7.186   6.027   3.225
 6725TIP3   OH220138   2.796   1.393   5.682
 6725TIP3    H120139   2.817   1.427   5.769
 6725TIP3    H220140   2.701   1.388   5.679
 6726TIP3   OH220141   4.433   2.843   1.769
 6726TIP3    H120142   4.457   2.803   1.686
 6726TIP3    H220143   4.486   2.796   1.834
 6727TIP3   OH220144   1.628   4.663   3.129
 6727TIP3    H120145   1.715   4.624   3.113
 6727TIP3    H220146   1.567   4.592   3.109
 6728TIP3   OH220147   5.539   6.610   5.319
 6728TIP3    H120148   5.560   6.516   5.325
 6728TIP3    H220149   5.583   6.649   5.394
 6729TIP3   OH220150   6.737   4.012   2.527
 6729TIP3    H120151   6.759   4.055   2.445
 6729TIP3    H220152   6.715   3.922   2.502
 6730TIP3   OH220153   5.302   4.709   5.725
 6730TIP3    H120154   5.270   4.647   5.659
 6730TIP3    H220155   5.269   4.674   5.808
 6731TIP3   OH220156   6.751   1.586   2.326
 6731TIP3    H120157   6.786   1.665   2.285
 6731TIP3    H220158   6.748   1.608   2.420
 6732TIP3   OH220159   4.528   5.075   0.526
 6732TIP3    H120160   4.583   5.026   0.587
 6732TIP3    H220161   4.439   5.066   0.560
 6733TIP3   OH220162   0.448   3.497   3.717
 6733TIP3    H120163   0.484   3.424   3.665
 6733TIP3    H220164   0.523   3.530   3.766
 6734TIP3   OH220165   4.025   3.298   1.208
 6734TIP3    H120166   4.058   3.370   1.155
 6734TIP3    H220167   4.060   3.219   1.168
 6735TIP3   OH220168   4.443   2.875   0.868
 6735TIP3    H120169   4.439   2.968   0.847
 6735TIP3    H220170   4.356   2.854   0.902
 6736TIP3   OH220171   7.131   1.282   2.969
 6736TIP3    H120172   7.081   1.201   2.971
 6736TIP3    H220173   7.146   1.303   3.062
 6737TIP3   OH220174   2.503   5.128   0.432
 6737TIP3    H120175   2.565   5.186   0.388
 6737TIP3    H220176   2.555   5.085   0.500
 6738TIP3   OH220177   1.019   6.293   2.717
 6738TIP3    H120178   0.992   6.384   2.711
 6738TIP3    H220179   0.937   6.243   2.721
 6739TIP3   OH220180   2.592   6.395   2.197
 6739TIP3    H120181   2.610   6.314   2.244
 6739TIP3    H220182   2.674   6.415   2.152
 6740TIP3   OH220183   1.348   2.285   1.162
 6740TIP3    H120184   1.427   2.324   1.199
 6740TIP3    H220185   1.379   2.233   1.088
 6741TIP3   OH220186   3.846   5.052   2.717
 6741TIP3    H120187   3.774   5.112   2.700
 6741TIP3    H220188   3.911   5.072   2.650
 6742TIP3   OH220189   5.503   6.316   2.904
 6742TIP3    H120190   5.527   6.409   2.900
 6742TIP3    H220191   5.568   6.276   2.962
 6743TIP3   OH220192   6.386   3.676   2.287
 6743TIP3    H120193   6.343   3.591   2.279
 6743TIP3    H220194   6.472   3.657   2.324
 6744TIP3   OH220195   0.424   6.341   3.822
 6744TIP3    H120196   0.407   6.421   3.772
 6744TIP3    H220197   0.336   6.307   3.842
 6745TIP3   OH220198   3.795   3.344   4.888
 6745TIP3    H120199   3.735   3.314   4.956
 6745TIP3    H220200   3.829   3.264   4.848
 6746TIP3   OH220201   1.857   5.442   0.609
 6746TIP3    H120202   1.837   5.519   0.662
 6746TIP3    H220203   1.916   5.390   0.664
 6747TIP3   OH220204   0.647   5.905   3.451
 6747TIP3    H120205   0.707   5.980   3.447
 6747TIP3    H220206   0.695   5.834   3.409
 6748TIP3   OH220207   5.055   5.863   2.783
 6748TIP3    H120208   5.012   5.778   2.788
 6748TIP3    H220209   5.091   5.877   2.870
 6749TIP3   OH220210   0.844   2.551   4.642
 6749TIP3    H120211   0.845   2.646   4.628
 6749TIP3    H220212   0.826   2.541   4.735
 6750TIP3   OH220213   2.761   0.813   0.222
 6750TIP3    H120214   2.845   0.844   0.189
 6750TIP3    H220215   2.780   0.725   0.256
 6751TIP3   OH220216   4.120   3.060   1.061
 6751TIP3    H120217   4.121   2.992   0.995
 6751TIP3    H220218   4.213   3.075   1.082
 6752TIP3   OH220219   5.831   3.651   0.843
 6752TIP3    H120220   5.788   3.571   0.873
 6752TIP3    H220221   5.873   3.627   0.761
 6753TIP3   OH220222   4.166   4.216   4.771
 6753TIP3    H120223   4.115   4.156   4.825
 6753TIP3    H220224   4.210   4.272   4.835
 6754TIP3   OH220225   5.608   0.381   5.589
 6754TIP3    H120226   5.561   0.307   5.551
 6754TIP3    H220227   5.698   0.370   5.560
 6755TIP3   OH220228   3.787   2.643   2.166
 6755TIP3    H120229   3.701   2.666   2.132
 6755TIP3    H220230   3.771   2.616   2.256
 6756TIP3   OH220231   4.192   5.568   4.777
 6756TIP3    H120232   4.123   5.618   4.733
 6756TIP3    H220233   4.181   5.478   4.745
 6757TIP3   OH220234   3.179   1.213   2.105
 6757TIP3    H120235   3.225   1.129   2.109
 6757TIP3    H220236   3.096   1.192   2.062
 6758TIP3   OH220237   3.508   5.817   5.744
 6758TIP3    H120238   3.576   5.875   5.709
 6758TIP3    H220239   3.426   5.853   5.711
 6759TIP3   OH220240   2.665   4.468   4.354
 6759TIP3    H120241   2.681   4.384   4.311
 6759TIP3    H220242   2.616   4.447   4.433
 6760TIP3   OH220243   6.439   5.956   1.173
 6760TIP3    H120244   6.463   5.916   1.256
 6760TIP3    H220245   6.343   5.945   1.169
 6761TIP3   OH220246   3.479   1.668   5.272
 6761TIP3    H120247   3.400   1.639   5.226
 6761TIP3    H220248   3.525   1.723   5.208
 6762TIP3   OH220249   4.834   6.232   3.969
 6762TIP3    H120250   4.800   6.236   3.879
 6762TIP3    H220251   4.875   6.145   3.975
 6763TIP3   OH220252   3.168   1.923   4.196
 6763TIP3    H120253   3.186   1.829   4.191
 6763TIP3    H220254   3.108   1.940   4.123
 6764TIP3   OH220255   3.907   2.869   4.446
 6764TIP3    H120256   3.884   2.809   4.375
 6764TIP3    H220257   3.988   2.835   4.482
 6765TIP3   OH220258   4.843   1.210   3.207
 6765TIP3    H120259   4.913   1.152   3.176
 6765TIP3    H220260   4.864   1.227   3.298
 6766TIP3   OH220261   6.514   4.437   4.638
 6766TIP3    H120262   6.563   4.357   4.619
 6766TIP3    H220263   6.422   4.411   4.630
 6767TIP3   OH220264   5.870   5.234   5.412
 6767TIP3    H120265   5.931   5.214   5.341
 6767TIP3    H220266   5.846   5.148   5.447
 6768TIP3   OH220267   0.084   3.508   0.422
 6768TIP3    H120268   0.099   3.553   0.339
 6768TIP3    H220269  -0.009   3.486   0.421
 6769TIP3   OH220270   4.550   6.591   1.241
 6769TIP3    H120271   4.457   6.569   1.238
 6769TIP3    H220272   4.552   6.686   1.254
 6770TIP3   OH220273   1.203   0.329   1.540
 6770TIP3    H120274   1.292   0.318   1.506
 6770TIP3    H220275   1.187   0.423   1.537
 6771TIP3   OH220276   0.980   2.862   1.388
 6771TIP3    H120277   0.937   2.947   1.377
 6771TIP3    H220278   0.915   2.799   1.358
 6772TIP3   OH220279   2.993   0.612   5.637
 6772TIP3    H120280   2.975   0.559   5.560
 6772TIP3    H220281   3.026   0.551   5.702
 6773TIP3   OH220282   2.882   6.070   5.870
 6773TIP3    H120283   2.874   6.049   5.963
 6773TIP3    H220284   2.944   6.005   5.836
 6774TIP3   OH220285   1.697   0.430   4.848
 6774TIP3    H120286   1.652   0.355   4.886
 6774TIP3    H220287   1.716   0.405   4.758
 6775TIP3   OH220288   0.235   3.940   4.287
 6775TIP3    H120289   0.297   4.012   4.285
 6775TIP3    H220290   0.260   3.885   4.212
 6776TIP3   OH220291   5.497   4.547   0.719
 6776TIP3    H120292   5.522   4.479   0.782
 6776TIP3    H220293   5.448   4.500   0.652
 6777TIP3   OH220294   5.156   3.794   4.799
 6777TIP3    H120295   5.179   3.857   4.730
 6777TIP3    H220296   5.173   3.708   4.760
 6778TIP3   OH220297   6.974   2.823   1.671
 6778TIP3    H120298   6.956   2.865   1.755
 6778TIP3    H220299   6.912   2.750   1.666
 6779TIP3   OH220300   0.663   5.931   5.496
 6779TIP3    H120301   0.752   5.965   5.484
 6779TIP3    H220302   0.647   5.940   5.590
 6780TIP3   OH220303   1.797   3.309   3.102
 6780TIP3    H120304   1.751   3.383   3.062
 6780TIP3    H220305   1.728   3.249   3.130
 6781TIP3   OH220306   2.613   4.279   1.615
 6781TIP3    H120307   2.588   4.371   1.621
 6781TIP3    H220308   2.552   4.242   1.550
 6782TIP3   OH220309   4.032   5.015   2.449
 6782TIP3    H120310   4.107   4.956   2.459
 6782TIP3    H220311   3.966   4.962   2.404
 6783TIP3   OH220312   5.216   0.761   4.629
 6783TIP3    H120313   5.252   0.832   4.683
 6783TIP3    H220314   5.293   0.709   4.605
 6784TIP3   OH220315   5.736   0.864   0.286
 6784TIP3    H120316   5.794   0.889   0.215
 6784TIP3    H220317   5.764   0.775   0.309
 6785TIP3   OH220318   2.018   3.630   1.986
 6785TIP3    H120319   1.924   3.635   2.005
 6785TIP3    H220320   2.060   3.665   2.064
 6786TIP3   OH220321   2.115   6.146   0.385
 6786TIP3    H120322   2.020   6.146   0.388
 6786TIP3    H220323   2.137   6.083   0.316
 6787TIP3   OH220324   0.331   2.069   1.841
 6787TIP3    H120325   0.334   2.078   1.937
 6787TIP3    H220326   0.239   2.051   1.822
 6788TIP3   OH220327   4.131   4.950   1.637
 6788TIP3    H120328   4.173   4.980   1.556
 6788TIP3    H220329   4.047   4.914   1.608
 6789TIP3   OH220330   3.075   4.994   1.715
 6789TIP3    H120331   2.993   4.956   1.747
 6789TIP3    H220332   3.050   5.081   1.684
 6790TIP3   OH220333   5.893   5.513   3.334
 6790TIP3    H120334   5.897   5.588   3.394
 6790TIP3    H220335   5.912   5.550   3.248
 6791TIP3   OH220336   0.696   0.965   0.749
 6791TIP3    H120337   0.708   0.976   0.843
 6791TIP3    H220338   0.647   0.883   0.740
 6792TIP3   OH220339   1.720   6.829   2.591
 6792TIP3    H120340   1.633   6.789   2.593
 6792TIP3    H220341   1.769   6.782   2.658
 6793TIP3   OH220342   0.904   1.728   1.693
 6793TIP3    H120343   0.886   1.719   1.600
 6793TIP3    H220344   0.829   1.687   1.736
 6794TIP3   OH220345   4.492   5.080   3.239
 6794TIP3    H120346   4.499   5.072   3.334
 6794TIP3    H220347   4.580   5.062   3.206
 6795TIP3   OH220348   6.765   0.180   3.198
 6795TIP3    H120349   6.702   0.252   3.197
 6795TIP3    H220350   6.763   0.145   3.109
 6796TIP3   OH220351   2.918   0.925   1.581
 6796TIP3    H120352   3.012   0.941   1.576
 6796TIP3    H220353   2.890   0.971   1.660
 6797TIP3   OH220354   7.157   1.121   1.041
 6797TIP3    H120355   7.185   1.167   0.961
 6797TIP3    H220356   7.227   1.057   1.057
 6798TIP3   OH220357   3.469   1.658   3.416
 6798TIP3    H120358   3.478   1.712   3.338
 6798TIP3    H220359   3.538   1.593   3.408
 6799TIP3   OH220360   5.839   6.481   3.729
 6799TIP3    H120361   5.914   6.452   3.676
 6799TIP3    H220362   5.875   6.491   3.817
 6800TIP3   OH220363   2.790   0.300   3.204
 6800TIP3    H120364   2.881   0.270   3.193
 6800TIP3    H220365   2.795   0.366   3.273
 6801TIP3   OH220366   0.355   1.800   2.166
 6801TIP3    H120367   0.356   1.894   2.147
 6801TIP3    H220368   0.279   1.787   2.223
 6802TIP3   OH220369   1.031   6.518   1.289
 6802TIP3    H120370   0.972   6.493   1.360
 6802TIP3    H220371   0.988   6.486   1.210
 6803TIP3   OH220372   5.069   5.621   5.123
 6803TIP3    H120373   5.141   5.602   5.064
 6803TIP3    H220374   4.992   5.587   5.078
 6804TIP3   OH220375   2.770   4.337   0.328
 6804TIP3    H120376   2.736   4.316   0.415
 6804TIP3    H220377   2.711   4.404   0.294
 6805TIP3   OH220378   1.764   1.076   1.391
 6805TIP3    H120379   1.729   1.132   1.323
 6805TIP3    H220380   1.709   1.092   1.467
 6806TIP3   OH220381   5.247   4.348   3.144
 6806TIP3    H120382   5.294   4.267   3.126
 6806TIP3    H220383   5.155   4.323   3.144
 6807TIP3   OH220384   0.018   3.065   3.546
 6807TIP3    H120385   0.031   3.023   3.631
 6807TIP3    H220386   0.062   3.007   3.484
 6808TIP3   OH220387   4.845   3.682   5.766
 6808TIP3    H120388   4.765   3.683   5.817
 6808TIP3    H220389   4.856   3.590   5.741
 6809TIP3   OH220390   6.139   0.093   1.332
 6809TIP3    H120391   6.198   0.157   1.290
 6809TIP3    H220392   6.065   0.087   1.272
 6810TIP3   OH220393   0.778   3.679   1.553
 6810TIP3    H120394   0.777   3.711   1.643
 6810TIP3    H220395   0.774   3.758   1.499
 6811TIP3   OH220396   6.073   2.806   3.286
 6811TIP3    H120397   6.084   2.723   3.239
 6811TIP3    H220398   5.979   2.816   3.296
 6812TIP3   OH220399   2.995   3.858   0.211
 6812TIP3    H120400   3.061   3.788   0.204
 6812TIP3    H220401   3.039   3.927   0.262
 6813TIP3   OH220402   6.184   5.996   4.539
 6813TIP3    H120403   6.124   6.032   4.474
 6813TIP3    H220404   6.271   6.023   4.509
 6814TIP3   OH220405   6.553   6.333   4.650
 6814TIP3    H120406   6.564   6.278   4.728
 6814TIP3    H220407   6.642   6.348   4.619
 6815TIP3   OH220408   1.523   4.161   5.253
 6815TIP3    H120409   1.600   4.217   5.242
 6815TIP3    H220410   1.544   4.082   5.202
 6816TIP3   OH220411   3.373   5.963   4.749
 6816TIP3    H120412   3.410   5.970   4.661
 6816TIP3    H220413   3.432   5.904   4.796
 6817TIP3   OH220414   4.059   0.482   1.903
 6817TIP3    H120415   4.013   0.458   1.823
 6817TIP3    H220416   3.990   0.494   1.968
 6818TIP3   OH220417   3.455   2.193   3.739
 6818TIP3    H120418   3.450   2.277   3.695
 6818TIP3    H220419   3.421   2.130   3.675
 6819TIP3   OH220420   1.273   5.699   1.522
 6819TIP3    H120421   1.243   5.671   1.435
 6819TIP3    H220422   1.192   5.719   1.569
 6820TIP3   OH220423   4.623   6.664   4.965
 6820TIP3    H120424   4.694   6.690   4.907
 6820TIP3    H220425   4.571   6.744   4.977
 6821TIP3   OH220426   3.653   6.699   1.961
 6821TIP3    H120427   3.713   6.631   1.993
 6821TIP3    H220428   3.662   6.770   2.025
 6822TIP3   OH220429   4.306   2.776   4.763
 6822TIP3    H120430   4.373   2.744   4.824
 6822TIP3    H220431   4.231   2.797   4.819
 6823TIP3   OH220432   5.493   5.150   4.067
 6823TIP3    H120433   5.459   5.164   4.155
 6823TIP3    H220434   5.421   5.108   4.020
 6824TIP3   OH220435   6.694   1.818   1.380
 6824TIP3    H120436   6.609   1.847   1.346
 6824TIP3    H220437   6.673   1.742   1.434
 6825TIP3   OH220438   6.903   4.509   3.601
 6825TIP3    H120439   6.868   4.576   3.659
 6825TIP3    H220440   6.992   4.494   3.632
 6826TIP3   OH220441   2.165   3.653   1.525
 6826TIP3    H120442   2.111   3.723   1.489
 6826TIP3    H220443   2.160   3.583   1.459
 6827TIP3   OH220444   5.150   1.648   4.295
 6827TIP3    H120445   5.171   1.726   4.346
 6827TIP3    H220446   5.213   1.582   4.325
 6828TIP3   OH220447   3.601   0.137   0.946
 6828TIP3    H120448   3.670   0.122   1.011
 6828TIP3    H220449   3.581   0.231   0.954
 6829TIP3   OH220450   3.966   4.653   3.117
 6829TIP3    H120451   3.969   4.586   3.186
 6829TIP3    H220452   3.873   4.656   3.093
 6830TIP3   OH220453   5.860   3.205   3.649
 6830TIP3    H120454   5.872   3.153   3.570
 6830TIP3    H220455   5.902   3.289   3.629
 6831TIP3   OH220456   5.445   4.805   2.855
 6831TIP3    H120457   5.468   4.897   2.845
 6831TIP3    H220458   5.522   4.765   2.895
 6832TIP3   OH220459   3.955   6.592   0.161
 6832TIP3    H120460   4.019   6.548   0.217
 6832TIP3    H220461   3.871   6.558   0.189
 6833TIP3   OH220462   3.540   4.989   0.395
 6833TIP3    H120463   3.494   4.916   0.437
 6833TIP3    H220464   3.604   5.017   0.460
 6834TIP3   OH220465   1.135   3.453   0.162
 6834TIP3    H120466   1.202   3.494   0.107
 6834TIP3    H220467   1.065   3.519   0.168
 6835TIP3   OH220468   3.640   2.293   4.617
 6835TIP3    H120469   3.676   2.237   4.549
 6835TIP3    H220470   3.713   2.310   4.677
 6836TIP3   OH220471   3.019   0.687   5.089
 6836TIP3    H120472   2.984   0.605   5.054
 6836TIP3    H220473   2.953   0.753   5.067
 6837TIP3   OH220474   0.411   1.601   0.675
 6837TIP3    H120475   0.440   1.688   0.704
 6837TIP3    H220476   0.316   1.604   0.683
 6838TIP3   OH220477   6.876   0.076   1.284
 6838TIP3    H120478   6.890   0.167   1.308
 6838TIP3    H220479   6.799   0.049   1.333
 6839TIP3   OH220480   3.987   1.113   2.543
 6839TIP3    H120481   3.917   1.119   2.479
 6839TIP3    H220482   4.025   1.026   2.529
 6840TIP3   OH220483   4.730   4.022   5.858
 6840TIP3    H120484   4.653   4.017   5.802
 6840TIP3    H220485   4.753   4.115   5.859
 6841TIP3   OH220486   1.660   5.516   0.879
 6841TIP3    H120487   1.694   5.494   0.966
 6841TIP3    H220488   1.737   5.547   0.831
 6842TIP3   OH220489   2.864   4.425   5.579
 6842TIP3    H120490   2.781   4.380   5.566
 6842TIP3    H220491   2.843   4.500   5.634
 6843TIP3   OH220492   6.321   3.364   1.368
 6843TIP3    H120493   6.407   3.327   1.347
 6843TIP3    H220494   6.268   3.346   1.291
 6844TIP3   OH220495   3.036   0.018   2.566
 6844TIP3    H120496   3.084  -0.048   2.516
 6844TIP3    H220497   2.945   0.006   2.540
 6845TIP3   OH220498   6.423   6.058   0.190
 6845TIP3    H120499   6.512   6.081   0.216
 6845TIP3    H220500   6.367   6.109   0.249
 6846TIP3   OH220501   6.836   5.393   4.009
 6846TIP3    H120502   6.925   5.425   3.993
 6846TIP3    H220503   6.848   5.308   4.051
 6847TIP3   OH220504   1.649   0.614   4.429
 6847TIP3    H120505   1.610   0.641   4.512
 6847TIP3    H220506   1.588   0.550   4.393
 6848TIP3   OH220507   3.403   6.505   5.319
 6848TIP3    H120508   3.386   6.562   5.394
 6848TIP3    H220509   3.331   6.442   5.320
 6849TIP3   OH220510   5.373   4.274   5.263
 6849TIP3    H120511   5.289   4.258   5.221
 6849TIP3    H220512   5.409   4.187   5.279
 6850TIP3   OH220513   0.767   4.799   3.684
 6850TIP3    H120514   0.692   4.812   3.742
 6850TIP3    H220515   0.803   4.714   3.711
 6851TIP3   OH220516   5.669   2.146   5.006
 6851TIP3    H120517   5.671   2.239   4.986
 6851TIP3    H220518   5.589   2.134   5.057
 6852TIP3   OH220519   5.400   2.240   5.103
 6852TIP3    H120520   5.329   2.202   5.154
 6852TIP3    H220521   5.417   2.325   5.145
 6853TIP3   OH220522   1.143   5.843   5.534
 6853TIP3    H120523   1.110   5.756   5.514
 6853TIP3    H220524   1.128   5.853   5.628
 6854TIP3   OH220525   3.216   4.157   1.089
 6854TIP3    H120526   3.293   4.157   1.146
 6854TIP3    H220527   3.175   4.242   1.105
 6855TIP3   OH220528   1.484   3.704   1.855
 6855TIP3    H120529   1.513   3.785   1.898
 6855TIP3    H220530   1.429   3.661   1.920
 6856TIP3   OH220531   0.240   2.143   0.284
 6856TIP3    H120532   0.229   2.217   0.224
 6856TIP3    H220533   0.229   2.066   0.229
 6857TIP3   OH220534   6.383   2.504   5.574
 6857TIP3    H120535   6.390   2.568   5.644
 6857TIP3    H220536   6.451   2.529   5.511
 6858TIP3   OH220537   1.113   1.724   2.740
 6858TIP3    H120538   1.119   1.737   2.645
 6858TIP3    H220539   1.165   1.796   2.777
 6859TIP3   OH220540   0.089   1.511   1.979
 6859TIP3    H120541   0.046   1.597   1.987
 6859TIP3    H220542   0.131   1.498   2.064
 6860TIP3   OH220543   7.231   5.787   4.317
 6860TIP3    H120544   7.197   5.862   4.367
 6860TIP3    H220545   7.252   5.824   4.231
 6861TIP3   OH220546   2.499   6.683   2.675
 6861TIP3    H120547   2.540   6.753   2.726
 6861TIP3    H220548   2.571   6.644   2.625
 6862TIP3   OH220549   4.537   2.075   1.073
 6862TIP3    H120550   4.536   2.061   0.979
 6862TIP3    H220551   4.628   2.096   1.093
 6863TIP3   OH220552   6.952   1.073   2.975
 6863TIP3    H120553   6.984   1.017   3.046
 6863TIP3    H220554   6.932   1.013   2.904
 6864TIP3   OH220555   0.775   4.387   2.404
 6864TIP3    H120556   0.686   4.410   2.430
 6864TIP3    H220557   0.768   4.300   2.365
 6865TIP3   OH220558   3.329   4.477   3.935
 6865TIP3    H120559   3.410   4.426   3.936
 6865TIP3    H220560   3.345   4.546   3.872
 6866TIP3   OH220561   3.919   1.867   3.781
 6866TIP3    H120562   3.832   1.876   3.744
 6866TIP3    H220563   3.908   1.886   3.874
 6867TIP3   OH220564   6.856   3.265   5.883
 6867TIP3    H120565   6.851   3.177   5.920
 6867TIP3    H220566   6.931   3.262   5.823
 6868TIP3   OH220567   4.410   6.432   1.486
 6868TIP3    H120568   4.468   6.447   1.411
 6868TIP3    H220569   4.444   6.490   1.555
 6869TIP3   OH220570   4.915   5.908   5.659
 6869TIP3    H120571   4.958   5.847   5.719
 6869TIP3    H220572   4.982   5.974   5.640
 6870TIP3   OH220573   2.707   5.576   0.777
 6870TIP3    H120574   2.719   5.660   0.733
 6870TIP3    H220575   2.663   5.598   0.859
 6871TIP3   OH220576   5.812   0.570   3.219
 6871TIP3    H120577   5.794   0.574   3.125
 6871TIP3    H220578   5.751   0.632   3.257
 6872TIP3   OH220579   0.617   5.819   0.861
 6872TIP3    H120580   0.535   5.771   0.871
 6872TIP3    H220581   0.596   5.888   0.798
 6873TIP3   OH220582   6.919   4.155   0.532
 6873TIP3    H120583   6.996   4.101   0.517
 6873TIP3    H220584   6.941   4.240   0.492
 6874TIP3   OH220585   6.298   4.481   5.660
 6874TIP3    H120586   6.256   4.396   5.676
 6874TIP3    H220587   6.238   4.527   5.602
 6875TIP3   OH220588   5.909   2.786   2.089
 6875TIP3    H120589   5.952   2.724   2.031
 6875TIP3    H220590   5.910   2.743   2.175
 6876TIP3   OH220591   5.463   4.389   4.332
 6876TIP3    H120592   5.487   4.467   4.282
 6876TIP3    H220593   5.470   4.416   4.424
 6877TIP3   OH220594   0.214   1.316   4.733
 6877TIP3    H120595   0.283   1.262   4.696
 6877TIP3    H220596   0.237   1.324   4.826
 6878TIP3   OH220597   4.331   3.896   3.845
 6878TIP3    H120598   4.336   3.988   3.874
 6878TIP3    H220599   4.316   3.847   3.926
 6879TIP3   OH220600   2.707   1.617   4.151
 6879TIP3    H120601   2.710   1.630   4.057
 6879TIP3    H220602   2.728   1.702   4.189
 6880TIP3   OH220603   2.822   4.227   5.031
 6880TIP3    H120604   2.906   4.256   5.066
 6880TIP3    H220605   2.828   4.131   5.031
 6881TIP3   OH220606   5.481   4.329   0.283
 6881TIP3    H120607   5.417   4.306   0.216
 6881TIP3    H220608   5.521   4.410   0.251
 6882TIP3   OH220609   1.252   2.962   3.146
 6882TIP3    H120610   1.171   3.013   3.136
 6882TIP3    H220611   1.247   2.926   3.234
 6883TIP3   OH220612   0.385   3.324   4.292
 6883TIP3    H120613   0.425   3.345   4.208
 6883TIP3    H220614   0.339   3.241   4.277
 6884TIP3   OH220615   3.511   3.156   4.720
 6884TIP3    H120616   3.586   3.123   4.670
 6884TIP3    H220617   3.442   3.167   4.654
 6885TIP3   OH220618   0.403   6.487   5.649
 6885TIP3    H120619   0.361   6.459   5.568
 6885TIP3    H220620   0.463   6.557   5.623
 6886TIP3   OH220621   2.319   1.453   2.201
 6886TIP3    H120622   2.294   1.521   2.139
 6886TIP3    H220623   2.272   1.476   2.281
 6887TIP3   OH220624   6.637   0.455   5.369
 6887TIP3    H120625   6.563   0.399   5.348
 6887TIP3    H220626   6.674   0.417   5.449
 6888TIP3   OH220627   4.159   2.841   0.859
 6888TIP3    H120628   4.088   2.777   0.868
 6888TIP3    H220629   4.178   2.842   0.766
 6889TIP3   OH220630   7.162   4.533   4.695
 6889TIP3    H120631   7.117   4.462   4.742
 6889TIP3    H220632   7.180   4.496   4.608
 6890TIP3   OH220633   4.692   2.873   5.702
 6890TIP3    H120634   4.600   2.847   5.705
 6890TIP3    H220635   4.707   2.897   5.610
 6891TIP3   OH220636   0.265   2.395   0.170
 6891TIP3    H120637   0.338   2.449   0.200
 6891TIP3    H220638   0.294   2.361   0.085
 6892TIP3   OH220639   4.123   3.856   3.678
 6892TIP3    H120640   4.075   3.889   3.755
 6892TIP3    H220641   4.214   3.854   3.706
 6893TIP3   OH220642   5.528   2.905   1.087
 6893TIP3    H120643   5.441   2.910   1.047
 6893TIP3    H220644   5.589   2.914   1.013
 6894TIP3   OH220645   1.749   6.349   0.010
 6894TIP3    H120646   1.836   6.384  -0.011
 6894TIP3    H220647   1.690   6.393  -0.051
 6895TIP3   OH220648   4.865   6.066   1.239
 6895TIP3    H120649   4.952   6.092   1.209
 6895TIP3    H220650   4.813   6.146   1.234
 6896TIP3   OH220651   0.906   4.410   0.925
 6896TIP3    H120652   0.858   4.328   0.912
 6896TIP3    H220653   0.994   4.383   0.952
 6897TIP3   OH220654   5.000   2.728   3.869
 6897TIP3    H120655   5.090   2.713   3.839
 6897TIP3    H220656   4.969   2.641   3.893
 6898TIP3   OH220657   2.750   6.540   4.742
 6898TIP3    H120658   2.702   6.461   4.717
 6898TIP3    H220659   2.825   6.508   4.792
 6899TIP3   OH220660   2.847   5.882   2.252
 6899TIP3    H120661   2.789   5.830   2.308
 6899TIP3    H220662   2.935   5.850   2.271
 6900TIP3   OH220663   3.238   6.485   3.250
 6900TIP3    H120664   3.308   6.517   3.306
 6900TIP3    H220665   3.224   6.395   3.278
 6901TIP3   OH220666   0.952   6.032   5.748
 6901TIP3    H120667   0.925   6.034   5.840
 6901TIP3    H220668   0.996   5.948   5.738
 6902TIP3   OH220669   2.515   1.561   4.892
 6902TIP3    H120670   2.576   1.629   4.920
 6902TIP3    H220671   2.428   1.594   4.917
 6903TIP3   OH220672   5.034   1.515   4.492
 6903TIP3    H120673   4.953   1.486   4.450
 6903TIP3    H220674   5.072   1.578   4.431
 6904TIP3   OH220675   3.131   6.050   1.381
 6904TIP3    H120676   3.181   6.036   1.462
 6904TIP3    H220677   3.065   5.981   1.381
 6905TIP3   OH220678   5.661   2.736   3.457
 6905TIP3    H120679   5.726   2.700   3.517
 6905TIP3    H220680   5.608   2.795   3.511
 6906TIP3   OH220681   3.542   5.390   3.222
 6906TIP3    H120682   3.567   5.298   3.231
 6906TIP3    H220683   3.623   5.435   3.200
 6907TIP3   OH220684   4.620   0.508   2.275
 6907TIP3    H120685   4.665   0.455   2.341
 6907TIP3    H220686   4.527   0.491   2.291
 6908TIP3   OH220687   2.541   6.315   3.226
 6908TIP3    H120688   2.448   6.302   3.208
 6908TIP3    H220689   2.546   6.319   3.322
 6909TIP3   OH220690   6.755   4.986   2.278
 6909TIP3    H120691   6.842   4.948   2.267
 6909TIP3    H220692   6.701   4.942   2.212
 6910TIP3   OH220693   2.442   0.957   0.926
 6910TIP3    H120694   2.432   0.963   0.831
 6910TIP3    H220695   2.528   0.917   0.938
 6911TIP3   OH220696   3.177   3.992   3.226
 6911TIP3    H120697   3.150   4.044   3.151
 6911TIP3    H220698   3.258   3.949   3.198
 6912TIP3   OH220699   3.266   0.200   1.459
 6912TIP3    H120700   3.330   0.239   1.519
 6912TIP3    H220701   3.185   0.195   1.510
 6913TIP3   OH220702   1.784   0.313   1.069
 6913TIP3    H120703   1.863   0.288   1.020
 6913TIP3    H220704   1.778   0.249   1.139
 6914TIP3   OH220705   4.475   6.036   3.182
 6914TIP3    H120706   4.513   6.040   3.270
 6914TIP3    H220707   4.518   6.107   3.134
 6915TIP3   OH220708   0.025   3.570   1.597
 6915TIP3    H120709  -0.021   3.527   1.526
 6915TIP3    H220710   0.097   3.616   1.554
 6916TIP3   OH220711   2.815   5.173   2.223
 6916TIP3    H120712   2.902   5.186   2.261
 6916TIP3    H220713   2.757   5.164   2.300
 6917TIP3   OH220714   1.130   5.748   2.536
 6917TIP3    H120715   1.127   5.695   2.456
 6917TIP3    H220716   1.076   5.699   2.598
 6918TIP3   OH220717   5.644   3.198   4.794
 6918TIP3    H120718   5.572   3.142   4.765
 6918TIP3    H220719   5.628   3.211   4.888
 6919TIP3   OH220720   7.094   2.464   4.821
 6919TIP3    H120721   7.032   2.531   4.851
 6919TIP3    H220722   7.055   2.430   4.740
 6920TIP3   OH220723   5.584   2.950   2.190
 6920TIP3    H120724   5.663   2.908   2.225
 6920TIP3    H220725   5.559   3.014   2.256
 6921TIP3   OH220726   3.586   5.645   2.379
 6921TIP3    H120727   3.677   5.672   2.372
 6921TIP3    H220728   3.581   5.601   2.464
 6922TIP3   OH220729   5.928   4.452   0.923
 6922TIP3    H120730   5.913   4.425   1.013
 6922TIP3    H220731   5.880   4.388   0.870
 6923TIP3   OH220732   6.737   2.827   5.087
 6923TIP3    H120733   6.802   2.777   5.136
 6923TIP3    H220734   6.663   2.838   5.147
 6924TIP3   OH220735   4.833   2.418   4.221
 6924TIP3    H120736   4.824   2.479   4.294
 6924TIP3    H220737   4.759   2.358   4.230
 6925TIP3   OH220738   2.147   0.569   3.561
 6925TIP3    H120739   2.168   0.527   3.644
 6925TIP3    H220740   2.177   0.507   3.494
 6926TIP3   OH220741   5.084   2.262   4.294
 6926TIP3    H120742   4.997   2.298   4.276
 6926TIP3    H220743   5.138   2.295   4.223
 6927TIP3   OH220744   1.171   6.349   1.876
 6927TIP3    H120745   1.202   6.380   1.961
 6927TIP3    H220746   1.216   6.265   1.864
 6928TIP3   OH220747   5.928   2.625   5.178
 6928TIP3    H120748   6.011   2.665   5.205
 6928TIP3    H220749   5.953   2.559   5.114
 6929TIP3   OH220750   4.922   0.518   1.165
 6929TIP3    H120751   4.986   0.551   1.101
 6929TIP3    H220752   4.841   0.509   1.115
 6930TIP3   OH220753   3.150   6.124   3.689
 6930TIP3    H120754   3.121   6.089   3.604
 6930TIP3    H220755   3.187   6.048   3.734
 6931TIP3   OH220756   4.810   2.236   3.824
 6931TIP3    H120757   4.755   2.249   3.747
 6931TIP3    H220758   4.814   2.141   3.834
 6932TIP3   OH220759   4.828   4.833   5.410
 6932TIP3    H120760   4.909   4.827   5.460
 6932TIP3    H220761   4.772   4.892   5.461
 6933TIP3   OH220762   6.647   3.692   0.806
 6933TIP3    H120763   6.721   3.752   0.815
 6933TIP3    H220764   6.571   3.744   0.830
 6934TIP3   OH220765   7.127   6.479   0.726
 6934TIP3    H120766   7.189   6.476   0.799
 6934TIP3    H220767   7.152   6.558   0.677
 6935TIP3   OH220768   6.869   0.868   1.312
 6935TIP3    H120769   6.809   0.794   1.302
 6935TIP3    H220770   6.865   0.913   1.228
 6936TIP3   OH220771   4.393   4.383   0.175
 6936TIP3    H120772   4.400   4.373   0.269
 6936TIP3    H220773   4.299   4.378   0.157
 6937TIP3   OH220774   2.483   2.490   1.135
 6937TIP3    H120775   2.562   2.490   1.082
 6937TIP3    H220776   2.411   2.485   1.072
 6938TIP3   OH220777   0.541   0.180   2.055
 6938TIP3    H120778   0.534   0.149   1.965
 6938TIP3    H220779   0.487   0.119   2.105
 6939TIP3   OH220780   7.199   4.633   5.229
 6939TIP3    H120781   7.207   4.539   5.214
 6939TIP3    H220782   7.111   4.656   5.199
 6940TIP3   OH220783   4.685   2.419   4.476
 6940TIP3    H120784   4.599   2.447   4.445
 6940TIP3    H220785   4.670   2.335   4.518
 6941TIP3   OH220786   6.727   2.272   0.597
 6941TIP3    H120787   6.735   2.251   0.504
 6941TIP3    H220788   6.634   2.259   0.616
 6942TIP3   OH220789   0.309   0.284   2.936
 6942TIP3    H120790   0.298   0.374   2.904
 6942TIP3    H220791   0.308   0.229   2.858
 6943TIP3   OH220792   2.895   4.146   0.748
 6943TIP3    H120793   2.863   4.097   0.673
 6943TIP3    H220794   2.816   4.178   0.792
 6944TIP3   OH220795   0.344   0.009   2.180
 6944TIP3    H120796   0.320   0.075   2.245
 6944TIP3    H220797   0.364  -0.069   2.231
 6945TIP3   OH220798   3.486   1.052   2.012
 6945TIP3    H120799   3.560   1.030   1.956
 6945TIP3    H220800   3.519   1.121   2.070
 6946TIP3   OH220801   5.901   4.032   2.486
 6946TIP3    H120802   5.962   4.046   2.558
 6946TIP3    H220803   5.957   4.019   2.409
 6947TIP3   OH220804   6.111   3.305   2.434
 6947TIP3    H120805   6.154   3.235   2.483
 6947TIP3    H220806   6.018   3.283   2.437
 6948TIP3   OH220807   3.547   5.772   1.133
 6948TIP3    H120808   3.581   5.753   1.045
 6948TIP3    H220809   3.534   5.867   1.133
 6949TIP3   OH220810   3.828   6.348   4.640
 6949TIP3    H120811   3.824   6.444   4.638
 6949TIP3    H220812   3.758   6.320   4.580
 6950TIP3   OH220813   1.506   3.146   0.806
 6950TIP3    H120814   1.412   3.141   0.792
 6950TIP3    H220815   1.530   3.059   0.837
 6951TIP3   OH220816   2.151   4.141   4.890
 6951TIP3    H120817   2.084   4.172   4.951
 6951TIP3    H220818   2.123   4.173   4.805
 6952TIP3   OH220819   1.012   5.110   2.171
 6952TIP3    H120820   1.022   5.093   2.265
 6952TIP3    H220821   1.080   5.058   2.129
 6953TIP3   OH220822   6.538   0.225   2.045
 6953TIP3    H120823   6.511   0.317   2.038
 6953TIP3    H220824   6.596   0.223   2.120
 6954TIP3   OH220825   3.513   3.845   1.844
 6954TIP3    H120826   3.541   3.791   1.771
 6954TIP3    H220827   3.418   3.841   1.842
 6955TIP3   OH220828   3.200   4.837   0.363
 6955TIP3    H120829   3.150   4.758   0.381
 6955TIP3    H220830   3.269   4.838   0.430
 6956TIP3   OH220831   3.442   3.604   4.341
 6956TIP3    H120832   3.461   3.515   4.372
 6956TIP3    H220833   3.409   3.591   4.252
 6957TIP3   OH220834   6.966   4.890   2.530
 6957TIP3    H120835   6.943   4.982   2.515
 6957TIP3    H220836   7.029   4.892   2.602
 6958TIP3   OH220837   5.717   0.531   3.614
 6958TIP3    H120838   5.742   0.499   3.701
 6958TIP3    H220839   5.767   0.476   3.554
 6959TIP3   OH220840   0.544   3.626   1.302
 6959TIP3    H120841   0.514   3.715   1.318
 6959TIP3    H220842   0.634   3.624   1.334
 6960TIP3   OH220843   7.194   1.315   3.454
 6960TIP3    H120844   7.119   1.373   3.448
 6960TIP3    H220845   7.167   1.246   3.515
 6961TIP3   OH220846   6.695   2.110   3.976
 6961TIP3    H120847   6.785   2.137   3.962
 6961TIP3    H220848   6.681   2.122   4.070
 6962TIP3   OH220849   3.546   0.926   5.142
 6962TIP3    H120850   3.490   0.865   5.190
 6962TIP3    H220851   3.504   0.936   5.057
 6963TIP3   OH220852   2.509   6.765   4.952
 6963TIP3    H120853   2.473   6.843   4.994
 6963TIP3    H220854   2.439   6.737   4.892
 6964TIP3   OH220855   6.750   3.964   1.828
 6964TIP3    H120856   6.803   4.044   1.829
 6964TIP3    H220857   6.688   3.978   1.756
 6965TIP3   OH220858   0.945   3.575   5.055
 6965TIP3    H120859   0.851   3.574   5.041
 6965TIP3    H220860   0.973   3.663   5.029
 6966TIP3   OH220861   5.806   0.384   3.817
 6966TIP3    H120862   5.852   0.381   3.901
 6966TIP3    H220863   5.820   0.297   3.779
 6967TIP3   OH220864   0.565   4.562   3.903
 6967TIP3    H120865   0.483   4.595   3.940
 6967TIP3    H220866   0.597   4.499   3.968
 6968TIP3   OH220867   5.558   3.562   4.153
 6968TIP3    H120868   5.635   3.617   4.138
 6968TIP3    H220869   5.568   3.489   4.092
 6969TIP3   OH220870   5.788   1.499   3.341
 6969TIP3    H120871   5.821   1.537   3.423
 6969TIP3    H220872   5.861   1.507   3.280
 6970TIP3   OH220873   4.679   2.810   2.972
 6970TIP3    H120874   4.703   2.865   3.046
 6970TIP3    H220875   4.760   2.767   2.947
 6971TIP3   OH220876   1.439   6.038   3.628
 6971TIP3    H120877   1.349   6.073   3.628
 6971TIP3    H220878   1.493   6.111   3.599
 6972TIP3   OH220879   4.850   1.602   5.139
 6972TIP3    H120880   4.838   1.671   5.205
 6972TIP3    H220881   4.805   1.526   5.175
 6973TIP3   OH220882   6.183   0.202   0.983
 6973TIP3    H120883   6.264   0.232   0.943
 6973TIP3    H220884   6.141   0.281   1.015
 6974TIP3   OH220885   2.898   3.685   5.034
 6974TIP3    H120886   2.820   3.654   4.988
 6974TIP3    H220887   2.954   3.608   5.042
 6975TIP3   OH220888   6.671   4.033   3.146
 6975TIP3    H120889   6.703   3.947   3.121
 6975TIP3    H220890   6.687   4.038   3.240
 6976TIP3   OH220891   3.035   0.249   2.098
 6976TIP3    H120892   3.104   0.295   2.050
 6976TIP3    H220893   3.007   0.179   2.039
 6977TIP3   OH220894   5.435   2.828   5.239
 6977TIP3    H120895   5.442   2.815   5.333
 6977TIP3    H220896   5.481   2.753   5.201
 6978TIP3   OH220897   7.050   6.568   1.178
 6978TIP3    H120898   6.957   6.573   1.159
 6978TIP3    H220899   7.059   6.605   1.266
 6979TIP3   OH220900   1.367   6.342   3.248
 6979TIP3    H120901   1.314   6.263   3.239
 6979TIP3    H220902   1.411   6.351   3.163
 6980TIP3   OH220903   1.058   2.990   2.190
 6980TIP3    H120904   1.007   3.049   2.247
 6980TIP3    H220905   1.099   3.048   2.126
 6981TIP3   OH220906   0.406   2.679   5.111
 6981TIP3    H120907   0.453   2.686   5.028
 6981TIP3    H220908   0.473   2.657   5.175
 6982TIP3   OH220909   0.286   3.961   1.272
 6982TIP3    H120910   0.342   4.023   1.318
 6982TIP3    H220911   0.296   3.982   1.179
 6983TIP3   OH220912   4.632   6.729   2.621
 6983TIP3    H120913   4.647   6.823   2.627
 6983TIP3    H220914   4.592   6.716   2.535
 6984TIP3   OH220915   2.508   5.874   2.735
 6984TIP3    H120916   2.599   5.885   2.762
 6984TIP3    H220917   2.507   5.793   2.684
 6985TIP3   OH220918   6.090   6.171   3.610
 6985TIP3    H120919   5.995   6.173   3.619
 6985TIP3    H220920   6.123   6.214   3.688
 6986TIP3   OH220921   1.105   4.238   3.532
 6986TIP3    H120922   1.172   4.264   3.470
 6986TIP3    H220923   1.113   4.300   3.605
 6987TIP3   OH220924   1.756   0.932   0.423
 6987TIP3    H120925   1.667   0.912   0.451
 6987TIP3    H220926   1.807   0.855   0.451
 6988TIP3   OH220927   5.035   1.886   4.609
 6988TIP3    H120928   5.020   1.963   4.663
 6988TIP3    H220929   4.951   1.868   4.568
 6989TIP3   OH220930   3.312   1.516   3.192
 6989TIP3    H120931   3.242   1.579   3.176
 6989TIP3    H220932   3.391   1.569   3.202
 6990TIP3   OH220933   2.198   6.056   1.464
 6990TIP3    H120934   2.241   5.983   1.508
 6990TIP3    H220935   2.266   6.095   1.409
 6991TIP3   OH220936   3.606   1.516   4.743
 6991TIP3    H120937   3.674   1.501   4.809
 6991TIP3    H220938   3.639   1.589   4.691
 6992TIP3   OH220939   0.961   4.990   3.565
 6992TIP3    H120940   0.950   4.901   3.597
 6992TIP3    H220941   0.893   5.040   3.609
 6993TIP3   OH220942   5.609   5.454   4.223
 6993TIP3    H120943   5.670   5.454   4.150
 6993TIP3    H220944   5.604   5.545   4.250
 6994TIP3   OH220945   5.833   6.156   0.500
 6994TIP3    H120946   5.929   6.150   0.500
 6994TIP3    H220947   5.811   6.188   0.587
 6995TIP3   OH220948   1.761   1.692   1.205
 6995TIP3    H120949   1.829   1.708   1.139
 6995TIP3    H220950   1.693   1.645   1.157
 6996TIP3   OH220951   1.600   1.279   4.622
 6996TIP3    H120952   1.619   1.232   4.541
 6996TIP3    H220953   1.636   1.224   4.691
 6997TIP3   OH220954   3.972   0.590   4.286
 6997TIP3    H120955   3.989   0.605   4.193
 6997TIP3    H220956   3.879   0.567   4.290
 6998TIP3   OH220957   6.893   4.696   2.367
 6998TIP3    H120958   6.924   4.766   2.424
 6998TIP3    H220959   6.948   4.701   2.289
 6999TIP3   OH220960   3.449   6.814   4.222
 6999TIP3    H120961   3.381   6.838   4.158
 6999TIP3    H220962   3.449   6.718   4.222
 7000TIP3   OH220963   3.895   4.353   1.316
 7000TIP3    H120964   3.962   4.371   1.381
 7000TIP3    H220965   3.813   4.352   1.366
 7001TIP3   OH220966   6.570   5.344   5.376
 7001TIP3    H120967   6.658   5.309   5.382
 7001TIP3    H220968   6.553   5.381   5.463
 7002TIP3   OH220969   1.877   6.226   2.266
 7002TIP3    H120970   1.911   6.227   2.176
 7002TIP3    H220971   1.949   6.260   2.319
 7003TIP3   OH220972   4.330   6.317   2.940
 7003TIP3    H120973   4.399   6.273   2.989
 7003TIP3    H220974   4.370   6.401   2.914
 7004TIP3   OH220975   4.481   5.798   0.523
 7004TIP3    H120976   4.524   5.876   0.488
 7004TIP3    H220977   4.401   5.831   0.564
 7005TIP3   OH220978   3.595   1.099   0.706
 7005TIP3    H120979   3.669   1.117   0.648
 7005TIP3    H220980   3.604   1.164   0.776
 7006TIP3   OH220981   6.753   2.606   1.725
 7006TIP3    H120982   6.707   2.673   1.776
 7006TIP3    H220983   6.834   2.591   1.773
 7007TIP3   OH220984   1.896   3.646   4.067
 7007TIP3    H120985   1.962   3.609   4.008
 7007TIP3    H220986   1.828   3.679   4.008
 7008TIP3   OH220987   4.102   6.715   2.315
 7008TIP3    H120988   4.113   6.774   2.390
 7008TIP3    H220989   4.119   6.628   2.350
 7009TIP3   OH220990   7.105   2.380   5.888
 7009TIP3    H120991   7.168   2.397   5.818
 7009TIP3    H220992   7.159   2.360   5.965
 7010TIP3   OH220993   3.079   2.036   3.955
 7010TIP3    H120994   3.022   2.090   4.010
 7010TIP3    H220995   3.160   2.086   3.948
 7011TIP3   OH220996   1.572   0.444   3.199
 7011TIP3    H120997   1.547   0.369   3.144
 7011TIP3    H220998   1.504   0.448   3.266
 7012TIP3   OH220999   5.968   3.923   0.938
 7012TIP3    H121000   5.916   3.972   1.001
 7012TIP3    H221001   6.042   3.980   0.916
 7013TIP3   OH221002   5.007   4.272   2.287
 7013TIP3    H121003   5.053   4.317   2.217
 7013TIP3    H221004   4.934   4.329   2.309
 7014TIP3   OH221005   4.008   1.928   3.503
 7014TIP3    H121006   4.011   1.858   3.568
 7014TIP3    H221007   3.960   1.998   3.545
 7015TIP3   OH221008   2.375   4.855   4.106
 7015TIP3    H121009   2.381   4.791   4.035
 7015TIP3    H221010   2.355   4.803   4.184
 7016TIP3   OH221011   6.453   2.116   4.570
 7016TIP3    H121012   6.533   2.163   4.547
 7016TIP3    H221013   6.450   2.119   4.666
 7017TIP3   OH221014   2.309   5.649   3.274
 7017TIP3    H121015   2.375   5.717   3.284
 7017TIP3    H221016   2.291   5.648   3.180
 7018TIP3   OH221017   3.429   0.135   2.013
 7018TIP3    H121018   3.390   0.075   2.075
 7018TIP3    H221019   3.367   0.208   2.007
 7019TIP3   OH221020   6.966   2.247   0.294
 7019TIP3    H121021   7.025   2.220   0.365
 7019TIP3    H221022   7.024   2.265   0.220
 7020TIP3   OH221023   0.946   0.285   3.945
 7020TIP3    H121024   0.970   0.359   4.000
 7020TIP3    H221025   1.029   0.242   3.925
 7021TIP3   OH221026   5.282   2.066   1.818
 7021TIP3    H121027   5.337   2.069   1.897
 7021TIP3    H221028   5.192   2.074   1.851
 7022TIP3   OH221029   0.842   1.778   4.642
 7022TIP3    H121030   0.828   1.823   4.558
 7022TIP3    H221031   0.803   1.835   4.707
 7023TIP3   OH221032   4.569   0.452   3.818
 7023TIP3    H121033   4.558   0.417   3.906
 7023TIP3    H221034   4.599   0.542   3.831
 7024TIP3   OH221035   3.027   0.715   2.219
 7024TIP3    H121036   2.940   0.674   2.217
 7024TIP3    H221037   3.010   0.807   2.197
 7025TIP3   OH221038   2.281   6.519   3.096
 7025TIP3    H121039   2.271   6.432   3.135
 7025TIP3    H221040   2.202   6.567   3.124
 7026TIP3   OH221041   2.232   6.103   3.427
 7026TIP3    H121042   2.178   6.046   3.371
 7026TIP3    H221043   2.279   6.042   3.483
 7027TIP3   OH221044   3.654   0.684   5.340
 7027TIP3    H121045   3.654   0.624   5.415
 7027TIP3    H221046   3.676   0.769   5.379
 7028TIP3   OH221047   1.985   2.200   5.655
 7028TIP3    H121048   2.033   2.265   5.705
 7028TIP3    H221049   2.025   2.117   5.679
 7029TIP3   OH221050   2.453   0.290   5.725
 7029TIP3    H121051   2.493   0.316   5.642
 7029TIP3    H221052   2.519   0.237   5.769
 7030TIP3   OH221053   6.735   4.838   1.534
 7030TIP3    H121054   6.797   4.794   1.592
 7030TIP3    H221055   6.722   4.777   1.461
 7031TIP3   OH221056   6.517   3.214   4.729
 7031TIP3    H121057   6.548   3.209   4.819
 7031TIP3    H221058   6.559   3.292   4.693
 7032TIP3   OH221059   4.738   5.543   1.968
 7032TIP3    H121060   4.828   5.574   1.953
 7032TIP3    H221061   4.730   5.538   2.063
 7033TIP3   OH221062   3.900   4.195   3.414
 7033TIP3    H121063   3.808   4.212   3.433
 7033TIP3    H221064   3.898   4.118   3.356
 7034TIP3   OH221065   4.472   0.179   5.267
 7034TIP3    H121066   4.487   0.216   5.180
 7034TIP3    H221067   4.478   0.085   5.255
 7035TIP3   OH221068   0.692   2.234   5.349
 7035TIP3    H121069   0.702   2.168   5.280
 7035TIP3    H221070   0.598   2.238   5.365
 7036TIP3   OH221071   3.987   4.703   1.885
 7036TIP3    H121072   3.991   4.775   1.948
 7036TIP3    H221073   4.074   4.663   1.888
 7037TIP3   OH221074   7.171   5.255   2.354
 7037TIP3    H121075   7.195   5.177   2.404
 7037TIP3    H221076   7.112   5.304   2.411
 7038TIP3   OH221077   5.253   1.172   5.370
 7038TIP3    H121078   5.243   1.234   5.442
 7038TIP3    H221079   5.344   1.185   5.341
 7039TIP3   OH221080   1.049   4.763   0.398
 7039TIP3    H121081   1.097   4.709   0.460
 7039TIP3    H221082   1.096   4.753   0.316
 7040TIP3   OH221083   4.032   3.214   4.754
 7040TIP3    H121084   4.049   3.273   4.681
 7040TIP3    H221085   4.109   3.157   4.757
 7041TIP3   OH221086   6.023   2.814   4.411
 7041TIP3    H121087   5.966   2.889   4.428
 7041TIP3    H221088   5.978   2.764   4.343
 7042TIP3   OH221089   4.152   6.137   0.854
 7042TIP3    H121090   4.078   6.149   0.795
 7042TIP3    H221091   4.178   6.227   0.877
 7043TIP3   OH221092   4.097   2.237   2.043
 7043TIP3    H121093   4.061   2.215   1.957
 7043TIP3    H221094   4.071   2.328   2.058
 7044TIP3   OH221095   6.428   4.533   2.707
 7044TIP3    H121096   6.475   4.599   2.656
 7044TIP3    H221097   6.349   4.579   2.737
 7045TIP3   OH221098   2.686   4.315   2.443
 7045TIP3    H121099   2.605   4.322   2.494
 7045TIP3    H221100   2.693   4.399   2.398
 7046TIP3   OH221101   4.396   1.137   2.519
 7046TIP3    H121102   4.366   1.207   2.577
 7046TIP3    H221103   4.318   1.084   2.504
 7047TIP3   OH221104   7.029   2.118   3.202
 7047TIP3    H121105   6.991   2.080   3.123
 7047TIP3    H221106   7.101   2.059   3.225
 7048TIP3   OH221107   0.377   1.378   4.275
 7048TIP3    H121108   0.342   1.467   4.271
 7048TIP3    H221109   0.469   1.389   4.298
 7049TIP3   OH221110   3.610   4.202   4.950
 7049TIP3    H121111   3.684   4.169   5.001
 7049TIP3    H221112   3.631   4.179   4.859
 7050TIP3   OH221113   0.687   1.238   2.738
 7050TIP3    H121114   0.616   1.178   2.758
 7050TIP3    H221115   0.749   1.186   2.687
 7051TIP3   OH221116   3.254   5.328   5.081
 7051TIP3    H121117   3.313   5.387   5.129
 7051TIP3    H221118   3.168   5.345   5.119
 7052TIP3   OH221119   5.790   0.066   4.629
 7052TIP3    H121120   5.797  -0.008   4.690
 7052TIP3    H221121   5.852   0.045   4.559
 7053TIP3   OH221122   1.178   0.273   1.046
 7053TIP3    H121123   1.262   0.229   1.030
 7053TIP3    H221124   1.116   0.203   1.061
 7054TIP3   OH221125   6.075   5.037   4.961
 7054TIP3    H121126   6.156   5.072   4.926
 7054TIP3    H221127   6.006   5.074   4.905
 7055TIP3   OH221128   0.796   4.218   1.579
 7055TIP3    H121129   0.812   4.271   1.501
 7055TIP3    H221130   0.786   4.282   1.649
 7056TIP3   OH221131   3.373   5.057   5.085
 7056TIP3    H121132   3.337   5.142   5.061
 7056TIP3    H221133   3.352   5.047   5.177
 7057TIP3   OH221134   3.465   5.130   2.348
 7057TIP3    H121135   3.451   5.206   2.292
 7057TIP3    H221136   3.390   5.073   2.329
 7058TIP3   OH221137   3.816   5.850   3.510
 7058TIP3    H121138   3.821   5.921   3.446
 7058TIP3    H221139   3.841   5.891   3.593
 7059TIP3   OH221140   4.750   3.471   5.564
 7059TIP3    H121141   4.811   3.512   5.504
 7059TIP3    H221142   4.742   3.381   5.532
 7060TIP3   OH221143   5.052   6.721   0.055
 7060TIP3    H121144   5.055   6.676   0.140
 7060TIP3    H221145   5.096   6.804   0.071
 7061TIP3   OH221146   0.529   0.102   5.402
 7061TIP3    H121147   0.543   0.187   5.360
 7061TIP3    H221148   0.440   0.078   5.379
 7062TIP3   OH221149   2.200   6.341   0.539
 7062TIP3    H121150   2.151   6.281   0.483
 7062TIP3    H221151   2.256   6.284   0.592
 7063TIP3   OH221152   6.716   1.583   5.911
 7063TIP3    H121153   6.654   1.539   5.970
 7063TIP3    H221154   6.702   1.541   5.826
 7064TIP3   OH221155   4.276   6.599   1.237
 7064TIP3    H121156   4.248   6.516   1.276
 7064TIP3    H221157   4.237   6.667   1.293
 7065TIP3   OH221158   5.672   2.559   0.396
 7065TIP3    H121159   5.630   2.474   0.391
 7065TIP3    H221160   5.716   2.570   0.311
 7066TIP3   OH221161   4.298   6.049   4.324
 7066TIP3    H121162   4.333   5.965   4.295
 7066TIP3    H221163   4.248   6.029   4.402
 7067TIP3   OH221164   1.884   6.515   1.870
 7067TIP3    H121165   1.949   6.552   1.929
 7067TIP3    H221166   1.834   6.590   1.839
 7068TIP3   OH221167   6.420   2.993   1.486
 7068TIP3    H121168   6.495   2.943   1.454
 7068TIP3    H221169   6.348   2.969   1.427
 7069TIP3   OH221170   0.017   1.883   0.415
 7069TIP3    H121171   0.034   1.969   0.378
 7069TIP3    H221172   0.003   1.899   0.508
 7070TIP3   OH221173   2.888   6.501   2.874
 7070TIP3    H121174   2.826   6.469   2.939
 7070TIP3    H221175   2.963   6.532   2.925
 7071TIP3   OH221176   6.863   3.520   4.979
 7071TIP3    H121177   6.877   3.442   5.032
 7071TIP3    H221178   6.944   3.530   4.929
 7072TIP3   OH221179   3.639   3.442   2.052
 7072TIP3    H121180   3.733   3.461   2.045
 7072TIP3    H221181   3.600   3.487   1.977
 7073TIP3   OH221182   5.931   1.457   4.073
 7073TIP3    H121183   5.957   1.489   3.986
 7073TIP3    H221184   6.001   1.398   4.099
 7074TIP3   OH221185   0.743   1.410   3.739
 7074TIP3    H121186   0.684   1.343   3.772
 7074TIP3    H221187   0.703   1.493   3.769
 7075TIP3   OH221188   1.304   3.806   2.974
 7075TIP3    H121189   1.230   3.866   2.978
 7075TIP3    H221190   1.348   3.827   2.892
 7076TIP3   OH221191   3.261   1.416   4.289
 7076TIP3    H121192   3.230   1.325   4.298
 7076TIP3    H221193   3.270   1.447   4.379
 7077TIP3   OH221194   0.304   1.177   0.448
 7077TIP3    H121195   0.256   1.256   0.420
 7077TIP3    H221196   0.295   1.176   0.543
 7078TIP3   OH221197   6.451   6.687   2.114
 7078TIP3    H121198   6.511   6.618   2.084
 7078TIP3    H221199   6.378   6.684   2.053
 7079TIP3   OH221200   4.015   3.126   5.682
 7079TIP3    H121201   3.974   3.181   5.749
 7079TIP3    H221202   4.105   3.115   5.711
 7080TIP3   OH221203   4.459   6.391   4.898
 7080TIP3    H121204   4.458   6.400   4.803
 7080TIP3    H221205   4.475   6.480   4.930
 7081TIP3   OH221206   0.123   3.785   5.566
 7081TIP3    H121207   0.146   3.692   5.562
 7081TIP3    H221208   0.027   3.786   5.560
 7082TIP3   OH221209   6.599   6.014   5.814
 7082TIP3    H121210   6.555   5.961   5.748
 7082TIP3    H221211   6.573   6.104   5.795
 7083TIP3   OH221212   5.190   2.292   3.747
 7083TIP3    H121213   5.214   2.266   3.658
 7083TIP3    H221214   5.122   2.230   3.773
 7084TIP3   OH221215   4.916   3.235   1.566
 7084TIP3    H121216   5.006   3.239   1.534
 7084TIP3    H221217   4.922   3.184   1.647
 7085TIP3   OH221218   4.545   2.514   3.796
 7085TIP3    H121219   4.597   2.445   3.755
 7085TIP3    H221220   4.533   2.484   3.886
 7086TIP3   OH221221   6.801   4.054   0.992
 7086TIP3    H121222   6.893   4.070   1.014
 7086TIP3    H221223   6.772   3.990   1.057
 7087TIP3   OH221224   5.596   5.245   2.347
 7087TIP3    H121225   5.557   5.159   2.329
 7087TIP3    H221226   5.586   5.258   2.441
 7088TIP3   OH221227   0.980   1.343   3.292
 7088TIP3    H121228   0.978   1.248   3.284
 7088TIP3    H221229   0.902   1.364   3.343
 7089TIP3   OH221230   1.761   3.872   3.372
 7089TIP3    H121231   1.754   3.813   3.447
 7089TIP3    H221232   1.671   3.879   3.339
 7090TIP3   OH221233   3.622   6.570   4.181
 7090TIP3    H121234   3.672   6.587   4.260
 7090TIP3    H221235   3.581   6.485   4.197
 7091TIP3   OH221236   2.937   1.698   0.101
 7091TIP3    H121237   2.936   1.789   0.073
 7091TIP3    H221238   2.846   1.678   0.124
 7092TIP3   OH221239   1.659   0.078   2.414
 7092TIP3    H121240   1.687   0.157   2.459
 7092TIP3    H221241   1.650   0.104   2.323
 7093TIP3   OH221242   2.230   0.259   4.359
 7093TIP3    H121243   2.195   0.302   4.280
 7093TIP3    H221244   2.254   0.332   4.417
 7094TIP3   OH221245   3.119   4.237   3.693
 7094TIP3    H121246   3.131   4.326   3.728
 7094TIP3    H221247   3.068   4.250   3.613
 7095TIP3   OH221248   3.481   6.500   3.387
 7095TIP3    H121249   3.545   6.568   3.365
 7095TIP3    H221250   3.533   6.422   3.404
 7096TIP3   OH221251   4.159   2.749   2.804
 7096TIP3    H121252   4.251   2.771   2.813
 7096TIP3    H221253   4.113   2.817   2.853
 7097TIP3   OH221254   0.774   0.060   4.543
 7097TIP3    H121255   0.842   0.084   4.605
 7097TIP3    H221256   0.693   0.097   4.580
 7098TIP3   OH221257   5.179   4.070   3.903
 7098TIP3    H121258   5.267   4.105   3.912
 7098TIP3    H221259   5.176   3.997   3.965
 7099TIP3   OH221260   2.104   1.720   3.372
 7099TIP3    H121261   2.037   1.724   3.440
 7099TIP3    H221262   2.181   1.683   3.415
 7100TIP3   OH221263   2.646   4.654   1.862
 7100TIP3    H121264   2.636   4.560   1.878
 7100TIP3    H221265   2.657   4.692   1.949
 7101TIP3   OH221266   1.830   0.604   1.056
 7101TIP3    H121267   1.882   0.600   1.135
 7101TIP3    H221268   1.797   0.515   1.043
 7102TIP3   OH221269   5.304   0.165   2.162
 7102TIP3    H121270   5.350   0.176   2.245
 7102TIP3    H221271   5.234   0.103   2.180
 7103TIP3   OH221272   6.380   6.569   4.009
 7103TIP3    H121273   6.416   6.583   4.097
 7103TIP3    H221274   6.383   6.474   3.998
 7104TIP3   OH221275   6.996   6.049   2.457
 7104TIP3    H121276   7.038   5.963   2.454
 7104TIP3    H221277   6.998   6.073   2.549
 7105TIP3   OH221278   2.378   2.782   1.454
 7105TIP3    H121279   2.412   2.769   1.543
 7105TIP3    H221280   2.444   2.742   1.397
 7106TIP3   OH221281   3.662   6.182   1.066
 7106TIP3    H121282   3.716   6.245   1.019
 7106TIP3    H221283   3.596   6.235   1.111
 7107TIP3   OH221284   0.910   4.198   4.873
 7107TIP3    H121285   0.876   4.286   4.888
 7107TIP3    H221286   0.857   4.142   4.931
 7108TIP3   OH221287   0.715   0.899   2.279
 7108TIP3    H121288   0.762   0.868   2.201
 7108TIP3    H221289   0.676   0.820   2.317
 7109TIP3   OH221290   2.433   2.329   0.741
 7109TIP3    H121291   2.381   2.407   0.762
 7109TIP3    H221292   2.510   2.363   0.694
 7110TIP3   OH221293   4.587   5.103   0.190
 7110TIP3    H121294   4.545   5.082   0.274
 7110TIP3    H221295   4.590   5.199   0.189
 7111TIP3   OH221296   4.774   4.412   5.655
 7111TIP3    H121297   4.723   4.368   5.723
 7111TIP3    H221298   4.858   4.367   5.657
 7112TIP3   OH221299   5.674   5.943   1.678
 7112TIP3    H121300   5.584   5.964   1.652
 7112TIP3    H221301   5.716   6.029   1.689
 7113TIP3   OH221302   1.868   6.486   4.508
 7113TIP3    H121303   1.835   6.548   4.444
 7113TIP3    H221304   1.923   6.426   4.458
 7114TIP3   OH221305   6.208   0.416   5.363
 7114TIP3    H121306   6.168   0.416   5.450
 7114TIP3    H221307   6.273   0.487   5.366
 7115TIP3   OH221308   4.686   6.134   1.716
 7115TIP3    H121309   4.757   6.126   1.653
 7115TIP3    H221310   4.712   6.206   1.773
 7116TIP3   OH221311   5.980   2.857   1.162
 7116TIP3    H121312   6.046   2.792   1.188
 7116TIP3    H221313   6.030   2.938   1.154
 7117TIP3   OH221314   0.614   3.707   3.282
 7117TIP3    H121315   0.524   3.674   3.272
 7117TIP3    H221316   0.668   3.628   3.280
 7118TIP3   OH221317   4.772   3.351   4.926
 7118TIP3    H121318   4.717   3.321   4.853
 7118TIP3    H221319   4.759   3.446   4.928
 7119TIP3   OH221320   2.679   4.882   5.507
 7119TIP3    H121321   2.620   4.869   5.581
 7119TIP3    H221322   2.706   4.794   5.481
 7120TIP3   OH221323   1.669   3.460   0.450
 7120TIP3    H121324   1.618   3.470   0.531
 7120TIP3    H221325   1.614   3.405   0.394
 7121TIP3   OH221326   6.642   3.055   3.021
 7121TIP3    H121327   6.572   3.051   3.086
 7121TIP3    H221328   6.597   3.051   2.937
 7122TIP3   OH221329   0.241   5.185   3.032
 7122TIP3    H121330   0.241   5.096   3.067
 7122TIP3    H221331   0.237   5.174   2.937
 7123TIP3   OH221332   5.287   6.061   3.729
 7123TIP3    H121333   5.220   6.129   3.737
 7123TIP3    H221334   5.338   6.086   3.652
 7124TIP3   OH221335   6.714   0.627   0.038
 7124TIP3    H121336   6.786   0.685   0.015
 7124TIP3    H221337   6.734   0.598   0.128
 7125TIP3   OH221338   4.629   5.727   4.865
 7125TIP3    H121339   4.677   5.785   4.924
 7125TIP3    H221340   4.544   5.716   4.907
 7126TIP3   OH221341   5.678   2.164   1.529
 7126TIP3    H121342   5.672   2.245   1.478
 7126TIP3    H221343   5.604   2.111   1.499
 7127TIP3   OH221344   5.292   1.515   2.117
 7127TIP3    H121345   5.284   1.564   2.035
 7127TIP3    H221346   5.243   1.434   2.101
 7128TIP3   OH221347   0.505   3.851   0.063
 7128TIP3    H121348   0.572   3.891   0.008
 7128TIP3    H221349   0.458   3.791   0.005
 7129TIP3   OH221350   3.685   0.639   0.992
 7129TIP3    H121351   3.642   0.697   0.929
 7129TIP3    H221352   3.773   0.625   0.957
 7130TIP3   OH221353   6.024   6.222   5.802
 7130TIP3    H121354   6.014   6.223   5.707
 7130TIP3    H221355   6.087   6.292   5.821
 7131TIP3   OH221356   6.418   1.885   1.406
 7131TIP3    H121357   6.388   1.802   1.368
 7131TIP3    H221358   6.338   1.934   1.423
 7132TIP3   OH221359   5.850   0.085   1.870
 7132TIP3    H121360   5.892   0.164   1.836
 7132TIP3    H221361   5.920   0.020   1.874
 7133TIP3   OH221362   5.096   4.780   3.758
 7133TIP3    H121363   5.029   4.780   3.825
 7133TIP3    H221364   5.061   4.836   3.688
 7134TIP3   OH221365   3.288   3.485   1.286
 7134TIP3    H121366   3.278   3.493   1.191
 7134TIP3    H221367   3.209   3.438   1.314
 7135TIP3   OH221368   4.028   5.035   0.255
 7135TIP3    H121369   3.955   5.026   0.194
 7135TIP3    H221370   4.001   4.988   0.333
 7136TIP3   OH221371   1.369   2.187   1.994
 7136TIP3    H121372   1.380   2.225   1.907
 7136TIP3    H221373   1.374   2.092   1.980
 7137TIP3   OH221374   1.399   5.986   3.923
 7137TIP3    H121375   1.462   6.020   3.859
 7137TIP3    H221376   1.438   5.905   3.955
 7138TIP3   OH221377   4.246   3.567   0.802
 7138TIP3    H121378   4.335   3.575   0.767
 7138TIP3    H221379   4.245   3.624   0.879
 7139TIP3   OH221380   7.101   1.807   0.191
 7139TIP3    H121381   7.146   1.810   0.275
 7139TIP3    H221382   7.171   1.817   0.126
 7140TIP3   OH221383   4.225   2.047   0.614
 7140TIP3    H121384   4.273   2.077   0.536
 7140TIP3    H221385   4.231   2.120   0.675
 7141TIP3   OH221386   3.066   5.273   3.444
 7141TIP3    H121387   3.066   5.342   3.509
 7141TIP3    H221388   3.155   5.271   3.410
 7142TIP3   OH221389   1.601   2.525   4.630
 7142TIP3    H121390   1.612   2.566   4.715
 7142TIP3    H221391   1.543   2.451   4.646
 7143TIP3   OH221392   0.877   6.344   1.789
 7143TIP3    H121393   0.972   6.355   1.798
 7143TIP3    H221394   0.861   6.351   1.695
 7144TIP3   OH221395   2.448   2.224   2.293
 7144TIP3    H121396   2.527   2.180   2.325
 7144TIP3    H221397   2.378   2.190   2.348
 7145TIP3   OH221398   1.685   4.571   3.712
 7145TIP3    H121399   1.725   4.611   3.635
 7145TIP3    H221400   1.699   4.477   3.701
 7146TIP3   OH221401   6.622   6.001   0.482
 7146TIP3    H121402   6.529   5.989   0.498
 7146TIP3    H221403   6.628   6.081   0.430
 7147TIP3   OH221404   3.419   2.867   1.950
 7147TIP3    H121405   3.360   2.804   1.909
 7147TIP3    H221406   3.451   2.922   1.878
 7148TIP3   OH221407   0.135   0.489   2.712
 7148TIP3    H121408   0.059   0.459   2.762
 7148TIP3    H221409   0.130   0.440   2.630
 7149TIP3   OH221410   3.643   1.198   0.258
 7149TIP3    H121411   3.715   1.139   0.237
 7149TIP3    H221412   3.635   1.192   0.354
 7150TIP3   OH221413   0.456   6.545   1.829
 7150TIP3    H121414   0.379   6.550   1.773
 7150TIP3    H221415   0.531   6.552   1.770
 7151TIP3   OH221416   4.203   6.424   0.888
 7151TIP3    H121417   4.139   6.486   0.851
 7151TIP3    H221418   4.272   6.480   0.924
 7152TIP3   OH221419   4.934   5.203   0.677
 7152TIP3    H121420   4.911   5.278   0.621
 7152TIP3    H221421   5.028   5.193   0.666
 7153TIP3   OH221422   2.846   5.975   3.131
 7153TIP3    H121423   2.763   6.020   3.118
 7153TIP3    H221424   2.854   5.967   3.225
 7154TIP3   OH221425   5.351   1.786   3.964
 7154TIP3    H121426   5.340   1.860   3.904
 7154TIP3    H221427   5.366   1.825   4.049
 7155TIP3   OH221428   0.642   0.899   0.264
 7155TIP3    H121429   0.715   0.887   0.324
 7155TIP3    H221430   0.564   0.890   0.319
 7156TIP3   OH221431   2.270   2.355   4.001
 7156TIP3    H121432   2.268   2.425   3.936
 7156TIP3    H221433   2.353   2.366   4.046
 7157TIP3   OH221434   3.345   6.088   5.254
 7157TIP3    H121435   3.265   6.084   5.305
 7157TIP3    H221436   3.408   6.034   5.303
 7158TIP3   OH221437   6.891   5.115   1.911
 7158TIP3    H121438   6.982   5.109   1.882
 7158TIP3    H221439   6.896   5.127   2.006
 7159TIP3   OH221440   6.560   5.592   1.116
 7159TIP3    H121441   6.608   5.665   1.155
 7159TIP3    H221442   6.514   5.551   1.189
 7160TIP3   OH221443   6.491   5.296   1.726
 7160TIP3    H121444   6.509   5.224   1.786
 7160TIP3    H221445   6.466   5.369   1.784
 7161TIP3   OH221446   6.452   0.676   5.002
 7161TIP3    H121447   6.442   0.770   4.990
 7161TIP3    H221448   6.374   0.650   5.052
 7162TIP3   OH221449   6.292   6.408   4.736
 7162TIP3    H121450   6.379   6.415   4.696
 7162TIP3    H221451   6.293   6.474   4.806
 7163TIP3   OH221452   4.293   1.931   2.376
 7163TIP3    H121453   4.317   1.848   2.336
 7163TIP3    H221454   4.213   1.958   2.331
 7164TIP3   OH221455   0.529   2.274   2.236
 7164TIP3    H121456   0.597   2.248   2.297
 7164TIP3    H221457   0.468   2.327   2.289
 7165TIP3   OH221458   2.765   2.411   2.467
 7165TIP3    H121459   2.730   2.399   2.555
 7165TIP3    H221460   2.688   2.424   2.412
 7166TIP3   OH221461   1.411   2.774   3.013
 7166TIP3    H121462   1.386   2.849   3.067
 7166TIP3    H221463   1.348   2.775   2.941
 7167TIP3   OH221464   2.832   6.761   5.461
 7167TIP3    H121465   2.776   6.823   5.414
 7167TIP3    H221466   2.784   6.678   5.459
 7168TIP3   OH221467   4.982   6.226   0.736
 7168TIP3    H121468   5.029   6.182   0.807
 7168TIP3    H221469   5.041   6.221   0.661
 7169TIP3   OH221470   5.442   2.787   2.447
 7169TIP3    H121471   5.527   2.823   2.421
 7169TIP3    H221472   5.419   2.726   2.377
 7170TIP3   OH221473   5.488   2.330   0.633
 7170TIP3    H121474   5.492   2.310   0.539
 7170TIP3    H221475   5.413   2.388   0.641
 7171TIP3   OH221476   6.554   3.485   3.419
 7171TIP3    H121477   6.595   3.494   3.333
 7171TIP3    H221478   6.576   3.566   3.465
 7172TIP3   OH221479   6.238   2.552   2.522
 7172TIP3    H121480   6.154   2.535   2.563
 7172TIP3    H221481   6.277   2.465   2.509
 7173TIP3   OH221482   2.017   1.409   3.292
 7173TIP3    H121483   1.941   1.461   3.265
 7173TIP3    H221484   2.083   1.425   3.224
 7174TIP3   OH221485   7.138   3.656   0.623
 7174TIP3    H121486   7.060   3.603   0.642
 7174TIP3    H221487   7.146   3.654   0.528
 7175TIP3   OH221488   2.607   5.356   2.995
 7175TIP3    H121489   2.665   5.331   2.922
 7175TIP3    H221490   2.635   5.300   3.067
 7176TIP3   OH221491   1.189   5.551   3.578
 7176TIP3    H121492   1.149   5.637   3.563
 7176TIP3    H221493   1.179   5.536   3.672
 7177TIP3   OH221494   4.205   2.613   0.200
 7177TIP3    H121495   4.207   2.595   0.106
 7177TIP3    H221496   4.122   2.574   0.230
 7178TIP3   OH221497   3.654   5.355   3.573
 7178TIP3    H121498   3.680   5.440   3.537
 7178TIP3    H221499   3.639   5.373   3.666
 7179TIP3   OH221500   0.702   0.339   3.694
 7179TIP3    H121501   0.731   0.250   3.715
 7179TIP3    H221502   0.619   0.349   3.741
 7180TIP3   OH221503   3.914   5.672   4.789
 7180TIP3    H121504   3.934   5.592   4.838
 7180TIP3    H221505   3.908   5.741   4.855
 7181TIP3   OH221506   3.797   0.260   1.987
 7181TIP3    H121507   3.825   0.338   2.035
 7181TIP3    H221508   3.869   0.198   1.999
 7182TIP3   OH221509   5.811   2.275   0.115
 7182TIP3    H121510   5.728   2.231   0.133
 7182TIP3    H221511   5.876   2.224   0.162
 7183TIP3   OH221512   2.745   4.008   0.542
 7183TIP3    H121513   2.669   4.011   0.600
 7183TIP3    H221514   2.757   3.915   0.524
 7184TIP3   OH221515   7.158   1.313   1.592
 7184TIP3    H121516   7.228   1.293   1.654
 7184TIP3    H221517   7.195   1.293   1.506
 7185TIP3   OH221518   5.140   4.049   3.603
 7185TIP3    H121519   5.137   3.954   3.589
 7185TIP3    H221520   5.138   4.060   3.698
 7186TIP3   OH221521   2.251   6.820   1.939
 7186TIP3    H121522   2.251   6.742   1.995
 7186TIP3    H221523   2.343   6.846   1.935
 7187TIP3   OH221524   3.333   2.694   1.229
 7187TIP3    H121525   3.317   2.601   1.210
 7187TIP3    H221526   3.427   2.699   1.245
 7188TIP3   OH221527   1.190   4.532   1.681
 7188TIP3    H121528   1.245   4.535   1.603
 7188TIP3    H221529   1.229   4.464   1.736
 7189TIP3   OH221530   5.364   5.100   2.389
 7189TIP3    H121531   5.354   5.011   2.354
 7189TIP3    H221532   5.347   5.090   2.483
 7190TIP3   OH221533   2.069   2.559   4.006
 7190TIP3    H121534   2.105   2.538   3.919
 7190TIP3    H221535   1.974   2.560   3.993
 7191TIP3   OH221536   3.812   1.441   5.855
 7191TIP3    H121537   3.778   1.509   5.798
 7191TIP3    H221538   3.739   1.419   5.913
 7192TIP3   OH221539   3.337   4.609   2.975
 7192TIP3    H121540   3.369   4.535   2.923
 7192TIP3    H221541   3.398   4.680   2.956
 7193TIP3   OH221542   1.079   5.925   1.286
 7193TIP3    H121543   1.122   5.844   1.260
 7193TIP3    H221544   1.014   5.898   1.350
 7194TIP3   OH221545   1.801   6.637   1.278
 7194TIP3    H121546   1.716   6.600   1.299
 7194TIP3    H221547   1.786   6.690   1.199
 7195TIP3   OH221548   5.489   2.582   1.200
 7195TIP3    H121549   5.577   2.620   1.206
 7195TIP3    H221550   5.431   2.652   1.230
 7196TIP3   OH221551   4.171   2.731   2.520
 7196TIP3    H121552   4.161   2.719   2.614
 7196TIP3    H221553   4.167   2.826   2.508
 7197TIP3   OH221554   5.047   6.203   0.162
 7197TIP3    H121555   5.133   6.167   0.141
 7197TIP3    H221556   5.064   6.262   0.237
 7198TIP3   OH221557   5.797   1.839   5.778
 7198TIP3    H121558   5.714   1.857   5.734
 7198TIP3    H221559   5.773   1.783   5.852
 7199TIP3   OH221560   6.053   1.246   2.762
 7199TIP3    H121561   6.077   1.164   2.803
 7199TIP3    H221562   6.135   1.283   2.730
 7200TIP3   OH221563   1.041   0.835   3.477
 7200TIP3    H121564   1.041   0.744   3.506
 7200TIP3    H221565   1.117   0.875   3.520
 7201TIP3   OH221566   5.463   0.482   0.037
 7201TIP3    H121567   5.528   0.552   0.041
 7201TIP3    H221568   5.381   0.524   0.060
 7202TIP3   OH221569   4.463   2.743   5.780
 7202TIP3    H121570   4.504   2.658   5.766
 7202TIP3    H221571   4.369   2.725   5.782
 7203TIP3   OH221572   2.998   0.833   2.927
 7203TIP3    H121573   2.997   0.924   2.898
 7203TIP3    H221574   3.008   0.782   2.847
 7204TIP3   OH221575   5.200   6.409   4.430
 7204TIP3    H121576   5.165   6.338   4.483
 7204TIP3    H221577   5.233   6.366   4.351
 7205TIP3   OH221578   2.908   1.408   0.804
 7205TIP3    H121579   2.850   1.484   0.807
 7205TIP3    H221580   2.879   1.352   0.875
 7206TIP3   OH221581   5.142   6.676   3.322
 7206TIP3    H121582   5.204   6.749   3.329
 7206TIP3    H221583   5.059   6.713   3.351
 7207TIP3   OH221584   3.701   5.210   1.903
 7207TIP3    H121585   3.625   5.169   1.945
 7207TIP3    H221586   3.769   5.211   1.970
 7208TIP3   OH221587   6.317   2.373   3.758
 7208TIP3    H121588   6.387   2.323   3.800
 7208TIP3    H221589   6.327   2.462   3.791
 7209TIP3   OH221590   3.186   3.868   5.542
 7209TIP3    H121591   3.182   3.963   5.553
 7209TIP3    H221592   3.144   3.852   5.457
 7210TIP3   OH221593   6.648   3.536   1.393
 7210TIP3    H121594   6.712   3.574   1.333
 7210TIP3    H221595   6.684   3.451   1.416
 7211TIP3   OH221596   5.796   2.707   0.991
 7211TIP3    H121597   5.792   2.798   0.960
 7211TIP3    H221598   5.793   2.714   1.086
 7212TIP3   OH221599   1.130   2.427   3.649
 7212TIP3    H121600   1.082   2.509   3.658
 7212TIP3    H221601   1.062   2.360   3.645
 7213TIP3   OH221602   1.172   3.401   2.501
 7213TIP3    H121603   1.209   3.323   2.461
 7213TIP3    H221604   1.237   3.470   2.484
 7214TIP3   OH221605   2.090   1.523   1.701
 7214TIP3    H121606   2.017   1.539   1.642
 7214TIP3    H221607   2.147   1.599   1.691
 7215TIP3   OH221608   1.738   3.686   3.584
 7215TIP3    H121609   1.830   3.659   3.594
 7215TIP3    H221610   1.690   3.604   3.574
 7216TIP3   OH221611   4.160   4.312  -0.066
 7216TIP3    H121612   4.206   4.374  -0.009
 7216TIP3    H221613   4.124   4.246  -0.006
 7217TIP3   OH221614   4.783   0.402   4.865
 7217TIP3    H121615   4.750   0.489   4.841
 7217TIP3    H221616   4.818   0.366   4.783
 7218TIP3   OH221617   1.346   3.706   3.423
 7218TIP3    H121618   1.356   3.800   3.411
 7218TIP3    H221619   1.255   3.694   3.450
 7219TIP3   OH221620   3.288   3.566   3.455
 7219TIP3    H121621   3.285   3.625   3.380
 7219TIP3    H221622   3.358   3.504   3.434
 7220TIP3   OH221623   0.674   2.229   4.533
 7220TIP3    H121624   0.685   2.324   4.529
 7220TIP3    H221625   0.598   2.216   4.589
 7221TIP3   OH221626   3.310   0.126   3.183
 7221TIP3    H121627   3.219   0.155   3.187
 7221TIP3    H221628   3.359   0.195   3.228
 7222TIP3   OH221629   1.285   2.489   2.110
 7222TIP3    H121630   1.189   2.488   2.105
 7222TIP3    H221631   1.311   2.398   2.096
 7223TIP3   OH221632   6.984   2.052   2.920
 7223TIP3    H121633   7.010   1.961   2.903
 7223TIP3    H221634   6.910   2.067   2.862
 7224TIP3   OH221635   6.738   0.595   1.670
 7224TIP3    H121636   6.771   0.667   1.722
 7224TIP3    H221637   6.685   0.543   1.730
 7225TIP3   OH221638   2.117   1.258   4.086
 7225TIP3    H121639   2.184   1.324   4.071
 7225TIP3    H221640   2.165   1.181   4.117
 7226TIP3   OH221641   4.955   2.860   4.950
 7226TIP3    H121642   5.024   2.797   4.972
 7226TIP3    H221643   4.874   2.815   4.974
 7227TIP3   OH221644   2.237   4.467   2.166
 7227TIP3    H121645   2.176   4.532   2.199
 7227TIP3    H221646   2.194   4.429   2.089
 7228TIP3   OH221647   0.186   4.735   4.990
 7228TIP3    H121648   0.227   4.731   4.903
 7228TIP3    H221649   0.118   4.668   4.987
 7229TIP3   OH221650   7.007   5.503   5.509
 7229TIP3    H121651   7.094   5.512   5.548
 7229TIP3    H221652   7.025   5.487   5.417
 7230TIP3   OH221653   4.751   3.058   3.880
 7230TIP3    H121654   4.680   3.117   3.903
 7230TIP3    H221655   4.823   3.115   3.853
 7231TIP3   OH221656   4.082   2.709   4.607
 7231TIP3    H121657   4.033   2.702   4.688
 7231TIP3    H221658   4.171   2.730   4.634
 7232TIP3   OH221659   3.656   4.138   4.675
 7232TIP3    H121660   3.692   4.049   4.667
 7232TIP3    H221661   3.711   4.191   4.616
 7233TIP3   OH221662   4.707   1.462   5.914
 7233TIP3    H121663   4.802   1.468   5.919
 7233TIP3    H221664   4.684   1.513   5.837
 7234TIP3   OH221665   6.444   4.099   4.965
 7234TIP3    H121666   6.443   4.004   4.954
 7234TIP3    H221667   6.371   4.117   5.025
 7235TIP3   OH221668   5.166   3.476   3.159
 7235TIP3    H121669   5.189   3.487   3.067
 7235TIP3    H221670   5.106   3.548   3.178
 7236TIP3   OH221671   6.320   4.288   1.928
 7236TIP3    H121672   6.359   4.315   1.845
 7236TIP3    H221673   6.252   4.354   1.945
 7237TIP3   OH221674   2.869   3.299   3.816
 7237TIP3    H121675   2.891   3.304   3.723
 7237TIP3    H221676   2.953   3.285   3.859
 7238TIP3   OH221677   4.565   0.640   2.559
 7238TIP3    H121678   4.562   0.628   2.654
 7238TIP3    H221679   4.492   0.587   2.527
 7239TIP3   OH221680   4.909   5.690   1.559
 7239TIP3    H121681   4.931   5.776   1.592
 7239TIP3    H221682   4.864   5.707   1.476
 7240TIP3   OH221683   5.613   5.070   5.299
 7240TIP3    H121684   5.671   5.023   5.359
 7240TIP3    H221685   5.535   5.089   5.352
 7241TIP3   OH221686   7.146   3.991   1.841
 7241TIP3    H121687   7.121   3.907   1.803
 7241TIP3    H221688   7.087   4.054   1.801
 7242TIP3   OH221689   4.634   3.877   5.056
 7242TIP3    H121690   4.573   3.824   5.108
 7242TIP3    H221691   4.602   3.966   5.063
 7243TIP3   OH221692   2.681   1.582   0.765
 7243TIP3    H121693   2.671   1.630   0.847
 7243TIP3    H221694   2.656   1.645   0.697
 7244TIP3   OH221695   3.685   6.424   0.536
 7244TIP3    H121696   3.695   6.330   0.553
 7244TIP3    H221697   3.593   6.442   0.556
 7245TIP3   OH221698   5.536   6.331   0.688
 7245TIP3    H121699   5.466   6.325   0.753
 7245TIP3    H221700   5.610   6.285   0.727
 7246TIP3   OH221701   2.073   4.235   5.868
 7246TIP3    H121702   2.130   4.220   5.792
 7246TIP3    H221703   2.000   4.286   5.833
 7247TIP3   OH221704   1.508   0.887   1.444
 7247TIP3    H121705   1.551   0.868   1.361
 7247TIP3    H221706   1.475   0.802   1.474
 7248TIP3   OH221707   0.695   2.982   0.200
 7248TIP3    H121708   0.713   2.947   0.287
 7248TIP3    H221709   0.658   3.068   0.216
 7249TIP3   OH221710   2.523   1.408   0.090
 7249TIP3    H121711   2.456   1.445   0.148
 7249TIP3    H221712   2.473   1.369   0.019
 7250TIP3   OH221713   0.485   3.620   5.722
 7250TIP3    H121714   0.527   3.690   5.772
 7250TIP3    H221715   0.546   3.601   5.651
 7251TIP3   OH221716   0.961   4.396   1.413
 7251TIP3    H121717   0.980   4.467   1.474
 7251TIP3    H221718   0.917   4.438   1.339
 7252TIP3   OH221719   1.146   1.567   3.426
 7252TIP3    H121720   1.212   1.553   3.494
 7252TIP3    H221721   1.126   1.480   3.393
 7253TIP3   OH221722   2.904   0.179   5.390
 7253TIP3    H121723   2.948   0.123   5.454
 7253TIP3    H221724   2.871   0.119   5.324
 7254TIP3   OH221725   3.615   4.128   1.951
 7254TIP3    H121726   3.580   4.216   1.964
 7254TIP3    H221727   3.540   4.077   1.920
 7255TIP3   OH221728   1.515   3.419   0.662
 7255TIP3    H121729   1.497   3.328   0.686
 7255TIP3    H221730   1.534   3.462   0.746
 7256TIP3   OH221731   4.790   2.223   1.155
 7256TIP3    H121732   4.854   2.241   1.224
 7256TIP3    H221733   4.769   2.308   1.118
 7257TIP3   OH221734   0.532   5.782   3.694
 7257TIP3    H121735   0.459   5.725   3.670
 7257TIP3    H221736   0.572   5.806   3.611
 7258TIP3   OH221737   5.199   3.648   5.230
 7258TIP3    H121738   5.242   3.733   5.235
 7258TIP3    H221739   5.158   3.647   5.143
 7259TIP3   OH221740   5.000   0.406   4.409
 7259TIP3    H121741   4.947   0.458   4.469
 7259TIP3    H221742   5.043   0.341   4.465
 7260TIP3   OH221743   2.853   2.417   1.169
 7260TIP3    H121744   2.828   2.325   1.170
 7260TIP3    H221745   2.798   2.456   1.101
 7261TIP3   OH221746   1.389   2.489   2.422
 7261TIP3    H121747   1.304   2.457   2.454
 7261TIP3    H221748   1.368   2.571   2.378
 7262TIP3   OH221749   1.205   3.958   3.513
 7262TIP3    H121750   1.126   4.011   3.501
 7262TIP3    H221751   1.238   3.983   3.599
 7263TIP3   OH221752   3.135   5.234   1.972
 7263TIP3    H121753   3.220   5.271   1.997
 7263TIP3    H221754   3.143   5.141   1.992
 7264TIP3   OH221755   1.780   3.806   3.854
 7264TIP3    H121756   1.869   3.836   3.873
 7264TIP3    H221757   1.783   3.779   3.763
 7265TIP3   OH221758   0.412   2.462   2.067
 7265TIP3    H121759   0.460   2.410   2.132
 7265TIP3    H221760   0.350   2.512   2.119
 7266TIP3   OH221761   0.337   6.193   0.281
 7266TIP3    H121762   0.305   6.202   0.370
 7266TIP3    H221763   0.352   6.099   0.269
 7267TIP3   OH221764   2.003   0.067   4.970
 7267TIP3    H121765   1.973   0.131   5.035
 7267TIP3    H221766   2.062   0.010   5.019
 7268TIP3   OH221767   3.930   0.045   4.686
 7268TIP3    H121768   3.929  -0.050   4.702
 7268TIP3    H221769   3.852   0.078   4.732
 7269TIP3   OH221770   6.459   2.719   2.605
 7269TIP3    H121771   6.411   2.636   2.600
 7269TIP3    H221772   6.462   2.751   2.514
 7270TIP3   OH221773   3.111   3.594   1.645
 7270TIP3    H121774   3.061   3.602   1.726
 7270TIP3    H221775   3.115   3.499   1.630
 7271TIP3   OH221776   2.496   0.038   1.385
 7271TIP3    H121777   2.537  -0.016   1.317
 7271TIP3    H221778   2.405   0.045   1.357
 7272TIP3   OH221779   3.427   1.083   4.498
 7272TIP3    H121780   3.397   1.004   4.543
 7272TIP3    H221781   3.359   1.101   4.433
 7273TIP3   OH221782   3.187   4.117   1.741
 7273TIP3    H121783   3.174   4.115   1.836
 7273TIP3    H221784   3.194   4.025   1.716
 7274TIP3   OH221785   7.137   2.589   0.617
 7274TIP3    H121786   7.142   2.566   0.524
 7274TIP3    H221787   7.081   2.522   0.656
 7275TIP3   OH221788   6.970   5.835   0.512
 7275TIP3    H121789   6.961   5.896   0.585
 7275TIP3    H221790   7.042   5.778   0.537
 7276TIP3   OH221791   0.204   1.698   0.305
 7276TIP3    H121792   0.237   1.763   0.242
 7276TIP3    H221793   0.141   1.747   0.358
 7277TIP3   OH221794   4.091   1.668   2.416
 7277TIP3    H121795   4.107   1.760   2.433
 7277TIP3    H221796   4.028   1.641   2.483
 7278TIP3   OH221797   5.674   3.838   1.012
 7278TIP3    H121798   5.739   3.800   0.953
 7278TIP3    H221799   5.715   3.919   1.044
 7279TIP3   OH221800   4.304   1.044   2.807
 7279TIP3    H121801   4.275   1.007   2.891
 7279TIP3    H221802   4.311   1.138   2.824
 7280TIP3   OH221803   0.993   0.944   1.830
 7280TIP3    H121804   1.027   1.015   1.885
 7280TIP3    H221805   0.926   0.986   1.776
 7281TIP3   OH221806   1.462   2.558   3.723
 7281TIP3    H121807   1.391   2.615   3.755
 7281TIP3    H221808   1.417   2.480   3.690
 7282TIP3   OH221809   1.844   3.169   4.861
 7282TIP3    H121810   1.767   3.116   4.839
 7282TIP3    H221811   1.882   3.125   4.937
 7283TIP3   OH221812   3.642   4.251   0.958
 7283TIP3    H121813   3.620   4.344   0.962
 7283TIP3    H221814   3.708   4.245   0.890
 7284TIP3   OH221815   3.300   3.164   2.666
 7284TIP3    H121816   3.344   3.245   2.691
 7284TIP3    H221817   3.330   3.147   2.576
 7285TIP3   OH221818   5.890   3.378   2.171
 7285TIP3    H121819   5.913   3.294   2.132
 7285TIP3    H221820   5.973   3.425   2.176
 7286TIP3   OH221821   1.774   2.779   5.236
 7286TIP3    H121822   1.864   2.756   5.210
 7286TIP3    H221823   1.737   2.818   5.157
 7287TIP3   OH221824   5.151   5.597   5.834
 7287TIP3    H121825   5.199   5.647   5.768
 7287TIP3    H221826   5.095   5.662   5.877
 7288TIP3   OH221827   3.975   4.818   3.649
 7288TIP3    H121828   3.908   4.865   3.599
 7288TIP3    H221829   4.049   4.810   3.589
 7289TIP3   OH221830   2.818  -0.007   0.078
 7289TIP3    H121831   2.764  -0.086   0.081
 7289TIP3    H221832   2.765   0.060   0.121
 7290TIP3   OH221833   5.938   6.539   0.981
 7290TIP3    H121834   5.966   6.598   0.911
 7290TIP3    H221835   5.935   6.595   1.059
 7291TIP3   OH221836   1.705   4.850   2.833
 7291TIP3    H121837   1.728   4.882   2.920
 7291TIP3    H221838   1.783   4.803   2.804
 7292TIP3   OH221839   4.681   6.055   0.929
 7292TIP3    H121840   4.636   6.059   1.013
 7292TIP3    H221841   4.690   6.147   0.903
 7293TIP3   OH221842   3.276   1.081   4.914
 7293TIP3    H121843   3.273   0.986   4.924
 7293TIP3    H221844   3.257   1.115   5.001
 7294TIP3   OH221845   1.213   3.861   4.221
 7294TIP3    H121846   1.153   3.935   4.222
 7294TIP3    H221847   1.214   3.832   4.129
 7295TIP3   OH221848   4.453   4.839   2.356
 7295TIP3    H121849   4.437   4.927   2.323
 7295TIP3    H221850   4.385   4.825   2.421
 7296TIP3   OH221851   2.816   1.349   0.507
 7296TIP3    H121852   2.771   1.411   0.450
 7296TIP3    H221853   2.909   1.363   0.490
 7297TIP3   OH221854   0.106   1.981   3.014
 7297TIP3    H121855   0.050   1.941   3.081
 7297TIP3    H221856   0.064   2.065   2.996
 7298TIP3   OH221857   2.464   4.485   2.651
 7298TIP3    H121858   2.400   4.467   2.719
 7298TIP3    H221859   2.418   4.469   2.569
 7299TIP3   OH221860   6.606   1.846   0.606
 7299TIP3    H121861   6.692   1.879   0.633
 7299TIP3    H221862   6.549   1.862   0.681
 7300TIP3   OH221863   5.566   3.623   2.825
 7300TIP3    H121864   5.657   3.642   2.846
 7300TIP3    H221865   5.569   3.587   2.736
 7301TIP3   OH221866   1.746   2.617   1.821
 7301TIP3    H121867   1.760   2.626   1.915
 7301TIP3    H221868   1.763   2.704   1.785
 7302TIP3   OH221869   0.012   2.638   4.067
 7302TIP3    H121870   0.087   2.632   4.126
 7302TIP3    H221871  -0.001   2.731   4.053
 7303TIP3   OH221872   1.635   1.615   0.297
 7303TIP3    H121873   1.557   1.571   0.332
 7303TIP3    H221874   1.642   1.696   0.347
 7304TIP3   OH221875   2.136   2.527   2.048
 7304TIP3    H121876   2.121   2.549   2.140
 7304TIP3    H221877   2.073   2.457   2.030
 7305TIP3   OH221878   1.215   4.296   4.587
 7305TIP3    H121879   1.260   4.344   4.518
 7305TIP3    H221880   1.278   4.230   4.616
 7306TIP3   OH221881   2.442   2.924   2.354
 7306TIP3    H121882   2.488   2.914   2.438
 7306TIP3    H221883   2.447   3.017   2.335
 7307TIP3   OH221884   4.319   1.632   4.360
 7307TIP3    H121885   4.280   1.639   4.273
 7307TIP3    H221886   4.295   1.714   4.403
 7308TIP3   OH221887   6.570   2.984   3.783
 7308TIP3    H121888   6.557   3.012   3.692
 7308TIP3    H221889   6.590   3.065   3.831
 7309TIP3   OH221890   3.632   4.726   5.021
 7309TIP3    H121891   3.574   4.787   4.975
 7309TIP3    H221892   3.651   4.658   4.956
 7310TIP3   OH221893   5.290   1.145   3.307
 7310TIP3    H121894   5.384   1.148   3.321
 7310TIP3    H221895   5.260   1.235   3.326
 7311TIP3   OH221896   1.907   4.267   1.387
 7311TIP3    H121897   1.994   4.236   1.412
 7311TIP3    H221898   1.881   4.326   1.457
 7312TIP3   OH221899   1.564   2.072   3.804
 7312TIP3    H121900   1.589   2.164   3.803
 7312TIP3    H221901   1.631   2.029   3.751
 7313TIP3   OH221902   0.386   4.657   0.353
 7313TIP3    H121903   0.431   4.582   0.314
 7313TIP3    H221904   0.318   4.679   0.290
 7314TIP3   OH221905   3.051   3.380   5.865
 7314TIP3    H121906   3.104   3.397   5.942
 7314TIP3    H221907   2.978   3.327   5.897
 7315TIP3   OH221908   2.253   1.990   4.440
 7315TIP3    H121909   2.243   2.078   4.478
 7315TIP3    H221910   2.176   1.978   4.385
 7316TIP3   OH221911   0.148   6.261   3.841
 7316TIP3    H121912   0.092   6.196   3.799
 7316TIP3    H221913   0.105   6.279   3.925
 7317TIP3   OH221914   3.920   5.407   4.926
 7317TIP3    H121915   3.961   5.324   4.950
 7317TIP3    H221916   3.838   5.382   4.883
 7318TIP3   OH221917   5.790   4.065   1.113
 7318TIP3    H121918   5.739   4.142   1.088
 7318TIP3    H221919   5.768   4.050   1.205
 7319TIP3   OH221920   3.756   2.333   1.924
 7319TIP3    H121921   3.706   2.310   1.846
 7319TIP3    H221922   3.691   2.332   1.995
 7320TIP3   OH221923   5.343   4.234   0.932
 7320TIP3    H121924   5.276   4.301   0.916
 7320TIP3    H221925   5.331   4.209   1.024
 7321TIP3   OH221926   4.946   4.214   1.729
 7321TIP3    H121927   4.913   4.124   1.738
 7321TIP3    H221928   5.011   4.208   1.659
 7322TIP3   OH221929   7.052   2.749   4.890
 7322TIP3    H121930   7.038   2.789   4.805
 7322TIP3    H221931   7.141   2.775   4.915
 7323TIP3   OH221932   6.166   5.648   3.636
 7323TIP3    H121933   6.223   5.626   3.710
 7323TIP3    H221934   6.225   5.652   3.560
 7324TIP3   OH221935   0.150   0.663   3.199
 7324TIP3    H121936   0.111   0.743   3.162
 7324TIP3    H221937   0.221   0.641   3.140
 7325TIP3   OH221938   4.121   5.956   2.482
 7325TIP3    H121939   4.185   5.961   2.553
 7325TIP3    H221940   4.144   5.875   2.435
 7326TIP3   OH221941   0.776   2.740   0.115
 7326TIP3    H121942   0.743   2.664   0.163
 7326TIP3    H221943   0.749   2.815   0.167
 7327TIP3   OH221944   5.067   1.093   1.337
 7327TIP3    H121945   5.025   1.114   1.253
 7327TIP3    H221946   5.004   1.122   1.403
 7328TIP3   OH221947   3.060   0.213   3.112
 7328TIP3    H121948   3.029   0.140   3.058
 7328TIP3    H221949   3.042   0.291   3.059
 7329TIP3   OH221950   3.319   2.664   2.802
 7329TIP3    H121951   3.401   2.615   2.805
 7329TIP3    H221952   3.346   2.756   2.806
 7330TIP3   OH221953   7.115   1.591   2.452
 7330TIP3    H121954   7.119   1.500   2.481
 7330TIP3    H221955   7.078   1.587   2.364
 7331TIP3   OH221956   2.594   4.368   1.095
 7331TIP3    H121957   2.572   4.410   1.012
 7331TIP3    H221958   2.511   4.359   1.141
 7332TIP3   OH221959   0.341   2.464   1.584
 7332TIP3    H121960   0.307   2.497   1.668
 7332TIP3    H221961   0.365   2.373   1.602
 7333TIP3   OH221962   1.525   5.054   1.511
 7333TIP3    H121963   1.560   5.088   1.593
 7333TIP3    H221964   1.470   4.980   1.538
 7334TIP3   OH221965   2.777   2.280   1.728
 7334TIP3    H121966   2.716   2.353   1.739
 7334TIP3    H221967   2.765   2.226   1.805
 7335TIP3   OH221968   2.648   0.866   1.124
 7335TIP3    H121969   2.695   0.832   1.201
 7335TIP3    H221970   2.557   0.843   1.139
 7336TIP3   OH221971   3.343   6.363   2.383
 7336TIP3    H121972   3.279   6.432   2.398
 7336TIP3    H221973   3.426   6.402   2.411
 7337TIP3   OH221974   4.898   4.792   3.961
 7337TIP3    H121975   4.962   4.757   4.023
 7337TIP3    H221976   4.837   4.721   3.948
 7338TIP3   OH221977   4.682   6.480   0.988
 7338TIP3    H121978   4.686   6.541   0.915
 7338TIP3    H221979   4.718   6.529   1.062
 7339TIP3   OH221980   1.254   0.855   2.008
 7339TIP3    H121981   1.298   0.787   2.058
 7339TIP3    H221982   1.167   0.862   2.049
 7340TIP3   OH221983   5.112   0.129   0.617
 7340TIP3    H121984   5.151   0.158   0.535
 7340TIP3    H221985   5.134   0.198   0.680
 7341TIP3   OH221986   6.019   5.164   5.211
 7341TIP3    H121987   6.047   5.095   5.150
 7341TIP3    H221988   5.983   5.232   5.155
 7342TIP3   OH221989   1.239   3.867   5.750
 7342TIP3    H121990   1.324   3.906   5.729
 7342TIP3    H221991   1.220   3.899   5.839
 7343TIP3   OH221992   1.316   0.636   5.077
 7343TIP3    H121993   1.394   0.609   5.030
 7343TIP3    H221994   1.281   0.710   5.027
 7344TIP3   OH221995   3.346   5.105   5.411
 7344TIP3    H121996   3.256   5.075   5.422
 7344TIP3    H221997   3.362   5.162   5.486
 7345TIP3   OH221998   6.651   6.196   3.747
 7345TIP3    H121999   6.689   6.229   3.829
 7345TIP3    H222000   6.572   6.248   3.734
 7346TIP3   OH222001   1.532   3.528   3.527
 7346TIP3    H122002   1.456   3.579   3.498
 7346TIP3    H222003   1.509   3.437   3.507
 7347TIP3   OH222004   4.384   5.688   5.740
 7347TIP3    H122005   4.314   5.665   5.800
 7347TIP3    H222006   4.366   5.637   5.661
 7348TIP3   OH222007   1.149   0.160   2.599
 7348TIP3    H122008   1.102   0.090   2.554
 7348TIP3    H222009   1.119   0.155   2.690
 7349TIP3   OH222010   4.130   1.793   2.857
 7349TIP3    H122011   4.112   1.886   2.840
 7349TIP3    H222012   4.133   1.786   2.952
 7350TIP3   OH222013   1.810   2.478   2.420
 7350TIP3    H122014   1.737   2.435   2.377
 7350TIP3    H222015   1.822   2.429   2.502
 7351TIP3   OH222016   1.177   1.652   3.828
 7351TIP3    H122017   1.252   1.664   3.769
 7351TIP3    H222018   1.101   1.654   3.769
 7352TIP3   OH222019   2.765   0.887   1.842
 7352TIP3    H122020   2.690   0.850   1.795
 7352TIP3    H222021   2.727   0.948   1.904
 7353TIP3   OH222022   5.977   5.421   4.468
 7353TIP3    H122023   5.921   5.348   4.494
 7353TIP3    H222024   5.935   5.457   4.390
 7354TIP3   OH222025   5.700   0.819   3.012
 7354TIP3    H122026   5.628   0.853   3.066
 7354TIP3    H222027   5.665   0.737   2.976
 7355TIP3   OH222028   0.364   3.139   1.967
 7355TIP3    H122029   0.392   3.119   1.877
 7355TIP3    H222030   0.304   3.213   1.958
 7356TIP3   OH222031   4.360   1.457   2.202
 7356TIP3    H122032   4.439   1.480   2.154
 7356TIP3    H222033   4.390   1.443   2.292
 7357TIP3   OH222034   7.046   4.649   0.177
 7357TIP3    H122035   6.974   4.659   0.238
 7357TIP3    H222036   7.051   4.734   0.132
 7358TIP3   OH222037   0.264   0.980   1.780
 7358TIP3    H122038   0.350   1.018   1.762
 7358TIP3    H222039   0.273   0.940   1.867
 7359TIP3   OH222040   6.658   4.350   3.579
 7359TIP3    H122041   6.639   4.299   3.658
 7359TIP3    H222042   6.735   4.402   3.602
 7360TIP3   OH222043   5.006   5.982   2.530
 7360TIP3    H122044   4.961   5.959   2.611
 7360TIP3    H222045   5.035   6.072   2.542
 7361TIP3   OH222046   3.245   1.452   0.836
 7361TIP3    H122047   3.219   1.435   0.745
 7361TIP3    H222048   3.177   1.410   0.889
 7362TIP3   OH222049   3.217   5.816   5.734
 7362TIP3    H122050   3.218   5.754   5.661
 7362TIP3    H222051   3.209   5.902   5.692
 7363TIP3   OH222052   1.993   4.542   5.527
 7363TIP3    H122053   1.930   4.511   5.462
 7363TIP3    H222054   1.946   4.540   5.610
 7364TIP3   OH222055   2.378   3.859   0.505
 7364TIP3    H122056   2.456   3.848   0.450
 7364TIP3    H222057   2.412   3.886   0.590
 7365TIP3   OH222058   1.725   1.754   5.438
 7365TIP3    H122059   1.635   1.727   5.456
 7365TIP3    H222060   1.716   1.833   5.385
 7366TIP3   OH222061   2.346   0.381   1.714
 7366TIP3    H122062   2.324   0.288   1.707
 7366TIP3    H222063   2.263   0.426   1.702
 7367TIP3   OH222064   6.152   0.383   3.148
 7367TIP3    H122065   6.102   0.311   3.188
 7367TIP3    H222066   6.138   0.456   3.208
 7368TIP3   OH222067   6.961   6.497   3.115
 7368TIP3    H122068   6.938   6.455   3.197
 7368TIP3    H222069   7.042   6.454   3.087
 7369TIP3   OH222070   3.945   0.456   1.639
 7369TIP3    H122071   3.974   0.545   1.618
 7369TIP3    H222072   3.864   0.445   1.590
 7370TIP3   OH222073   1.362   5.364   3.486
 7370TIP3    H122074   1.442   5.398   3.526
 7370TIP3    H222075   1.295   5.430   3.504
 7371TIP3   OH222076   4.025   4.405   0.595
 7371TIP3    H122077   4.080   4.367   0.527
 7371TIP3    H222078   3.981   4.479   0.551
 7372TIP3   OH222079   3.622   0.313   5.074
 7372TIP3    H122080   3.665   0.290   5.157
 7372TIP3    H222081   3.546   0.256   5.070
 7373TIP3   OH222082   0.852   0.321   0.290
 7373TIP3    H122083   0.768   0.368   0.292
 7373TIP3    H222084   0.882   0.322   0.380
 7374TIP3   OH222085   2.390   1.239   0.311
 7374TIP3    H122086   2.409   1.295   0.386
 7374TIP3    H222087   2.295   1.239   0.305
 7375TIP3   OH222088   4.528   3.414   2.994
 7375TIP3    H122089   4.560   3.396   3.083
 7375TIP3    H222090   4.433   3.402   3.000
 7376TIP3   OH222091   4.265   4.385   4.397
 7376TIP3    H122092   4.184   4.339   4.417
 7376TIP3    H222093   4.296   4.416   4.482
 7377TIP3   OH222094   0.418   1.804   0.881
 7377TIP3    H122095   0.379   1.884   0.847
 7377TIP3    H222096   0.344   1.748   0.905
 7378TIP3   OH222097   6.945   5.173   4.798
 7378TIP3    H122098   6.970   5.147   4.709
 7378TIP3    H222099   6.942   5.091   4.847
 7379TIP3   OH222100   2.091   4.100   1.756
 7379TIP3    H122101   1.997   4.103   1.738
 7379TIP3    H222102   2.100   4.034   1.825
 7380TIP3   OH222103   6.634   4.187   0.507
 7380TIP3    H122104   6.654   4.233   0.426
 7380TIP3    H222105   6.713   4.136   0.525
 7381TIP3   OH222106   1.129   5.363   5.283
 7381TIP3    H122107   1.049   5.314   5.302
 7381TIP3    H222108   1.174   5.309   5.218
 7382TIP3   OH222109   3.165   4.628   1.211
 7382TIP3    H122110   3.112   4.550   1.201
 7382TIP3    H222111   3.253   4.595   1.231
 7383TIP3   OH222112   5.324   3.553   1.260
 7383TIP3    H122113   5.406   3.544   1.212
 7383TIP3    H222114   5.256   3.546   1.193
 7384TIP3   OH222115   1.375   3.825   1.268
 7384TIP3    H122116   1.439   3.896   1.263
 7384TIP3    H222117   1.306   3.850   1.207
 7385TIP3   OH222118   2.207   0.626   4.262
 7385TIP3    H122119   2.296   0.627   4.228
 7385TIP3    H222120   2.168   0.547   4.225
 7386TIP3   OH222121   7.059   1.241   0.279
 7386TIP3    H122122   7.036   1.318   0.226
 7386TIP3    H222123   7.103   1.182   0.218
 7387TIP3   OH222124   3.171   4.722   1.496
 7387TIP3    H122125   3.098   4.778   1.522
 7387TIP3    H222126   3.167   4.719   1.401
 7388TIP3   OH222127   6.496   0.311   2.604
 7388TIP3    H122128   6.577   0.341   2.563
 7388TIP3    H222129   6.436   0.386   2.598
 7389TIP3   OH222130   4.388   4.279   2.970
 7389TIP3    H122131   4.340   4.198   2.986
 7389TIP3    H222132   4.360   4.306   2.882
 7390TIP3   OH222133   3.317   2.095   0.369
 7390TIP3    H122134   3.274   2.010   0.361
 7390TIP3    H222135   3.408   2.078   0.344
 7391TIP3   OH222136   5.007   5.167   1.856
 7391TIP3    H122137   4.934   5.202   1.906
 7391TIP3    H222138   4.991   5.196   1.766
 7392TIP3   OH222139   3.388   1.926   3.006
 7392TIP3    H122140   3.323   1.987   3.041
 7392TIP3    H222141   3.451   1.983   2.960
 7393TIP3   OH222142   2.829   1.836   5.189
 7393TIP3    H122143   2.851   1.878   5.272
 7393TIP3    H222144   2.752   1.782   5.209
 7394TIP3   OH222145   5.838   6.242   2.392
 7394TIP3    H122146   5.858   6.184   2.319
 7394TIP3    H222147   5.801   6.185   2.459
 7395TIP3   OH222148   6.503   5.414   4.682
 7395TIP3    H122149   6.529   5.404   4.591
 7395TIP3    H222150   6.583   5.399   4.732
 7396TIP3   OH222151   5.536   0.321   3.205
 7396TIP3    H122152   5.497   0.378   3.271
 7396TIP3    H222153   5.480   0.244   3.203
 7397TIP3   OH222154   1.659   4.365   2.720
 7397TIP3    H122155   1.716   4.379   2.796
 7397TIP3    H222156   1.714   4.387   2.645
 7398TIP3   OH222157   6.559   5.357   2.283
 7398TIP3    H122158   6.558   5.303   2.204
 7398TIP3    H222159   6.569   5.294   2.354
 7399TIP3   OH222160   7.030   4.823   3.283
 7399TIP3    H122161   6.999   4.852   3.369
 7399TIP3    H222162   7.051   4.731   3.295
 7400TIP3   OH222163   2.164   2.680   1.267
 7400TIP3    H122164   2.208   2.728   1.338
 7400TIP3    H222165   2.117   2.609   1.312
 7401TIP3   OH222166   5.188   2.020   5.407
 7401TIP3    H122167   5.110   2.073   5.425
 7401TIP3    H222168   5.257   2.084   5.390
 7402TIP3   OH222169   2.332   2.217   4.538
 7402TIP3    H122170   2.377   2.273   4.475
 7402TIP3    H222171   2.400   2.186   4.596
 7403TIP3   OH222172   4.420   1.031   1.203
 7403TIP3    H122173   4.380   1.105   1.157
 7403TIP3    H222174   4.473   1.071   1.272
 7404TIP3   OH222175   6.621   6.092   2.920
 7404TIP3    H122176   6.635   6.017   2.978
 7404TIP3    H222177   6.544   6.068   2.868
 7405TIP3   OH222178   0.223   4.647   2.407
 7405TIP3    H122179   0.207   4.553   2.419
 7405TIP3    H222180   0.135   4.686   2.403
 7406TIP3   OH222181   4.259   1.692   3.092
 7406TIP3    H122182   4.316   1.621   3.064
 7406TIP3    H222183   4.226   1.664   3.178
 7407TIP3   OH222184   2.056   0.482   0.135
 7407TIP3    H122185   1.969   0.454   0.108
 7407TIP3    H222186   2.114   0.455   0.063
 7408TIP3   OH222187   7.155   5.253   0.767
 7408TIP3    H122188   7.086   5.308   0.731
 7408TIP3    H222189   7.210   5.232   0.691
 7409TIP3   OH222190   2.818   2.624   4.902
 7409TIP3    H122191   2.905   2.592   4.923
 7409TIP3    H222192   2.782   2.558   4.842
 7410TIP3   OH222193   4.837   1.217   4.973
 7410TIP3    H122194   4.847   1.206   4.878
 7410TIP3    H222195   4.927   1.230   5.004
 7411TIP3   OH222196   0.353   6.674   2.089
 7411TIP3    H122197   0.292   6.626   2.033
 7411TIP3    H222198   0.297   6.719   2.153
 7412TIP3   OH222199   3.830   2.435   2.708
 7412TIP3    H122200   3.898   2.474   2.763
 7412TIP3    H222201   3.857   2.344   2.698
 7413TIP3   OH222202   0.531   2.522   1.324
 7413TIP3    H122203   0.561   2.469   1.397
 7413TIP3    H222204   0.522   2.460   1.251
 7414TIP3   OH222205   5.552   0.334   0.661
 7414TIP3    H122206   5.500   0.254   0.659
 7414TIP3    H222207   5.599   0.335   0.578
 7415TIP3   OH222208   4.663   1.801   4.940
 7415TIP3    H122209   4.653   1.722   4.887
 7415TIP3    H222210   4.686   1.870   4.877
 7416TIP3   OH222211   6.328   5.640   1.674
 7416TIP3    H122212   6.256   5.610   1.620
 7416TIP3    H222213   6.337   5.574   1.742
 7417TIP3   OH222214   1.759   3.839   1.310
 7417TIP3    H122215   1.708   3.767   1.348
 7417TIP3    H222216   1.760   3.821   1.216
 7418TIP3   OH222217   2.478   5.936   2.370
 7418TIP3    H122218   2.483   5.872   2.299
 7418TIP3    H222219   2.426   5.892   2.437
 7419TIP3   OH222220   4.377   2.113   1.481
 7419TIP3    H122221   4.360   2.030   1.437
 7419TIP3    H222222   4.444   2.155   1.428
 7420TIP3   OH222223   7.104   6.337   5.375
 7420TIP3    H122224   7.054   6.417   5.390
 7420TIP3    H222225   7.079   6.310   5.286
 7421TIP3   OH222226   5.245   3.980   0.221
 7421TIP3    H122227   5.279   3.891   0.223
 7421TIP3    H222228   5.264   4.014   0.308
 7422TIP3   OH222229   1.960   3.741   5.530
 7422TIP3    H122230   2.004   3.819   5.495
 7422TIP3    H222231   1.887   3.726   5.471
 7423TIP3   OH222232   1.679   4.587   5.218
 7423TIP3    H122233   1.602   4.594   5.273
 7423TIP3    H222234   1.662   4.645   5.144
 7424TIP3   OH222235   0.901   0.531   2.958
 7424TIP3    H122236   0.868   0.618   2.936
 7424TIP3    H222237   0.826   0.487   2.998
 7425TIP3   OH222238   6.580   4.594   2.207
 7425TIP3    H122239   6.614   4.648   2.278
 7425TIP3    H222240   6.485   4.604   2.212
 7426TIP3   OH222241   5.190   1.374   2.844
 7426TIP3    H122242   5.249   1.299   2.832
 7426TIP3    H222243   5.155   1.391   2.756
 7427TIP3   OH222244   5.239   6.474   3.597
 7427TIP3    H122245   5.183   6.510   3.666
 7427TIP3    H222246   5.250   6.382   3.621
 7428TIP3   OH222247   2.898   0.426   1.170
 7428TIP3    H122248   2.895   0.440   1.075
 7428TIP3    H222249   2.961   0.355   1.182
 7429TIP3   OH222250   6.649   1.840   0.930
 7429TIP3    H122251   6.691   1.905   0.874
 7429TIP3    H222252   6.637   1.884   1.014
 7430TIP3   OH222253   1.399   3.858   5.444
 7430TIP3    H122254   1.470   3.816   5.492
 7430TIP3    H222255   1.427   3.949   5.434
 7431TIP3   OH222256   7.081   5.758   1.474
 7431TIP3    H122257   7.024   5.681   1.479
 7431TIP3    H222258   7.037   5.823   1.529
 7432TIP3   OH222259   3.199   0.936   1.565
 7432TIP3    H122260   3.211   0.858   1.619
 7432TIP3    H222261   3.258   1.001   1.604
 7433TIP3   OH222262   5.890   5.277   3.792
 7433TIP3    H122263   5.861   5.230   3.870
 7433TIP3    H222264   5.910   5.208   3.729
 7434TIP3   OH222265   0.918   6.034   5.472
 7434TIP3    H122266   0.931   6.052   5.565
 7434TIP3    H222267   1.001   6.059   5.432
 7435TIP3   OH222268   1.516   4.419   1.216
 7435TIP3    H122269   1.480   4.334   1.190
 7435TIP3    H222270   1.524   4.467   1.134
 7436TIP3   OH222271   7.056   5.436   2.576
 7436TIP3    H122272   7.096   5.511   2.621
 7436TIP3    H222273   6.977   5.472   2.535
 7437TIP3   OH222274   6.705   1.672   2.563
 7437TIP3    H122275   6.702   1.662   2.658
 7437TIP3    H222276   6.647   1.745   2.544
 7438TIP3   OH222277   2.474   5.719   1.686
 7438TIP3    H122278   2.526   5.798   1.701
 7438TIP3    H222279   2.538   5.652   1.664
 7439TIP3   OH222280   3.519   5.096   2.048
 7439TIP3    H122281   3.437   5.129   2.084
 7439TIP3    H222282   3.525   5.006   2.079
 7440TIP3   OH222283   6.592   3.261   1.771
 7440TIP3    H122284   6.545   3.233   1.850
 7440TIP3    H222285   6.523   3.274   1.706
 7441TIP3   OH222286   3.112   6.538   3.025
 7441TIP3    H122287   3.146   6.529   3.114
 7441TIP3    H222288   3.183   6.581   2.977
 7442TIP3   OH222289   1.877   1.974   0.134
 7442TIP3    H122290   1.844   2.050   0.087
 7442TIP3    H222291   1.922   1.922   0.067
 7443TIP3   OH222292   6.228   5.352   0.190
 7443TIP3    H122293   6.138   5.385   0.182
 7443TIP3    H222294   6.254   5.330   0.101
 7444TIP3   OH222295   2.486   4.413   3.662
 7444TIP3    H122296   2.535   4.378   3.737
 7444TIP3    H222297   2.508   4.354   3.589
 7445TIP3   OH222298   7.184   5.658   5.001
 7445TIP3    H122299   7.134   5.625   4.926
 7445TIP3    H222300   7.188   5.584   5.061
 7446TIP3   OH222301   4.834   1.320   2.605
 7446TIP3    H122302   4.775   1.395   2.611
 7446TIP3    H222303   4.795   1.263   2.540
 7447TIP3   OH222304   3.685   3.157   3.369
 7447TIP3    H122305   3.608   3.193   3.413
 7447TIP3    H222306   3.760   3.190   3.419
 7448TIP3   OH222307   0.238   6.109   2.452
 7448TIP3    H122308   0.230   6.092   2.545
 7448TIP3    H222309   0.308   6.051   2.422
 7449TIP3   OH222310   4.345   1.518   4.037
 7449TIP3    H122311   4.429   1.524   4.082
 7449TIP3    H222312   4.350   1.586   3.969
 7450TIP3   OH222313   1.898   2.655   3.065
 7450TIP3    H122314   1.803   2.657   3.078
 7450TIP3    H222315   1.921   2.743   3.037
 7451TIP3   OH222316   5.846   1.177   0.200
 7451TIP3    H122317   5.824   1.229   0.123
 7451TIP3    H222318   5.779   1.199   0.265
 7452TIP3   OH222319   3.742   1.982   5.610
 7452TIP3    H122320   3.747   1.964   5.704
 7452TIP3    H222321   3.797   1.916   5.570
 7453TIP3   OH222322   2.001   3.348   5.149
 7453TIP3    H122323   2.043   3.433   5.164
 7453TIP3    H222324   1.915   3.369   5.115
 7454TIP3   OH222325   5.193   4.142   5.098
 7454TIP3    H122326   5.215   4.050   5.087
 7454TIP3    H222327   5.118   4.142   5.157
 7455TIP3   OH222328   4.574   2.299   5.105
 7455TIP3    H122329   4.588   2.299   5.011
 7455TIP3    H222330   4.608   2.214   5.135
 7456TIP3   OH222331   4.006   2.137   1.302
 7456TIP3    H122332   4.056   2.196   1.359
 7456TIP3    H222333   3.980   2.065   1.359
 7457TIP3   OH222334   2.689   5.358   0.298
 7457TIP3    H122335   2.784   5.359   0.305
 7457TIP3    H222336   2.659   5.417   0.367
 7458TIP3   OH222337   5.286   1.620   1.860
 7458TIP3    H122338   5.203   1.667   1.869
 7458TIP3    H222339   5.325   1.656   1.780
 7459TIP3   OH222340   5.941   4.535   2.063
 7459TIP3    H122341   5.949   4.582   2.146
 7459TIP3    H222342   5.985   4.451   2.079
 7460TIP3   OH222343   1.062   5.714   1.849
 7460TIP3    H122344   1.045   5.784   1.913
 7460TIP3    H222345   1.082   5.638   1.902
 7461TIP3   OH222346   2.805   0.579   2.176
 7461TIP3    H122347   2.797   0.586   2.080
 7461TIP3    H222348   2.761   0.496   2.197
 7462TIP3   OH222349   6.624   5.851   3.089
 7462TIP3    H122350   6.699   5.889   3.134
 7462TIP3    H222351   6.648   5.759   3.076
 7463TIP3   OH222352   5.815   3.753   4.756
 7463TIP3    H122353   5.763   3.728   4.833
 7463TIP3    H222354   5.872   3.677   4.740
 7464TIP3   OH222355   5.466   2.558   1.961
 7464TIP3    H122356   5.479   2.616   1.887
 7464TIP3    H222357   5.378   2.521   1.948
 7465TIP3   OH222358   1.986   4.245   4.686
 7465TIP3    H122359   1.982   4.333   4.649
 7465TIP3    H222360   2.029   4.192   4.619
 7466TIP3   OH222361   6.562   5.680   4.951
 7466TIP3    H122362   6.504   5.609   4.980
 7466TIP3    H222363   6.506   5.734   4.894
 7467TIP3   OH222364   0.177   3.593   2.702
 7467TIP3    H122365   0.172   3.641   2.619
 7467TIP3    H222366   0.191   3.661   2.768
 7468TIP3   OH222367   1.509   6.212   2.581
 7468TIP3    H122368   1.569   6.248   2.515
 7468TIP3    H222369   1.491   6.285   2.640
 7469TIP3   OH222370   6.992   4.779   0.792
 7469TIP3    H122371   7.003   4.859   0.843
 7469TIP3    H222372   7.053   4.788   0.719
 7470TIP3   OH222373   5.247   5.047   4.013
 7470TIP3    H122374   5.219   5.134   4.043
 7470TIP3    H222375   5.182   5.021   3.949
 7471TIP3   OH222376   5.715   5.505   1.318
 7471TIP3    H122377   5.778   5.564   1.277
 7471TIP3    H222378   5.658   5.477   1.247
 7472TIP3   OH222379   5.971   2.485   3.442
 7472TIP3    H122380   5.951   2.486   3.536
 7472TIP3    H222381   6.064   2.506   3.437
 7473TIP3   OH222382   6.026   0.816   5.390
 7473TIP3    H122383   6.121   0.811   5.393
 7473TIP3    H222384   6.002   0.874   5.462
 7474TIP3   OH222385   3.501   4.906   4.165
 7474TIP3    H122386   3.432   4.887   4.101
 7474TIP3    H222387   3.579   4.923   4.111
 7475TIP3   OH222388   0.939   2.182   4.871
 7475TIP3    H122389   1.027   2.148   4.882
 7475TIP3    H222390   0.948   2.253   4.808
 7476TIP3   OH222391   4.136   2.984   5.159
 7476TIP3    H122392   4.096   3.057   5.112
 7476TIP3    H222393   4.218   2.968   5.112
 7477TIP3   OH222394   2.400   4.823   0.275
 7477TIP3    H122395   2.412   4.847   0.367
 7477TIP3    H222396   2.479   4.857   0.232
 7478TIP3   OH222397   6.505   4.649   4.175
 7478TIP3    H122398   6.539   4.625   4.261
 7478TIP3    H222399   6.446   4.723   4.192
 7479TIP3   OH222400   6.245   5.705   2.059
 7479TIP3    H122401   6.253   5.754   2.141
 7479TIP3    H222402   6.316   5.739   2.004
 7480TIP3   OH222403   7.080   2.032   4.787
 7480TIP3    H122404   7.156   1.990   4.745
 7480TIP3    H222405   7.115   2.068   4.869
 7481TIP3   OH222406   6.103   4.686   3.902
 7481TIP3    H122407   6.104   4.756   3.837
 7481TIP3    H222408   6.167   4.623   3.871
 7482TIP3   OH222409   0.948   5.575   2.660
 7482TIP3    H122410   0.885   5.585   2.589
 7482TIP3    H222411   0.897   5.539   2.732
 7483TIP3   OH222412   1.013   0.060   1.079
 7483TIP3    H122413   0.964  -0.002   1.133
 7483TIP3    H222414   0.946   0.120   1.045
 7484TIP3   OH222415   4.969   0.119   2.783
 7484TIP3    H122416   4.880   0.142   2.755
 7484TIP3    H222417   4.968   0.131   2.878
 7485TIP3   OH222418   6.431   5.470   4.136
 7485TIP3    H122419   6.360   5.526   4.104
 7485TIP3    H222420   6.484   5.452   4.059
 7486TIP3   OH222421   1.657   1.936   0.998
 7486TIP3    H122422   1.719   1.948   0.926
 7486TIP3    H222423   1.694   1.986   1.070
 7487TIP3   OH222424   3.511   6.623   0.109
 7487TIP3    H122425   3.593   6.660   0.076
 7487TIP3    H222426   3.443   6.670   0.061
 7488TIP3   OH222427   0.689   4.425   0.534
 7488TIP3    H122428   0.742   4.502   0.513
 7488TIP3    H222429   0.638   4.408   0.454
 7489TIP3   OH222430   1.493   3.106   1.635
 7489TIP3    H122431   1.559   3.086   1.568
 7489TIP3    H222432   1.410   3.108   1.587
 7490TIP3   OH222433   7.090   5.380   4.308
 7490TIP3    H122434   7.024   5.311   4.319
 7490TIP3    H222435   7.165   5.334   4.268
 7491TIP3   OH222436   6.324   2.883   4.243
 7491TIP3    H122437   6.317   2.956   4.304
 7491TIP3    H222438   6.296   2.918   4.159
 7492TIP3   OH222439   1.592   3.717   2.156
 7492TIP3    H122440   1.650   3.671   2.094
 7492TIP3    H222441   1.512   3.665   2.157
 7493TIP3   OH222442   3.698   1.158   4.457
 7493TIP3    H122443   3.684   1.185   4.366
 7493TIP3    H222444   3.611   1.134   4.489
 7494TIP3   OH222445   3.020   4.537   3.390
 7494TIP3    H122446   3.006   4.572   3.302
 7494TIP3    H222447   3.089   4.591   3.427
 7495TIP3   OH222448   3.661   2.893   3.274
 7495TIP3    H122449   3.680   2.986   3.285
 7495TIP3    H222450   3.699   2.870   3.189
 7496TIP3   OH222451   4.602   5.704   1.255
 7496TIP3    H122452   4.521   5.739   1.218
 7496TIP3    H222453   4.587   5.609   1.260
 7497TIP3   OH222454   4.865   5.513   4.953
 7497TIP3    H122455   4.871   5.428   4.911
 7497TIP3    H222456   4.800   5.561   4.903
 7498TIP3   OH222457   4.776   2.193   0.834
 7498TIP3    H122458   4.868   2.185   0.858
 7498TIP3    H222459   4.777   2.225   0.744
 7499TIP3   OH222460   7.206   5.364   3.355
 7499TIP3    H122461   7.168   5.284   3.391
 7499TIP3    H222462   7.179   5.433   3.416
 7500TIP3   OH222463   5.695   5.008   0.241
 7500TIP3    H122464   5.716   4.963   0.159
 7500TIP3    H222465   5.724   4.947   0.310
 7501TIP3   OH222466   4.041   3.639   5.529
 7501TIP3    H122467   3.982   3.598   5.592
 7501TIP3    H222468   4.059   3.726   5.564
 7502TIP3   OH222469   5.753   1.392   2.703
 7502TIP3    H122470   5.676   1.432   2.663
 7502TIP3    H222471   5.810   1.371   2.629
 7503TIP3   OH222472   3.153   5.038   4.808
 7503TIP3    H122473   3.159   4.953   4.765
 7503TIP3    H222474   3.231   5.085   4.779
 7504TIP3   OH222475   6.300   0.123   3.166
 7504TIP3    H122476   6.257   0.197   3.123
 7504TIP3    H222477   6.231   0.057   3.175
 7505TIP3   OH222478   6.251   3.775   2.713
 7505TIP3    H122479   6.331   3.813   2.677
 7505TIP3    H222480   6.228   3.704   2.654
 7506TIP3   OH222481   6.639   2.964   3.490
 7506TIP3    H122482   6.674   2.879   3.463
 7506TIP3    H222483   6.716   3.017   3.509
 7507TIP3   OH222484   3.915   4.615   5.060
 7507TIP3    H122485   3.840   4.586   5.112
 7507TIP3    H222486   3.937   4.540   5.004
 7508TIP3   OH222487   5.893   2.450   3.693
 7508TIP3    H122488   5.803   2.442   3.727
 7508TIP3    H222489   5.941   2.381   3.738
 7509TIP3   OH222490   2.563   3.010   1.868
 7509TIP3    H122491   2.552   2.955   1.946
 7509TIP3    H222492   2.556   3.100   1.901
 7510TIP3   OH222493   6.419   2.717   0.080
 7510TIP3    H122494   6.362   2.765   0.140
 7510TIP3    H222495   6.459   2.650   0.134
 7511TIP3   OH222496   5.554   4.168   1.655
 7511TIP3    H122497   5.540   4.260   1.631
 7511TIP3    H222498   5.467   4.129   1.652
 7512TIP3   OH222499   0.101   2.126   3.493
 7512TIP3    H122500   0.024   2.105   3.546
 7512TIP3    H222501   0.129   2.041   3.457
 7513TIP3   OH222502   4.547   5.955   4.119
 7513TIP3    H122503   4.467   5.952   4.067
 7513TIP3    H222504   4.617   5.935   4.058
 7514TIP3   OH222505   6.009   6.409   3.018
 7514TIP3    H122506   6.055   6.334   3.056
 7514TIP3    H222507   5.957   6.444   3.091
 7515TIP3   OH222508   3.273   4.270   2.902
 7515TIP3    H122509   3.198   4.326   2.925
 7515TIP3    H222510   3.241   4.215   2.831
 7516TIP3   OH222511   4.552   3.653   3.235
 7516TIP3    H122512   4.604   3.713   3.289
 7516TIP3    H222513   4.575   3.675   3.145
 7517TIP3   OH222514   2.519   2.209   5.576
 7517TIP3    H122515   2.464   2.240   5.648
 7517TIP3    H222516   2.604   2.249   5.592
 7518TIP3   OH222517   6.398   4.542   0.575
 7518TIP3    H122518   6.387   4.464   0.630
 7518TIP3    H222519   6.479   4.582   0.606
 7519TIP3   OH222520   3.564   1.119   3.508
 7519TIP3    H122521   3.606   1.200   3.536
 7519TIP3    H222522   3.470   1.137   3.512
 7520TIP3   OH222523   3.285   4.055   5.187
 7520TIP3    H122524   3.255   3.971   5.152
 7520TIP3    H222525   3.351   4.086   5.126
 7521TIP3   OH222526   0.694   3.609   3.835
 7521TIP3    H122527   0.716   3.691   3.790
 7521TIP3    H222528   0.671   3.635   3.924
 7522TIP3   OH222529   4.751   5.404   0.175
 7522TIP3    H122530   4.734   5.366   0.261
 7522TIP3    H222531   4.808   5.341   0.131
 7523TIP3   OH222532   2.887   4.311   1.924
 7523TIP3    H122533   2.862   4.260   1.847
 7523TIP3    H222534   2.967   4.268   1.956
 7524TIP3   OH222535   1.714   4.840   0.149
 7524TIP3    H122536   1.754   4.766   0.196
 7524TIP3    H222537   1.635   4.802   0.109
 7525TIP3   OH222538   4.882   4.021   3.913
 7525TIP3    H122539   4.957   3.964   3.899
 7525TIP3    H222540   4.905   4.104   3.871
 7526TIP3   OH222541   6.865   3.783   1.655
 7526TIP3    H122542   6.889   3.831   1.576
 7526TIP3    H222543   6.800   3.838   1.698
 7527TIP3   OH222544   4.476   0.766   1.135
 7527TIP3    H122545   4.455   0.851   1.174
 7527TIP3    H222546   4.395   0.738   1.094
 7528TIP3   OH222547   4.273   3.991   0.613
 7528TIP3    H122548   4.283   4.086   0.624
 7528TIP3    H222549   4.351   3.955   0.657
 7529TIP3   OH222550   4.963   6.434   1.219
 7529TIP3    H122551   4.929   6.518   1.188
 7529TIP3    H222552   4.978   6.383   1.139
 7530TIP3   OH222553   1.184   3.039   2.603
 7530TIP3    H122554   1.224   3.051   2.689
 7530TIP3    H222555   1.161   2.946   2.600
 7531TIP3   OH222556   0.283   0.703   1.046
 7531TIP3    H122557   0.366   0.744   1.070
 7531TIP3    H222558   0.269   0.635   1.112
 7532TIP3   OH222559   0.413   4.420   3.247
 7532TIP3    H122560   0.490   4.462   3.286
 7532TIP3    H222561   0.406   4.459   3.160
 7533TIP3   OH222562   4.068   5.749   4.460
 7533TIP3    H122563   3.986   5.727   4.416
 7533TIP3    H222564   4.120   5.669   4.458
 7534TIP3   OH222565   0.527   1.345   0.745
 7534TIP3    H122566   0.500   1.436   0.761
 7534TIP3    H222567   0.605   1.334   0.799
 7535TIP3   OH222568   3.307   5.620   2.558
 7535TIP3    H122569   3.278   5.676   2.631
 7535TIP3    H222570   3.397   5.596   2.582
 7536TIP3   OH222571   1.184   6.836   1.581
 7536TIP3    H122572   1.261   6.891   1.595
 7536TIP3    H222573   1.194   6.764   1.643
 7537TIP3   OH222574   4.133   6.403   4.398
 7537TIP3    H122575   4.090   6.404   4.483
 7537TIP3    H222576   4.066   6.373   4.337
 7538TIP3   OH222577   2.127   0.389   4.136
 7538TIP3    H122578   2.177   0.336   4.074
 7538TIP3    H222579   2.054   0.425   4.085
 7539TIP3   OH222580   4.181   3.728   5.285
 7539TIP3    H122581   4.139   3.654   5.330
 7539TIP3    H222582   4.150   3.805   5.332
 7540TIP3   OH222583   5.738   2.982   0.889
 7540TIP3    H122584   5.784   3.065   0.902
 7540TIP3    H222585   5.696   2.992   0.804
 7541TIP3   OH222586   7.248   6.431   0.172
 7541TIP3    H122587   7.231   6.337   0.180
 7541TIP3    H222588   7.199   6.471   0.244
 7542TIP3   OH222589   2.104   2.674   3.243
 7542TIP3    H122590   2.180   2.732   3.248
 7542TIP3    H222591   2.069   2.689   3.155
 7543TIP3   OH222592   5.981   4.896   2.852
 7543TIP3    H122593   5.895   4.853   2.857
 7543TIP3    H222594   5.960   4.989   2.839
 7544TIP3   OH222595   6.460   1.890   4.397
 7544TIP3    H122596   6.465   1.956   4.466
 7544TIP3    H222597   6.434   1.938   4.319
 7545TIP3   OH222598   6.459   3.035   2.836
 7545TIP3    H122599   6.394   3.039   2.907
 7545TIP3    H222600   6.417   2.982   2.768
 7546TIP3   OH222601   3.415   1.443   1.565
 7546TIP3    H122602   3.388   1.374   1.505
 7546TIP3    H222603   3.504   1.464   1.539
 7547TIP3   OH222604   2.308   0.926   3.111
 7547TIP3    H122605   2.229   0.933   3.058
 7547TIP3    H222606   2.349   0.844   3.083
 7548TIP3   OH222607   6.054   1.326   3.515
 7548TIP3    H122608   6.076   1.274   3.593
 7548TIP3    H222609   6.086   1.273   3.442
 7549TIP3   OH222610   1.943   2.233   3.813
 7549TIP3    H122611   1.965   2.287   3.737
 7549TIP3    H222612   2.027   2.199   3.843
 7550TIP3   OH222613   5.300   4.312   0.072
 7550TIP3    H122614   5.376   4.314   0.015
 7550TIP3    H222615   5.232   4.359   0.024
 7551TIP3   OH222616   3.245   0.788   0.142
 7551TIP3    H122617   3.262   0.876   0.106
 7551TIP3    H222618   3.320   0.771   0.200
 7552TIP3   OH222619   6.548   6.283   5.833
 7552TIP3    H122620   6.576   6.307   5.921
 7552TIP3    H222621   6.461   6.244   5.845
 7553TIP3   OH222622   4.112   6.724   4.612
 7553TIP3    H122623   4.029   6.762   4.581
 7553TIP3    H222624   4.117   6.750   4.704
 7554TIP3   OH222625   5.694   3.713   5.002
 7554TIP3    H122626   5.694   3.808   5.006
 7554TIP3    H222627   5.658   3.684   5.085
 7555TIP3   OH222628   2.911   1.462   4.268
 7555TIP3    H122629   2.838   1.512   4.230
 7555TIP3    H222630   2.955   1.525   4.325
 7556TIP3   OH222631   4.522   6.514   1.925
 7556TIP3    H122632   4.559   6.518   1.836
 7556TIP3    H222633   4.428   6.531   1.912
 7557TIP3   OH222634   3.162   2.309   3.552
 7557TIP3    H122635   3.176   2.353   3.636
 7557TIP3    H222636   3.067   2.310   3.540
 7558TIP3   OH222637   0.135   4.350   4.230
 7558TIP3    H122638   0.207   4.289   4.247
 7558TIP3    H222639   0.097   4.321   4.147
 7559TIP3   OH222640   5.350   6.628   4.487
 7559TIP3    H122641   5.278   6.571   4.458
 7559TIP3    H222642   5.407   6.635   4.411
 7560TIP3   OH222643   5.731   1.681   1.533
 7560TIP3    H122644   5.669   1.750   1.509
 7560TIP3    H222645   5.803   1.691   1.471
 7561TIP3   OH222646   1.079   3.623   3.503
 7561TIP3    H122647   1.132   3.567   3.559
 7561TIP3    H222648   1.042   3.688   3.562
 7562TIP3   OH222649   1.168   4.357   1.009
 7562TIP3    H122650   1.210   4.442   0.999
 7562TIP3    H222651   1.239   4.298   1.036
 7563TIP3   OH222652   2.466   4.305   2.096
 7563TIP3    H122653   2.409   4.248   2.044
 7563TIP3    H222654   2.406   4.367   2.138
 7564TIP3   OH222655   1.354   6.675   2.339
 7564TIP3    H122656   1.334   6.752   2.286
 7564TIP3    H222657   1.391   6.710   2.420
 7565TIP3   OH222658   4.307   1.039   4.641
 7565TIP3    H122659   4.343   1.034   4.553
 7565TIP3    H222660   4.217   1.008   4.632
 7566TIP3   OH222661   3.665   6.178   0.591
 7566TIP3    H122662   3.618   6.127   0.526
 7566TIP3    H222663   3.611   6.174   0.670
 7567TIP3   OH222664   0.355   5.985   0.632
 7567TIP3    H122665   0.413   6.052   0.597
 7567TIP3    H222666   0.319   6.023   0.712
 7568TIP3   OH222667   1.981   2.836   4.732
 7568TIP3    H122668   1.962   2.759   4.678
 7568TIP3    H222669   1.952   2.910   4.679
 7569TIP3   OH222670   3.885   6.673   1.678
 7569TIP3    H122671   3.935   6.755   1.680
 7569TIP3    H222672   3.796   6.700   1.701
 7570TIP3   OH222673   2.646   2.076   2.406
 7570TIP3    H122674   2.732   2.116   2.420
 7570TIP3    H222675   2.606   2.073   2.492
 7571TIP3   OH222676   0.384   0.545   0.807
 7571TIP3    H122677   0.440   0.621   0.795
 7571TIP3    H222678   0.377   0.535   0.902
 7572TIP3   OH222679   4.289   6.311   5.476
 7572TIP3    H122680   4.246   6.234   5.512
 7572TIP3    H222681   4.327   6.355   5.552
 7573TIP3   OH222682   3.424   5.117   3.549
 7573TIP3    H122683   3.460   5.196   3.589
 7573TIP3    H222684   3.394   5.145   3.462
 7574TIP3   OH222685   6.274   3.638   3.073
 7574TIP3    H122686   6.224   3.670   3.148
 7574TIP3    H222687   6.269   3.710   3.009
 7575TIP3   OH222688   4.430   5.713   0.939
 7575TIP3    H122689   4.519   5.729   0.907
 7575TIP3    H222690   4.410   5.789   0.994
 7576TIP3   OH222691   3.555   0.763   4.175
 7576TIP3    H122692   3.467   0.749   4.209
 7576TIP3    H222693   3.561   0.858   4.163
 7577TIP3   OH222694   3.582   2.723   1.716
 7577TIP3    H122695   3.639   2.799   1.727
 7577TIP3    H222696   3.569   2.689   1.805
 7578TIP3   OH222697   3.582   5.564   0.811
 7578TIP3    H122698   3.642   5.490   0.800
 7578TIP3    H222699   3.629   5.625   0.868
 7579TIP3   OH222700   5.763   5.022   1.334
 7579TIP3    H122701   5.765   4.983   1.247
 7579TIP3    H222702   5.854   5.023   1.362
 7580TIP3   OH222703   2.726   1.219   0.023
 7580TIP3    H122704   2.742   1.172   0.105
 7580TIP3    H222705   2.639   1.257   0.034
 7581TIP3   OH222706   1.363   4.063   4.565
 7581TIP3    H122707   1.381   3.970   4.549
 7581TIP3    H222708   1.440   4.108   4.533
 7582TIP3   OH222709   0.911   4.676   1.192
 7582TIP3    H122710   1.001   4.646   1.205
 7582TIP3    H222711   0.920   4.758   1.143
 7583TIP3   OH222712   7.115   4.342   3.687
 7583TIP3    H122713   7.181   4.273   3.687
 7583TIP3    H222714   7.054   4.316   3.756
 7584TIP3   OH222715   5.628   5.691   3.386
 7584TIP3    H122716   5.623   5.620   3.450
 7584TIP3    H222717   5.556   5.675   3.326
 7585TIP3   OH222718   0.638   5.346   1.067
 7585TIP3    H122719   0.604   5.362   1.155
 7585TIP3    H222720   0.561   5.327   1.014
 7586TIP3   OH222721   6.446   1.229   0.340
 7586TIP3    H122722   6.469   1.318   0.313
 7586TIP3    H222723   6.482   1.173   0.272
 7587TIP3   OH222724   2.115   4.626   0.800
 7587TIP3    H122725   2.106   4.581   0.716
 7587TIP3    H222726   2.077   4.713   0.784
 7588TIP3   OH222727   3.795   0.131   5.548
 7588TIP3    H122728   3.861   0.199   5.564
 7588TIP3    H222729   3.845   0.050   5.543
 7589TIP3   OH222730   6.191   3.973   5.642
 7589TIP3    H122731   6.271   3.976   5.591
 7589TIP3    H222732   6.170   4.064   5.660
 7590TIP3   OH222733   0.519   0.744   3.809
 7590TIP3    H122734   0.585   0.813   3.805
 7590TIP3    H222735   0.466   0.766   3.886
 7591TIP3   OH222736   1.332   5.900   3.262
 7591TIP3    H122737   1.277   5.978   3.263
 7591TIP3    H222738   1.353   5.887   3.170
 7592TIP3   OH222739   0.884   0.234   0.540
 7592TIP3    H122740   0.956   0.201   0.594
 7592TIP3    H222741   0.812   0.248   0.602
 7593TIP3   OH222742   3.481   0.339   3.283
 7593TIP3    H122743   3.561   0.358   3.334
 7593TIP3    H222744   3.512   0.330   3.193
 7594TIP3   OH222745   2.592   2.413   1.376
 7594TIP3    H122746   2.513   2.402   1.430
 7594TIP3    H222747   2.559   2.444   1.292
 7595TIP3   OH222748   3.383   0.456   5.595
 7595TIP3    H122749   3.387   0.477   5.502
 7595TIP3    H222750   3.311   0.509   5.629
 7596TIP3   OH222751   4.417   3.989   0.274
 7596TIP3    H122752   4.409   4.061   0.336
 7596TIP3    H222753   4.345   3.929   0.298
 7597TIP3   OH222754   3.345   3.653   1.517
 7597TIP3    H122755   3.327   3.607   1.435
 7597TIP3    H222756   3.262   3.652   1.564
 7598TIP3   OH222757   0.876   2.603   5.419
 7598TIP3    H122758   0.890   2.673   5.355
 7598TIP3    H222759   0.935   2.533   5.392
 7599TIP3   OH222760   2.724   2.095   1.991
 7599TIP3    H122761   2.735   2.161   2.059
 7599TIP3    H222762   2.743   2.012   2.035
 7600TIP3   OH222763   5.927   1.046   5.517
 7600TIP3    H122764   5.875   1.114   5.559
 7600TIP3    H222765   6.008   1.089   5.491
 7601TIP3   OH222766   2.706   1.421   1.848
 7601TIP3    H122767   2.759   1.434   1.927
 7601TIP3    H222768   2.764   1.446   1.776
 7602TIP3   OH222769   1.685   0.782   3.911
 7602TIP3    H122770   1.729   0.775   3.826
 7602TIP3    H222771   1.687   0.876   3.930
 7603TIP3   OH222772   4.707   3.325   5.312
 7603TIP3    H122773   4.780   3.273   5.280
 7603TIP3    H222774   4.633   3.300   5.257
 7604TIP3   OH222775   0.629   1.079   1.208
 7604TIP3    H122776   0.673   1.162   1.229
 7604TIP3    H222777   0.579   1.057   1.287
 7605TIP3   OH222778   3.516   2.740   5.300
 7605TIP3    H122779   3.460   2.664   5.284
 7605TIP3    H222780   3.464   2.814   5.268
 7606TIP3   OH222781   0.562   2.492   5.831
 7606TIP3    H122782   0.524   2.578   5.847
 7606TIP3    H222783   0.628   2.480   5.900
 7607TIP3   OH222784   1.086   0.093   3.524
 7607TIP3    H122785   1.035   0.021   3.561
 7607TIP3    H222786   1.096   0.070   3.432
 7608TIP3   OH222787   3.598   4.870   2.381
 7608TIP3    H122788   3.570   4.842   2.468
 7608TIP3    H222789   3.587   4.965   2.381
 7609TIP3   OH222790   6.717   6.308   1.708
 7609TIP3    H122791   6.659   6.255   1.652
 7609TIP3    H222792   6.787   6.249   1.734
 7610TIP3   OH222793   0.660   2.047   1.578
 7610TIP3    H122794   0.749   2.081   1.572
 7610TIP3    H222795   0.663   1.962   1.535
 7611TIP3   OH222796   7.060   0.960   3.657
 7611TIP3    H122797   7.007   0.884   3.681
 7611TIP3    H222798   7.113   0.979   3.734
 7612TIP3   OH222799   5.794   6.162   3.607
 7612TIP3    H122800   5.751   6.200   3.531
 7612TIP3    H222801   5.740   6.189   3.681
 7613TIP3   OH222802   3.875   1.510   0.725
 7613TIP3    H122803   3.795   1.561   0.718
 7613TIP3    H222804   3.945   1.573   0.709
 7614TIP3   OH222805   2.036   6.661   2.376
 7614TIP3    H122806   1.986   6.740   2.399
 7614TIP3    H222807   2.120   6.673   2.420
 7615TIP3   OH222808   4.301   1.043   3.198
 7615TIP3    H122809   4.393   1.032   3.174
 7615TIP3    H222810   4.302   1.050   3.294
 7616TIP3   OH222811   4.796   2.693   1.811
 7616TIP3    H122812   4.886   2.727   1.814
 7616TIP3    H222813   4.759   2.730   1.731
 7617TIP3   OH222814   4.200   4.132   3.221
 7617TIP3    H122815   4.292   4.105   3.217
 7617TIP3    H222816   4.198   4.200   3.287
 7618TIP3   OH222817   3.756   2.489   0.704
 7618TIP3    H122818   3.806   2.428   0.649
 7618TIP3    H222819   3.815   2.510   0.776
 7619TIP3   OH222820   1.270   3.189   4.821
 7619TIP3    H122821   1.267   3.159   4.912
 7619TIP3    H222822   1.216   3.268   4.820
 7620TIP3   OH222823   1.491   6.021   4.529
 7620TIP3    H122824   1.561   6.038   4.592
 7620TIP3    H222825   1.533   6.031   4.444
 7621TIP3   OH222826   4.333   3.384   0.489
 7621TIP3    H122827   4.405   3.346   0.539
 7621TIP3    H222828   4.360   3.474   0.472
 7622TIP3   OH222829   2.997   4.005   2.196
 7622TIP3    H122830   2.958   4.091   2.211
 7622TIP3    H222831   2.937   3.962   2.136
 7623TIP3   OH222832   1.629   2.645   3.102
 7623TIP3    H122833   1.548   2.685   3.071
 7623TIP3    H222834   1.608   2.612   3.189
 7624TIP3   OH222835   4.011   2.093   1.781
 7624TIP3    H122836   4.099   2.058   1.786
 7624TIP3    H222837   4.007   2.138   1.697
 7625TIP3   OH222838   2.022   3.474   5.603
 7625TIP3    H122839   2.053   3.443   5.688
 7625TIP3    H222840   1.998   3.566   5.618
 7626TIP3   OH222841   4.530   4.774   4.805
 7626TIP3    H122842   4.602   4.744   4.751
 7626TIP3    H222843   4.495   4.694   4.844
 7627TIP3   OH222844   0.111   2.544   0.377
 7627TIP3    H122845   0.155   2.473   0.331
 7627TIP3    H222846   0.176   2.613   0.383
 7628TIP3   OH222847   2.349   6.321   2.731
 7628TIP3    H122848   2.400   6.275   2.797
 7628TIP3    H222849   2.406   6.326   2.655
 7629TIP3   OH222850   2.648   4.277   5.587
 7629TIP3    H122851   2.711   4.228   5.639
 7629TIP3    H222852   2.608   4.211   5.530
 7630TIP3   OH222853   3.985   3.720   3.270
 7630TIP3    H122854   4.067   3.751   3.307
 7630TIP3    H222855   4.007   3.692   3.181
 7631TIP3   OH222856   0.100   2.793   2.188
 7631TIP3    H122857   0.155   2.860   2.148
 7631TIP3    H222858   0.014   2.833   2.195
 7632TIP3   OH222859   6.108   1.130   1.484
 7632TIP3    H122860   6.058   1.167   1.412
 7632TIP3    H222861   6.183   1.088   1.442
 7633TIP3   OH222862   5.587   5.686   1.651
 7633TIP3    H122863   5.565   5.695   1.558
 7633TIP3    H222864   5.624   5.771   1.674
 7634TIP3   OH222865   3.560   4.414   0.475
 7634TIP3    H122866   3.495   4.389   0.540
 7634TIP3    H222867   3.604   4.332   0.452
 7635TIP3   OH222868   2.733   5.648   2.373
 7635TIP3    H122869   2.766   5.563   2.401
 7635TIP3    H222870   2.641   5.648   2.399
 7636TIP3   OH222871   7.124   1.957   2.174
 7636TIP3    H122872   7.169   1.959   2.258
 7636TIP3    H222873   7.129   1.865   2.147
 7637TIP3   OH222874   6.812   4.904   4.713
 7637TIP3    H122875   6.874   4.855   4.659
 7637TIP3    H222876   6.748   4.940   4.651
 7638TIP3   OH222877   4.246   1.282   5.827
 7638TIP3    H122878   4.223   1.266   5.918
 7638TIP3    H222879   4.275   1.196   5.794
 7639TIP3   OH222880   3.374   2.844   1.573
 7639TIP3    H122881   3.344   2.783   1.506
 7639TIP3    H222882   3.443   2.797   1.620
 7640TIP3   OH222883   1.671   5.736   1.310
 7640TIP3    H122884   1.697   5.758   1.221
 7640TIP3    H222885   1.648   5.820   1.350
 7641TIP3   OH222886   4.967   6.755   1.486
 7641TIP3    H122887   4.920   6.677   1.456
 7641TIP3    H222888   4.923   6.828   1.442
 7642TIP3   OH222889   4.540   2.071   0.779
 7642TIP3    H122890   4.565   1.985   0.748
 7642TIP3    H222891   4.620   2.106   0.819
 7643TIP3   OH222892   6.639   5.534   1.662
 7643TIP3    H122893   6.647   5.546   1.757
 7643TIP3    H222894   6.608   5.444   1.652
 7644TIP3   OH222895   2.434   3.390   0.230
 7644TIP3    H122896   2.479   3.474   0.237
 7644TIP3    H222897   2.504   3.328   0.207
 7645TIP3   OH222898   0.671   4.439   3.685
 7645TIP3    H122899   0.757   4.463   3.720
 7645TIP3    H222900   0.610   4.497   3.732
 7646TIP3   OH222901   6.815   6.767   4.470
 7646TIP3    H122902   6.807   6.829   4.398
 7646TIP3    H222903   6.841   6.820   4.545
 7647TIP3   OH222904   6.723   0.328   0.004
 7647TIP3    H122905   6.809   0.306   0.039
 7647TIP3    H222906   6.733   0.415  -0.033
 7648TIP3   OH222907   1.089   1.885   3.962
 7648TIP3    H122908   1.106   1.794   3.936
 7648TIP3    H222909   1.135   1.938   3.898
 7649TIP3   OH222910   6.550   6.294   3.134
 7649TIP3    H122911   6.565   6.232   3.063
 7649TIP3    H222912   6.541   6.240   3.212
 7650TIP3   OH222913   4.576   4.777   0.527
 7650TIP3    H122914   4.661   4.769   0.484
 7650TIP3    H222915   4.594   4.831   0.605
 7651TIP3   OH222916   3.785   4.892   4.729
 7651TIP3    H122917   3.867   4.902   4.776
 7651TIP3    H222918   3.724   4.952   4.772
 7652TIP3   OH222919   3.589   2.226   1.427
 7652TIP3    H122920   3.499   2.252   1.409
 7652TIP3    H222921   3.642   2.286   1.374
 7653TIP3   OH222922   5.807   1.540   4.308
 7653TIP3    H122923   5.886   1.592   4.322
 7653TIP3    H222924   5.814   1.511   4.217
 7654TIP3   OH222925   5.700   1.105   2.566
 7654TIP3    H122926   5.713   1.015   2.535
 7654TIP3    H222927   5.726   1.103   2.658
 7655TIP3   OH222928   4.339   5.814   1.580
 7655TIP3    H122929   4.245   5.830   1.583
 7655TIP3    H222930   4.374   5.865   1.653
 7656TIP3   OH222931   6.203   4.831   5.658
 7656TIP3    H122932   6.290   4.827   5.698
 7656TIP3    H222933   6.210   4.901   5.593
 7657TIP3   OH222934   3.225   2.300   1.753
 7657TIP3    H122935   3.145   2.311   1.804
 7657TIP3    H222936   3.213   2.355   1.677
 7658TIP3   OH222937   1.566   1.452   1.639
 7658TIP3    H122938   1.621   1.423   1.566
 7658TIP3    H222939   1.549   1.372   1.689
 7659TIP3   OH222940   3.834   0.196   1.712
 7659TIP3    H122941   3.803   0.200   1.803
 7659TIP3    H222942   3.862   0.285   1.692
 7660TIP3   OH222943   6.568   6.702   5.154
 7660TIP3    H122944   6.581   6.715   5.248
 7660TIP3    H222945   6.474   6.687   5.145
 7661TIP3   OH222946   2.118   3.941   5.421
 7661TIP3    H122947   2.092   4.030   5.396
 7661TIP3    H222948   2.096   3.887   5.346
 7662TIP3   OH222949   2.078   2.029   2.736
 7662TIP3    H122950   2.045   2.100   2.681
 7662TIP3    H222951   2.146   1.987   2.682
 7663TIP3   OH222952   2.755   0.605   0.948
 7663TIP3    H122953   2.701   0.528   0.966
 7663TIP3    H222954   2.724   0.671   1.011
 7664TIP3   OH222955   1.735   3.445   5.093
 7664TIP3    H122956   1.670   3.427   5.024
 7664TIP3    H222957   1.686   3.492   5.160
 7665TIP3   OH222958   1.960   2.414   3.277
 7665TIP3    H122959   2.003   2.500   3.276
 7665TIP3    H222960   1.974   2.379   3.189
 7666TIP3   OH222961   2.055   6.647   5.716
 7666TIP3    H122962   2.114   6.635   5.642
 7666TIP3    H222963   2.079   6.576   5.777
 7667TIP3   OH222964   2.619   2.471   0.571
 7667TIP3    H122965   2.712   2.468   0.549
 7667TIP3    H222966   2.577   2.505   0.492
 7668TIP3   OH222967   4.495   1.126   2.137
 7668TIP3    H122968   4.493   1.147   2.231
 7668TIP3    H222969   4.580   1.085   2.123
 7669TIP3   OH222970   5.652   5.628   4.902
 7669TIP3    H122971   5.598   5.697   4.864
 7669TIP3    H222972   5.593   5.581   4.961
 7670TIP3   OH222973   2.101   3.726   4.289
 7670TIP3    H122974   2.012   3.730   4.253
 7670TIP3    H222975   2.088   3.705   4.381
 7671TIP3   OH222976   1.645   1.304   0.227
 7671TIP3    H122977   1.585   1.273   0.159
 7671TIP3    H222978   1.732   1.294   0.188
 7672TIP3   OH222979   2.025   3.846   0.671
 7672TIP3    H122980   1.992   3.779   0.732
 7672TIP3    H222981   2.017   3.928   0.719
 7673TIP3   OH222982   3.407   3.287   3.083
 7673TIP3    H122983   3.483   3.230   3.096
 7673TIP3    H222984   3.443   3.375   3.085
 7674TIP3   OH222985   1.796   5.791   4.112
 7674TIP3    H122986   1.892   5.785   4.107
 7674TIP3    H222987   1.780   5.849   4.186
 7675TIP3   OH222988   0.218   3.115   4.227
 7675TIP3    H122989   0.247   3.046   4.168
 7675TIP3    H222990   0.123   3.120   4.214
 7676TIP3   OH222991   1.523   0.416   1.145
 7676TIP3    H122992   1.616   0.433   1.131
 7676TIP3    H222993   1.500   0.350   1.081
 7677TIP3   OH222994   4.099   0.228   5.576
 7677TIP3    H122995   4.187   0.213   5.544
 7677TIP3    H222996   4.073   0.145   5.616
 7678TIP3   OH222997   4.874   3.623   4.647
 7678TIP3    H122998   4.966   3.603   4.660
 7678TIP3    H222999   4.831   3.594   4.728
 7679TIP3   OH223000   6.413   3.285   0.688
 7679TIP3    H123001   6.369   3.352   0.740
 7679TIP3    H223002   6.349   3.213   0.682
 7680TIP3   OH223003   3.436   6.508   3.060
 7680TIP3    H123004   3.380   6.540   3.130
 7680TIP3    H223005   3.451   6.416   3.080
 7681TIP3   OH223006   2.903   2.985   3.655
 7681TIP3    H123007   2.921   2.931   3.732
 7681TIP3    H223008   2.986   3.032   3.639
 7682TIP3   OH223009   5.984   3.246   0.377
 7682TIP3    H123010   5.968   3.338   0.352
 7682TIP3    H223011   5.902   3.202   0.358
 7683TIP3   OH223012   5.255   0.598   2.223
 7683TIP3    H123013   5.213   0.682   2.207
 7683TIP3    H223014   5.342   0.620   2.257
 7684TIP3   OH223015   3.937   0.162   4.015
 7684TIP3    H123016   3.847   0.189   4.034
 7684TIP3    H223017   3.938   0.068   4.034
 7685TIP3   OH223018   4.423   6.646   2.451
 7685TIP3    H123019   4.353   6.581   2.458
 7685TIP3    H223020   4.445   6.648   2.358
 7686TIP3   OH223021   6.546   2.639   0.826
 7686TIP3    H123022   6.550   2.687   0.743
 7686TIP3    H223023   6.519   2.705   0.890
 7687TIP3   OH223024   5.744   4.414   0.423
 7687TIP3    H123025   5.829   4.441   0.457
 7687TIP3    H223026   5.681   4.476   0.459
 7688TIP3   OH223027   1.222   2.106   5.374
 7688TIP3    H123028   1.210   2.158   5.294
 7688TIP3    H223029   1.209   2.016   5.346
 7689TIP3   OH223030   0.773   1.306   1.289
 7689TIP3    H123031   0.735   1.393   1.285
 7689TIP3    H223032   0.841   1.311   1.356
 7690TIP3   OH223033   4.712   0.382   0.995
 7690TIP3    H123034   4.668   0.300   0.973
 7690TIP3    H223035   4.664   0.416   1.071
 7691TIP3   OH223036   4.772   4.564   4.202
 7691TIP3    H123037   4.728   4.588   4.121
 7691TIP3    H223038   4.803   4.475   4.186
 7692TIP3   OH223039   5.895   5.270   1.679
 7692TIP3    H123040   5.848   5.186   1.682
 7692TIP3    H223041   5.830   5.333   1.648
 7693TIP3   OH223042   7.148   0.366   1.341
 7693TIP3    H123043   7.167   0.430   1.409
 7693TIP3    H223044   7.069   0.398   1.299
 7694TIP3   OH223045   0.223   3.701   2.433
 7694TIP3    H123046   0.234   3.788   2.394
 7694TIP3    H223047   0.243   3.641   2.361
 7695TIP3   OH223048   3.752   2.528   2.405
 7695TIP3    H123049   3.766   2.519   2.499
 7695TIP3    H223050   3.764   2.440   2.370
 7696TIP3   OH223051   5.695   0.429   1.113
 7696TIP3    H123052   5.781   0.393   1.135
 7696TIP3    H223053   5.703   0.457   1.022
 7697TIP3   OH223054   5.491   1.716   0.455
 7697TIP3    H123055   5.549   1.675   0.391
 7697TIP3    H223056   5.548   1.771   0.509
 7698TIP3   OH223057   2.958   4.914   1.445
 7698TIP3    H123058   2.885   4.880   1.496
 7698TIP3    H223059   2.923   4.995   1.406
 7699TIP3   OH223060   2.327   3.280   3.316
 7699TIP3    H123061   2.419   3.286   3.289
 7699TIP3    H223062   2.289   3.364   3.291
 7700TIP3   OH223063   6.802   6.478   3.563
 7700TIP3    H123064   6.732   6.488   3.628
 7700TIP3    H223065   6.761   6.433   3.489
 7701TIP3   OH223066   3.749   4.421   1.827
 7701TIP3    H123067   3.804   4.364   1.774
 7701TIP3    H223068   3.660   4.408   1.793
 7702TIP3   OH223069   2.319   0.121   2.268
 7702TIP3    H123070   2.280   0.203   2.297
 7702TIP3    H223071   2.248   0.058   2.271
 7703TIP3   OH223072   1.210   0.618   5.508
 7703TIP3    H123073   1.284   0.628   5.448
 7703TIP3    H223074   1.150   0.559   5.463
 7704TIP3   OH223075   1.105   4.782   4.960
 7704TIP3    H123076   1.181   4.752   4.909
 7704TIP3    H223077   1.030   4.741   4.917
 7705TIP3   OH223078   1.452   5.640   2.869
 7705TIP3    H123079   1.527   5.585   2.890
 7705TIP3    H223080   1.464   5.664   2.777
 7706TIP3   OH223081   2.660   0.657   4.108
 7706TIP3    H123082   2.690   0.569   4.086
 7706TIP3    H223083   2.577   0.667   4.060
 7707TIP3   OH223084   5.462   2.631   2.678
 7707TIP3    H123085   5.449   2.681   2.597
 7707TIP3    H223086   5.491   2.696   2.742
 7708TIP3   OH223087   3.442   3.339   3.384
 7708TIP3    H123088   3.397   3.275   3.330
 7708TIP3    H223089   3.502   3.384   3.324
 7709TIP3   OH223090   3.052   1.587   0.544
 7709TIP3    H123091   2.978   1.621   0.595
 7709TIP3    H223092   3.058   1.495   0.569
 7710TIP3   OH223093   4.828   5.701   4.271
 7710TIP3    H123094   4.848   5.783   4.226
 7710TIP3    H223095   4.733   5.695   4.269
 7711TIP3   OH223096   5.101   3.841   1.064
 7711TIP3    H123097   5.036   3.881   1.006
 7711TIP3    H223098   5.064   3.756   1.087
 7712TIP3   OH223099   2.573   6.370   5.235
 7712TIP3    H123100   2.584   6.421   5.155
 7712TIP3    H223101   2.480   6.347   5.237
 7713TIP3   OH223102   5.287   3.209   5.143
 7713TIP3    H123103   5.223   3.245   5.204
 7713TIP3    H223104   5.235   3.177   5.070
 7714TIP3   OH223105   1.849   5.455   5.394
 7714TIP3    H123106   1.808   5.540   5.377
 7714TIP3    H223107   1.904   5.439   5.318
 7715TIP3   OH223108   2.938   5.422   1.455
 7715TIP3    H123109   3.018   5.458   1.418
 7715TIP3    H223110   2.966   5.345   1.503
 7716TIP3   OH223111   2.238   2.936   3.008
 7716TIP3    H123112   2.249   2.977   3.093
 7716TIP3    H223113   2.148   2.956   2.982
 7717TIP3   OH223114   5.461   5.374   1.184
 7717TIP3    H123115   5.461   5.461   1.226
 7717TIP3    H223116   5.371   5.363   1.153
 7718TIP3   OH223117   4.367   3.132   0.837
 7718TIP3    H123118   4.293   3.191   0.851
 7718TIP3    H223119   4.420   3.175   0.770
 7719TIP3   OH223120   3.238   4.217   0.452
 7719TIP3    H123121   3.330   4.193   0.466
 7719TIP3    H223122   3.212   4.261   0.533
 7720TIP3   OH223123   5.879   5.751   1.253
 7720TIP3    H123124   5.942   5.755   1.325
 7720TIP3    H223125   5.916   5.807   1.185
 7721TIP3   OH223126   1.953   2.362   5.052
 7721TIP3    H123127   1.970   2.451   5.020
 7721TIP3    H223128   1.879   2.372   5.112
 7722TIP3   OH223129   4.351   2.271   1.101
 7722TIP3    H123130   4.411   2.214   1.149
 7722TIP3    H223131   4.405   2.310   1.032
 7723TIP3   OH223132   7.116   3.767   1.180
 7723TIP3    H123133   7.152   3.807   1.260
 7723TIP3    H223134   7.173   3.693   1.162
 7724TIP3   OH223135   7.062   4.626   4.339
 7724TIP3    H123136   7.135   4.581   4.381
 7724TIP3    H223137   7.096   4.713   4.318
 7725TIP3   OH223138   2.449   6.419   4.784
 7725TIP3    H123139   2.368   6.434   4.734
 7725TIP3    H223140   2.516   6.404   4.717
 7726TIP3   OH223141   1.552   5.223   0.256
 7726TIP3    H123142   1.508   5.161   0.313
 7726TIP3    H223143   1.482   5.264   0.205
 7727TIP3   OH223144   3.156   6.250   2.676
 7727TIP3    H123145   3.107   6.292   2.605
 7727TIP3    H223146   3.210   6.184   2.633
 7728TIP3   OH223147   5.077   2.869   0.690
 7728TIP3    H123148   5.090   2.782   0.654
 7728TIP3    H223149   5.017   2.912   0.628
 7729TIP3   OH223150   2.226   4.166   5.638
 7729TIP3    H123151   2.187   4.211   5.564
 7729TIP3    H223152   2.238   4.076   5.607
 7730TIP3   OH223153   4.588   1.213   4.755
 7730TIP3    H123154   4.631   1.130   4.775
 7730TIP3    H223155   4.522   1.223   4.823
 7731TIP3   OH223156   5.776   5.023   1.737
 7731TIP3    H123157   5.726   5.018   1.818
 7731TIP3    H223158   5.757   4.942   1.691
 7732TIP3   OH223159   6.896   2.869   4.012
 7732TIP3    H123160   6.805   2.864   3.980
 7732TIP3    H223161   6.887   2.879   4.107
 7733TIP3   OH223162   4.715   4.853   3.705
 7733TIP3    H123163   4.737   4.788   3.773
 7733TIP3    H223164   4.637   4.817   3.663
 7734TIP3   OH223165   2.604   5.864   0.749
 7734TIP3    H123166   2.619   5.834   0.839
 7734TIP3    H223167   2.510   5.878   0.744
 7735TIP3   OH223168   3.659   4.392   1.447
 7735TIP3    H123169   3.583   4.335   1.459
 7735TIP3    H223170   3.637   4.473   1.493
 7736TIP3   OH223171   3.210   2.816  -0.009
 7736TIP3    H123172   3.205   2.782   0.080
 7736TIP3    H223173   3.121   2.847  -0.028
 7737TIP3   OH223174   5.103   1.537   5.881
 7737TIP3    H123175   5.062   1.588   5.812
 7737TIP3    H223176   5.095   1.446   5.852
 7738TIP3   OH223177   4.927   4.742   1.075
 7738TIP3    H123178   5.013   4.728   1.113
 7738TIP3    H223179   4.917   4.838   1.073
 7739TIP3   OH223180   0.359   5.725   2.526
 7739TIP3    H123181   0.398   5.643   2.496
 7739TIP3    H223182   0.373   5.724   2.621
 7740TIP3   OH223183   3.310   5.508   3.261
 7740TIP3    H123184   3.255   5.519   3.184
 7740TIP3    H223185   3.396   5.483   3.226
 7741TIP3   OH223186   5.588   5.889   0.012
 7741TIP3    H123187   5.672   5.934  -0.003
 7741TIP3    H223188   5.610   5.817   0.071
 7742TIP3   OH223189   6.270   4.871   2.870
 7742TIP3    H123190   6.267   4.867   2.966
 7742TIP3    H223191   6.179   4.887   2.844
 7743TIP3   OH223192   4.461   2.824   1.227
 7743TIP3    H123193   4.555   2.808   1.220
 7743TIP3    H223194   4.444   2.899   1.170
 7744TIP3   OH223195   6.559   3.929   2.824
 7744TIP3    H123196   6.624   3.995   2.801
 7744TIP3    H223197   6.543   3.882   2.742
 7745TIP3   OH223198   3.392   2.476   4.996
 7745TIP3    H123199   3.309   2.518   5.016
 7745TIP3    H223200   3.408   2.497   4.904
 7746TIP3   OH223201   4.112   0.669   4.570
 7746TIP3    H123202   4.168   0.642   4.642
 7746TIP3    H223203   4.147   0.622   4.494
 7747TIP3   OH223204   1.679   4.370   3.924
 7747TIP3    H123205   1.606   4.329   3.972
 7747TIP3    H223206   1.757   4.342   3.972
 7748TIP3   OH223207   0.348   6.182   5.639
 7748TIP3    H123208   0.272   6.126   5.620
 7748TIP3    H223209   0.323   6.230   5.717
 7749TIP3   OH223210   3.170   5.750   3.363
 7749TIP3    H123211   3.108   5.690   3.405
 7749TIP3    H223212   3.233   5.694   3.319
 7750TIP3   OH223213   2.399   5.077   1.902
 7750TIP3    H123214   2.475   5.051   1.953
 7750TIP3    H223215   2.424   5.062   1.811
 7751TIP3   OH223216   2.233   2.572   3.775
 7751TIP3    H123217   2.312   2.607   3.735
 7751TIP3    H223218   2.161   2.616   3.730
 7752TIP3   OH223219   5.394   2.319   4.493
 7752TIP3    H123220   5.420   2.316   4.586
 7752TIP3    H223221   5.311   2.272   4.491
 7753TIP3   OH223222   0.131   4.436   3.490
 7753TIP3    H123223   0.165   4.354   3.453
 7753TIP3    H223224   0.036   4.428   3.483
 7754TIP3   OH223225   6.490   5.413   4.393
 7754TIP3    H123226   6.481   5.419   4.298
 7754TIP3    H223227   6.404   5.384   4.423
 7755TIP3   OH223228   6.553   0.583   1.889
 7755TIP3    H123229   6.627   0.610   1.943
 7755TIP3    H223230   6.477   0.627   1.928
 7756TIP3   OH223231   2.318   6.708   2.879
 7756TIP3    H123232   2.321   6.785   2.822
 7756TIP3    H223233   2.227   6.678   2.873
 7757TIP3   OH223234   0.693   6.590   2.762
 7757TIP3    H123235   0.645   6.536   2.699
 7757TIP3    H223236   0.785   6.581   2.737
 7758TIP3   OH223237   5.454   5.569   1.888
 7758TIP3    H123238   5.369   5.590   1.848
 7758TIP3    H223239   5.518   5.587   1.819
 7759TIP3   OH223240   6.397   0.537   3.192
 7759TIP3    H123241   6.346   0.470   3.145
 7759TIP3    H223242   6.486   0.528   3.159
 7760TIP3   OH223243   7.134   4.228   4.655
 7760TIP3    H123244   7.131   4.234   4.751
 7760TIP3    H223245   7.159   4.137   4.638
 7761TIP3   OH223246   1.218   5.221   5.075
 7761TIP3    H123247   1.280   5.214   5.002
 7761TIP3    H223248   1.186   5.132   5.089
 7762TIP3   OH223249   6.550   2.759   2.241
 7762TIP3    H123250   6.475   2.788   2.293
 7762TIP3    H223251   6.514   2.741   2.155
 7763TIP3   OH223252   5.216   5.909   4.926
 7763TIP3    H123253   5.172   5.859   4.858
 7763TIP3    H223254   5.292   5.857   4.951
 7764TIP3   OH223255   3.046   4.574   5.758
 7764TIP3    H123256   3.112   4.535   5.816
 7764TIP3    H223257   3.050   4.521   5.679
 7765TIP3   OH223258   1.840   4.117   1.651
 7765TIP3    H123259   1.841   4.212   1.651
 7765TIP3    H223260   1.750   4.094   1.625
 7766TIP3   OH223261   6.225   1.919   0.304
 7766TIP3    H123262   6.308   1.966   0.292
 7766TIP3    H223263   6.235   1.839   0.253
 7767TIP3   OH223264   5.417   5.962   2.547
 7767TIP3    H123265   5.418   6.026   2.476
 7767TIP3    H223266   5.328   5.927   2.546
 7768TIP3   OH223267   4.036   0.816   5.378
 7768TIP3    H123268   4.080   0.738   5.344
 7768TIP3    H223269   3.944   0.792   5.383
 7769TIP3   OH223270   3.216   5.491   4.112
 7769TIP3    H123271   3.155   5.563   4.125
 7769TIP3    H223272   3.163   5.420   4.078
 7770TIP3   OH223273   0.539   4.313   5.664
 7770TIP3    H123274   0.486   4.368   5.721
 7770TIP3    H223275   0.536   4.226   5.704
 7771TIP3   OH223276   4.890   3.628   3.190
 7771TIP3    H123277   4.849   3.698   3.241
 7771TIP3    H223278   4.891   3.661   3.100
 7772TIP3   OH223279   0.667   1.706   0.107
 7772TIP3    H123280   0.708   1.619   0.100
 7772TIP3    H223281   0.645   1.714   0.200
 7773TIP3   OH223282   5.190   0.147   5.042
 7773TIP3    H123283   5.113   0.104   5.004
 7773TIP3    H223284   5.157   0.187   5.122
 7774TIP3   OH223285   3.439   3.975   2.184
 7774TIP3    H123286   3.517   3.941   2.228
 7774TIP3    H223287   3.367   3.924   2.221
 7775TIP3   OH223288   2.383   0.258   3.160
 7775TIP3    H123289   2.332   0.213   3.228
 7775TIP3    H223290   2.391   0.193   3.090
 7776TIP3   OH223291   1.652   4.346   4.915
 7776TIP3    H123292   1.572   4.389   4.947
 7776TIP3    H223293   1.631   4.322   4.825
 7777TIP3   OH223294   4.270   0.811   5.060
 7777TIP3    H123295   4.239   0.737   5.113
 7777TIP3    H223296   4.193   0.866   5.049
 7778TIP3   OH223297   7.078   2.858   2.106
 7778TIP3    H123298   7.001   2.872   2.160
 7778TIP3    H223299   7.049   2.799   2.037
 7779TIP3   OH223300   6.409   3.191   5.381
 7779TIP3    H123301   6.366   3.237   5.309
 7779TIP3    H223302   6.496   3.169   5.348
 7780TIP3   OH223303   0.962   0.622   0.239
 7780TIP3    H123304   0.984   0.576   0.158
 7780TIP3    H223305   0.870   0.602   0.254
 7781TIP3   OH223306   0.123   0.066   0.999
 7781TIP3    H123307   0.203   0.078   1.051
 7781TIP3    H223308   0.110   0.151   0.957
 7782TIP3   OH223309   6.806   0.099   2.111
 7782TIP3    H123310   6.721   0.056   2.128
 7782TIP3    H223311   6.835   0.129   2.196
 7783TIP3   OH223312   3.409   3.436   3.832
 7783TIP3    H123313   3.383   3.367   3.771
 7783TIP3    H223314   3.502   3.452   3.813
 7784TIP3   OH223315   1.243   4.777   5.535
 7784TIP3    H123316   1.156   4.743   5.513
 7784TIP3    H223317   1.250   4.765   5.629
 7785TIP3   OH223318   6.984   1.266   5.846
 7785TIP3    H123319   7.016   1.187   5.890
 7785TIP3    H223320   6.905   1.237   5.801
 7786TIP3   OH223321   2.454   3.173   2.254
 7786TIP3    H123322   2.420   3.196   2.340
 7786TIP3    H223323   2.516   3.243   2.233
 7787TIP3   OH223324   2.068   3.853   3.824
 7787TIP3    H123325   2.081   3.874   3.916
 7787TIP3    H223326   2.137   3.791   3.803
 7788TIP3   OH223327   5.086   2.992   3.198
 7788TIP3    H123328   5.041   2.977   3.115
 7788TIP3    H223329   5.176   2.962   3.183
 7789TIP3   OH223330   5.978   5.545   2.169
 7789TIP3    H123331   5.931   5.466   2.144
 7789TIP3    H223332   6.031   5.567   2.092
 7790TIP3   OH223333   1.387   1.107   5.794
 7790TIP3    H123334   1.456   1.159   5.753
 7790TIP3    H223335   1.411   1.016   5.774
 7791TIP3   OH223336   3.966   6.032   2.896
 7791TIP3    H123337   3.983   6.016   2.803
 7791TIP3    H223338   4.015   6.112   2.916
 7792TIP3   OH223339   2.759   4.046   0.258
 7792TIP3    H123340   2.756   4.067   0.351
 7792TIP3    H223341   2.799   3.960   0.254
 7793TIP3   OH223342   2.290   2.605   0.120
 7793TIP3    H123343   2.385   2.619   0.119
 7793TIP3    H223344   2.269   2.579   0.031
 7794TIP3   OH223345   5.791   6.349   1.091
 7794TIP3    H123346   5.831   6.336   1.177
 7794TIP3    H223347   5.850   6.412   1.047
 7795TIP3   OH223348   6.962   6.257   5.044
 7795TIP3    H123349   7.022   6.290   4.976
 7795TIP3    H223350   6.886   6.225   4.995
 7796TIP3   OH223351   0.141   1.298   2.434
 7796TIP3    H123352   0.109   1.246   2.359
 7796TIP3    H223353   0.072   1.289   2.500
 7797TIP3   OH223354   4.594   1.182   5.131
 7797TIP3    H123355   4.546   1.264   5.117
 7797TIP3    H223356   4.677   1.195   5.085
 7798TIP3   OH223357   2.151   4.680   3.380
 7798TIP3    H123358   2.239   4.718   3.374
 7798TIP3    H223359   2.166   4.589   3.406
 7799TIP3   OH223360   3.053   4.412   1.131
 7799TIP3    H123361   3.017   4.394   1.218
 7799TIP3    H223362   2.977   4.442   1.080
 7800TIP3   OH223363   7.133   1.983   0.642
 7800TIP3    H123364   7.122   2.077   0.627
 7800TIP3    H223365   7.093   1.967   0.727
 7801TIP3   OH223366   5.682   5.887   0.398
 7801TIP3    H123367   5.637   5.803   0.388
 7801TIP3    H223368   5.749   5.871   0.464
 7802TIP3   OH223369   2.956   6.764   3.558
 7802TIP3    H123370   3.013   6.841   3.553
 7802TIP3    H223371   2.885   6.784   3.497
 7803TIP3   OH223372   6.628   0.735   5.263
 7803TIP3    H123373   6.653   0.642   5.267
 7803TIP3    H223374   6.632   0.756   5.170
 7804TIP3   OH223375   3.815   0.427   4.687
 7804TIP3    H123376   3.825   0.505   4.632
 7804TIP3    H223377   3.829   0.459   4.777
 7805TIP3   OH223378   3.501   2.646   3.198
 7805TIP3    H123379   3.412   2.625   3.228
 7805TIP3    H223380   3.528   2.720   3.253
 7806TIP3   OH223381   4.870   3.152   3.482
 7806TIP3    H123382   4.779   3.132   3.461
 7806TIP3    H223383   4.907   3.185   3.400
 7807TIP3   OH223384   4.520   6.699   3.263
 7807TIP3    H123385   4.551   6.784   3.234
 7807TIP3    H223386   4.544   6.695   3.356
 7808TIP3   OH223387   3.926   1.188   4.636
 7808TIP3    H123388   3.990   1.123   4.662
 7808TIP3    H223389   3.874   1.146   4.568
 7809TIP3   OH223390   4.322   4.098   3.538
 7809TIP3    H123391   4.363   4.091   3.624
 7809TIP3    H223392   4.366   4.031   3.485
 7810TIP3   OH223393   5.230   5.167   3.476
 7810TIP3    H123394   5.285   5.122   3.540
 7810TIP3    H223395   5.149   5.186   3.522
 7811TIP3   OH223396   0.488   1.149   2.106
 7811TIP3    H123397   0.439   1.212   2.053
 7811TIP3    H223398   0.580   1.169   2.087
 7812TIP3   OH223399   2.320   5.078   0.192
 7812TIP3    H123400   2.404   5.082   0.239
 7812TIP3    H223401   2.281   4.995   0.220
 7813TIP3   OH223402   5.675   0.287   1.425
 7813TIP3    H123403   5.596   0.272   1.476
 7813TIP3    H223404   5.658   0.246   1.340
 7814TIP3   OH223405   5.318   0.405   2.037
 7814TIP3    H123406   5.300   0.318   2.070
 7814TIP3    H223407   5.295   0.464   2.109
 7815TIP3   OH223408   1.874   2.908   1.762
 7815TIP3    H123409   1.909   2.930   1.848
 7815TIP3    H223410   1.950   2.879   1.712
 7816TIP3   OH223411   0.409   4.459   2.125
 7816TIP3    H123412   0.328   4.504   2.150
 7816TIP3    H223413   0.475   4.492   2.186
 7817TIP3   OH223414   0.975   0.759   1.512
 7817TIP3    H123415   1.015   0.728   1.431
 7817TIP3    H223416   0.946   0.848   1.492
 7818TIP3   OH223417   0.883   4.746   4.742
 7818TIP3    H123418   0.816   4.688   4.779
 7818TIP3    H223419   0.861   4.753   4.649
 7819TIP3   OH223420   5.977   1.499   0.228
 7819TIP3    H123421   5.903   1.457   0.272
 7819TIP3    H223422   6.054   1.469   0.276
 7820TIP3   OH223423   4.696   0.669   4.182
 7820TIP3    H123424   4.762   0.601   4.174
 7820TIP3    H223425   4.614   0.621   4.196
 7821TIP3   OH223426   3.541   3.423   5.469
 7821TIP3    H123427   3.484   3.498   5.483
 7821TIP3    H223428   3.569   3.430   5.377
 7822TIP3   OH223429   1.015   1.674   3.207
 7822TIP3    H123430   1.053   1.666   3.294
 7822TIP3    H223431   0.968   1.757   3.209
 7823TIP3   OH223432   1.240   2.463   4.256
 7823TIP3    H123433   1.168   2.436   4.313
 7823TIP3    H223434   1.296   2.387   4.250
 7824TIP3   OH223435   4.294   3.176  -0.001
 7824TIP3    H123436   4.202   3.169  -0.026
 7824TIP3    H223437   4.292   3.213   0.087
 7825TIP3   OH223438   5.255   5.327   0.304
 7825TIP3    H123439   5.265   5.359   0.214
 7825TIP3    H223440   5.161   5.308   0.312
 7826TIP3   OH223441   1.196   1.850   5.269
 7826TIP3    H123442   1.291   1.865   5.271
 7826TIP3    H223443   1.185   1.765   5.310
 7827TIP3   OH223444   6.137   2.673   4.868
 7827TIP3    H123445   6.075   2.724   4.918
 7827TIP3    H223446   6.088   2.644   4.791
 7828TIP3   OH223447   6.607   4.229   0.968
 7828TIP3    H123448   6.540   4.168   1.000
 7828TIP3    H223449   6.688   4.179   0.969
 7829TIP3   OH223450   6.618   1.372   2.560
 7829TIP3    H123451   6.595   1.439   2.624
 7829TIP3    H223452   6.587   1.407   2.476
 7830TIP3   OH223453   6.474   3.579   0.209
 7830TIP3    H123454   6.409   3.620   0.266
 7830TIP3    H223455   6.558   3.600   0.248
 7831TIP3   OH223456   7.240   0.598   1.004
 7831TIP3    H123457   7.178   0.626   0.936
 7831TIP3    H223458   7.295   0.674   1.019
 7832TIP3   OH223459   4.047   5.232   5.805
 7832TIP3    H123460   4.045   5.224   5.710
 7832TIP3    H223461   3.956   5.249   5.830
 7833TIP3   OH223462   6.577   2.960   4.491
 7833TIP3    H123463   6.487   2.993   4.486
 7833TIP3    H223464   6.622   3.021   4.550
 7834TIP3   OH223465   3.798   0.057   5.067
 7834TIP3    H123466   3.797   0.120   5.140
 7834TIP3    H223467   3.800  -0.028   5.109
 7835TIP3   OH223468   3.027   5.537   2.197
 7835TIP3    H123469   3.070   5.593   2.132
 7835TIP3    H223470   2.948   5.506   2.154
 7836TIP3   OH223471   0.400   5.997   3.359
 7836TIP3    H123472   0.423   5.971   3.270
 7836TIP3    H223473   0.483   6.013   3.403
 7837TIP3   OH223474   2.553   1.569   5.533
 7837TIP3    H123475   2.617   1.639   5.520
 7837TIP3    H223476   2.603   1.488   5.524
 7838TIP3   OH223477   6.089   1.179   3.218
 7838TIP3    H123478   6.133   1.112   3.271
 7838TIP3    H223479   6.146   1.189   3.142
 7839TIP3   OH223480   6.002   5.744   0.232
 7839TIP3    H123481   5.907   5.732   0.233
 7839TIP3    H223482   6.021   5.790   0.313
 7840TIP3   OH223483   3.988   0.039   1.532
 7840TIP3    H123484   3.966   0.100   1.462
 7840TIP3    H223485   3.942   0.073   1.609
 7841TIP3   OH223486   1.860   1.984   3.712
 7841TIP3    H123487   1.896   2.014   3.628
 7841TIP3    H223488   1.877   2.055   3.773
 7842TIP3   OH223489   3.455   1.086   2.648
 7842TIP3    H123490   3.498   1.164   2.612
 7842TIP3    H223491   3.383   1.068   2.588
 7843TIP3   OH223492   6.305   2.630   3.891
 7843TIP3    H123493   6.290   2.648   3.984
 7843TIP3    H223494   6.399   2.644   3.879
 7844TIP3   OH223495   1.424   6.379   4.857
 7844TIP3    H123496   1.500   6.320   4.861
 7844TIP3    H223497   1.351   6.321   4.835
 7845TIP3   OH223498   2.145   4.582   4.156
 7845TIP3    H123499   2.204   4.544   4.221
 7845TIP3    H223500   2.202   4.608   4.084
 7846TIP3   OH223501   4.057   5.857   1.658
 7846TIP3    H123502   3.962   5.857   1.670
 7846TIP3    H223503   4.090   5.918   1.724
 7847TIP3   OH223504   0.293   4.079   0.026
 7847TIP3    H123505   0.197   4.083   0.032
 7847TIP3    H223506   0.310   4.041  -0.061
 7848TIP3   OH223507   4.654   4.268   3.317
 7848TIP3    H123508   4.618   4.330   3.380
 7848TIP3    H223509   4.741   4.246   3.351
 7849TIP3   OH223510   4.129   6.301   1.134
 7849TIP3    H123511   4.147   6.384   1.089
 7849TIP3    H223512   4.059   6.261   1.083
 7850TIP3   OH223513   6.223   5.086   4.106
 7850TIP3    H123514   6.161   5.158   4.118
 7850TIP3    H223515   6.308   5.130   4.100
 7851TIP3   OH223516   5.626   3.028   5.648
 7851TIP3    H123517   5.579   2.945   5.640
 7851TIP3    H223518   5.716   3.008   5.622
 7852TIP3   OH223519   3.871   2.992   3.760
 7852TIP3    H123520   3.964   3.015   3.761
 7852TIP3    H223521   3.858   2.950   3.675
 7853TIP3   OH223522   2.436   4.696   4.319
 7853TIP3    H123523   2.395   4.618   4.356
 7853TIP3    H223524   2.508   4.662   4.265
 7854TIP3   OH223525   4.524   6.409   2.538
 7854TIP3    H123526   4.542   6.444   2.625
 7854TIP3    H223527   4.495   6.485   2.487
 7855TIP3   OH223528   0.583   1.798   1.446
 7855TIP3    H123529   0.533   1.720   1.422
 7855TIP3    H223530   0.596   1.844   1.363
 7856TIP3   OH223531   0.288   2.568   1.035
 7856TIP3    H123532   0.315   2.660   1.039
 7856TIP3    H223533   0.221   2.566   0.966
 7857TIP3   OH223534   2.767   0.283   5.827
 7857TIP3    H123535   2.728   0.368   5.847
 7857TIP3    H223536   2.716   0.220   5.878
 7858TIP3   OH223537   2.232   3.489   3.186
 7858TIP3    H123538   2.155   3.542   3.204
 7858TIP3    H223539   2.205   3.428   3.118
 7859TIP3   OH223540   2.718   4.596   1.221
 7859TIP3    H123541   2.687   4.515   1.181
 7859TIP3    H223542   2.792   4.622   1.166
 7860TIP3   OH223543   0.503   4.729   1.439
 7860TIP3    H123544   0.473   4.641   1.461
 7860TIP3    H223545   0.436   4.787   1.475
 7861TIP3   OH223546   6.043   0.884   2.480
 7861TIP3    H123547   6.120   0.940   2.467
 7861TIP3    H223548   6.079   0.799   2.505
 7862TIP3   OH223549   5.230   0.855   1.398
 7862TIP3    H123550   5.227   0.869   1.304
 7862TIP3    H223551   5.259   0.939   1.433
 7863TIP3   OH223552   3.837   0.678   4.559
 7863TIP3    H123553   3.925   0.646   4.538
 7863TIP3    H223554   3.851   0.740   4.630
 7864TIP3   OH223555   5.779   1.402   5.387
 7864TIP3    H123556   5.813   1.391   5.476
 7864TIP3    H223557   5.748   1.314   5.363
 7865TIP3   OH223558   0.028   0.127   1.301
 7865TIP3    H123559  -0.022   0.203   1.331
 7865TIP3    H223560   0.022   0.131   1.205
 7866TIP3   OH223561   5.451   0.443   4.832
 7866TIP3    H123562   5.506   0.366   4.830
 7866TIP3    H223563   5.362   0.409   4.841
 7867TIP3   OH223564   3.641   1.360   1.849
 7867TIP3    H123565   3.631   1.364   1.945
 7867TIP3    H223566   3.615   1.446   1.818
 7868TIP3   OH223567   4.116   1.827   4.332
 7868TIP3    H123568   4.129   1.906   4.279
 7868TIP3    H223569   4.021   1.821   4.342
 7869TIP3   OH223570   5.759   4.723   4.764
 7869TIP3    H123571   5.788   4.801   4.811
 7869TIP3    H223572   5.689   4.687   4.819
 7870TIP3   OH223573   7.177   4.020   0.445
 7870TIP3    H123574   7.189   3.975   0.528
 7870TIP3    H223575   7.136   3.955   0.387
 7871TIP3   OH223576   2.309   5.366   3.202
 7871TIP3    H123577   2.260   5.344   3.122
 7871TIP3    H223578   2.291   5.459   3.216
 7872TIP3   OH223579   4.340   5.257   3.115
 7872TIP3    H123580   4.373   5.341   3.146
 7872TIP3    H223581   4.398   5.192   3.156
 7873TIP3   OH223582   1.480   4.364   5.490
 7873TIP3    H123583   1.555   4.330   5.440
 7873TIP3    H223584   1.448   4.437   5.438
 7874TIP3   OH223585   3.930   1.888   2.479
 7874TIP3    H123586   3.921   1.981   2.456
 7874TIP3    H223587   3.907   1.841   2.399
 7875TIP3   OH223588   7.118   5.091   1.755
 7875TIP3    H123589   7.159   5.009   1.782
 7875TIP3    H223590   7.112   5.084   1.660
 7876TIP3   OH223591   0.965   1.068   4.415
 7876TIP3    H123592   0.947   1.162   4.407
 7876TIP3    H223593   0.880   1.029   4.436
 7877TIP3   OH223594   6.715   5.563   5.230
 7877TIP3    H123595   6.669   5.480   5.245
 7877TIP3    H223596   6.645   5.628   5.223
 7878TIP3   OH223597   6.442   1.080   3.442
 7878TIP3    H123598   6.358   1.084   3.396
 7878TIP3    H223599   6.424   1.028   3.520
 7879TIP3   OH223600   4.073   2.722   5.262
 7879TIP3    H123601   4.030   2.682   5.186
 7879TIP3    H223602   4.073   2.815   5.244
 7880TIP3   OH223603   0.901   1.031   5.363
 7880TIP3    H123604   0.979   1.004   5.410
 7880TIP3    H223605   0.906   0.985   5.279
 7881TIP3   OH223606   2.413   5.012   1.637
 7881TIP3    H123607   2.436   4.919   1.647
 7881TIP3    H223608   2.388   5.020   1.545
 7882TIP3   OH223609   6.777   4.925   3.781
 7882TIP3    H123610   6.786   4.831   3.800
 7882TIP3    H223611   6.808   4.968   3.861
 7883TIP3   OH223612   6.928   1.912   4.171
 7883TIP3    H123613   6.957   1.854   4.241
 7883TIP3    H223614   6.900   1.992   4.216
 7884TIP3   OH223615   5.031   2.525   1.304
 7884TIP3    H123616   5.025   2.618   1.323
 7884TIP3    H223617   5.124   2.505   1.307
 7885TIP3   OH223618   0.895   4.717   2.896
 7885TIP3    H123619   0.913   4.713   2.990
 7885TIP3    H223620   0.956   4.782   2.863
 7886TIP3   OH223621   0.350   5.042   1.858
 7886TIP3    H123622   0.267   5.078   1.827
 7886TIP3    H223623   0.410   5.116   1.861
 7887TIP3   OH223624   2.292   1.999   1.165
 7887TIP3    H123625   2.288   2.048   1.247
 7887TIP3    H223626   2.369   1.943   1.174
 7888TIP3   OH223627   3.766   5.068   5.523
 7888TIP3    H123628   3.747   5.128   5.595
 7888TIP3    H223629   3.684   5.061   5.475
 7889TIP3   OH223630   3.809   0.082   0.660
 7889TIP3    H123631   3.725   0.088   0.616
 7889TIP3    H223632   3.873   0.105   0.593
 7890TIP3   OH223633   5.283   4.882   4.268
 7890TIP3    H123634   5.267   4.969   4.232
 7890TIP3    H223635   5.374   4.864   4.248
 7891TIP3   OH223636   1.444   4.244   2.453
 7891TIP3    H123637   1.433   4.233   2.548
 7891TIP3    H223638   1.374   4.304   2.429
 7892TIP3   OH223639   1.838   6.362   2.547
 7892TIP3    H123640   1.928   6.364   2.513
 7892TIP3    H223641   1.834   6.281   2.599
 7893TIP3   OH223642   6.848   2.246   5.761
 7893TIP3    H123643   6.861   2.151   5.758
 7893TIP3    H223644   6.758   2.257   5.791
 7894TIP3   OH223645   5.091   4.381   1.205
 7894TIP3    H123646   5.092   4.286   1.198
 7894TIP3    H223647   5.097   4.412   1.115
 7895TIP3   OH223648   3.309   4.701   2.136
 7895TIP3    H123649   3.327   4.624   2.190
 7895TIP3    H223650   3.213   4.706   2.133
 7896TIP3   OH223651   2.501   0.526   2.503
 7896TIP3    H123652   2.531   0.616   2.500
 7896TIP3    H223653   2.573   0.475   2.464
 7897TIP3   OH223654   1.944   4.602   4.399
 7897TIP3    H123655   1.870   4.653   4.365
 7897TIP3    H223656   2.013   4.614   4.333
 7898TIP3   OH223657   3.034   4.754   3.990
 7898TIP3    H123658   3.089   4.706   3.928
 7898TIP3    H223659   2.983   4.687   4.034
 7899TIP3   OH223660   3.593   6.280   4.519
 7899TIP3    H123661   3.575   6.236   4.602
 7899TIP3    H223662   3.534   6.356   4.519
 7900TIP3   OH223663   0.079   0.829   0.029
 7900TIP3    H123664   0.037   0.745   0.049
 7900TIP3    H223665   0.172   0.809   0.026
 7901TIP3   OH223666   0.593   3.918   2.465
 7901TIP3    H123667   0.574   3.965   2.546
 7901TIP3    H223668   0.674   3.869   2.484
 7902TIP3   OH223669   4.746   6.318   0.641
 7902TIP3    H123670   4.828   6.281   0.676
 7902TIP3    H223671   4.740   6.284   0.552
 7903TIP3   OH223672   1.708   2.454   0.931
 7903TIP3    H123673   1.755   2.521   0.881
 7903TIP3    H223674   1.654   2.409   0.866
 7904TIP3   OH223675   2.203   0.382   4.757
 7904TIP3    H123676   2.168   0.442   4.691
 7904TIP3    H223677   2.235   0.439   4.827
 7905TIP3   OH223678   1.582   0.623   2.910
 7905TIP3    H123679   1.611   0.577   2.988
 7905TIP3    H223680   1.620   0.710   2.916
 7906TIP3   OH223681   4.602   1.212   3.520
 7906TIP3    H123682   4.667   1.238   3.585
 7906TIP3    H223683   4.612   1.117   3.512
 7907TIP3   OH223684   0.026   4.117   2.254
 7907TIP3    H123685   0.034   4.078   2.341
 7907TIP3    H223686  -0.032   4.057   2.207
 7908TIP3   OH223687   6.075   2.291   2.724
 7908TIP3    H123688   6.082   2.221   2.659
 7908TIP3    H223689   6.163   2.299   2.759
 7909TIP3   OH223690   0.938   1.070   2.803
 7909TIP3    H123691   0.972   1.155   2.831
 7909TIP3    H223692   0.893   1.089   2.721
 7910TIP3   OH223693   3.667   1.059   2.872
 7910TIP3    H123694   3.745   1.080   2.821
 7910TIP3    H223695   3.596   1.058   2.807
 7911TIP3   OH223696   0.614   6.549   3.417
 7911TIP3    H123697   0.532   6.592   3.394
 7911TIP3    H223698   0.680   6.593   3.362
 7912TIP3   OH223699   2.008   2.606   3.618
 7912TIP3    H123700   1.930   2.618   3.673
 7912TIP3    H223701   1.997   2.670   3.547
 7913TIP3   OH223702   0.528   3.122   0.806
 7913TIP3    H123703   0.593   3.188   0.778
 7913TIP3    H223704   0.581   3.048   0.836
 7914TIP3   OH223705   2.737   6.252   5.584
 7914TIP3    H123706   2.736   6.268   5.679
 7914TIP3    H223707   2.769   6.163   5.575
 7915TIP3   OH223708   1.601   2.898   3.483
 7915TIP3    H123709   1.612   2.885   3.389
 7915TIP3    H223710   1.597   2.993   3.493
 7916TIP3   OH223711   3.790   5.849   0.028
 7916TIP3    H123712   3.758   5.760   0.012
 7916TIP3    H223713   3.848   5.841   0.104
 7917TIP3   OH223714   5.369   3.834   1.337
 7917TIP3    H123715   5.288   3.886   1.332
 7917TIP3    H223716   5.344   3.748   1.302
 7918TIP3   OH223717   3.048   4.599   0.775
 7918TIP3    H123718   3.116   4.573   0.837
 7918TIP3    H223719   3.047   4.695   0.778
 7919TIP3   OH223720   2.668   3.115   3.603
 7919TIP3    H123721   2.709   3.201   3.615
 7919TIP3    H223722   2.741   3.055   3.590
 7920TIP3   OH223723   0.152   5.349   5.046
 7920TIP3    H123724   0.200   5.314   4.971
 7920TIP3    H223725   0.061   5.324   5.031
 7921TIP3   OH223726   1.107   0.461   0.852
 7921TIP3    H123727   1.105   0.387   0.913
 7921TIP3    H223728   1.198   0.466   0.823
 7922TIP3   OH223729   1.262   3.232   4.067
 7922TIP3    H123730   1.237   3.189   3.985
 7922TIP3    H223731   1.260   3.163   4.132
 7923TIP3   OH223732   1.009   3.312   0.792
 7923TIP3    H123733   1.076   3.325   0.725
 7923TIP3    H223734   1.021   3.222   0.823
 7924TIP3   OH223735   5.899   2.604   2.298
 7924TIP3    H123736   5.902   2.555   2.380
 7924TIP3    H223737   5.867   2.541   2.233
 7925TIP3   OH223738   6.436   6.339   2.574
 7925TIP3    H123739   6.448   6.397   2.499
 7925TIP3    H223740   6.480   6.385   2.646
 7926TIP3   OH223741   6.229   0.319   1.557
 7926TIP3    H123742   6.269   0.232   1.558
 7926TIP3    H223743   6.154   0.310   1.615
 7927TIP3   OH223744   0.224   5.032   3.765
 7927TIP3    H123745   0.196   4.941   3.774
 7927TIP3    H223746   0.236   5.063   3.855
 7928TIP3   OH223747   7.142   2.266   2.393
 7928TIP3    H123748   7.059   2.250   2.348
 7928TIP3    H223749   7.119   2.327   2.464
 7929TIP3   OH223750   3.259   1.222   5.175
 7929TIP3    H123751   3.280   1.186   5.261
 7929TIP3    H223752   3.164   1.235   5.176
 7930TIP3   OH223753   0.070   0.288   5.791
 7930TIP3    H123754   0.098   0.371   5.830
 7930TIP3    H223755   0.052   0.231   5.866
 7931TIP3   OH223756   1.923   4.306   4.955
 7931TIP3    H123757   1.926   4.315   4.860
 7931TIP3    H223758   1.831   4.319   4.977
 7932TIP3   OH223759   4.213   4.113   1.374
 7932TIP3    H123760   4.191   4.194   1.419
 7932TIP3    H223761   4.128   4.070   1.359
 7933TIP3   OH223762   6.653   4.573   3.021
 7933TIP3    H123763   6.558   4.566   3.007
 7933TIP3    H223764   6.662   4.634   3.095
 7934TIP3   OH223765   4.045   5.999   3.893
 7934TIP3    H123766   4.045   5.919   3.946
 7934TIP3    H223767   4.065   6.069   3.955
 7935TIP3   OH223768   4.881   5.069   4.131
 7935TIP3    H123769   4.806   5.109   4.086
 7935TIP3    H223770   4.901   4.991   4.080
 7936TIP3   OH223771   7.087   6.064   4.250
 7936TIP3    H123772   7.121   6.148   4.218
 7936TIP3    H223773   7.137   5.999   4.201
 7937TIP3   OH223774   1.716   6.327   5.234
 7937TIP3    H123775   1.628   6.327   5.272
 7937TIP3    H223776   1.730   6.236   5.207
 7938TIP3   OH223777   5.657   5.961   3.267
 7938TIP3    H123778   5.642   5.880   3.316
 7938TIP3    H223779   5.752   5.973   3.268
 7939TIP3   OH223780   6.132   0.690   0.781
 7939TIP3    H123781   6.125   0.688   0.686
 7939TIP3    H223782   6.043   0.678   0.813
 7940TIP3   OH223783   3.432   6.300   1.216
 7940TIP3    H123784   3.416   6.272   1.306
 7940TIP3    H223785   3.421   6.395   1.218
 7941TIP3   OH223786   5.406   6.647   4.966
 7941TIP3    H123787   5.482   6.701   4.943
 7941TIP3    H223788   5.403   6.579   4.898
 7942TIP3   OH223789   0.733   4.943   4.102
 7942TIP3    H123790   0.793   4.998   4.152
 7942TIP3    H223791   0.735   4.979   4.013
 7943TIP3   OH223792   5.330   6.273   2.658
 7943TIP3    H123793   5.404   6.266   2.718
 7943TIP3    H223794   5.319   6.185   2.623
 7944TIP3   OH223795   0.738   4.180   4.348
 7944TIP3    H123796   0.669   4.235   4.384
 7944TIP3    H223797   0.797   4.241   4.304
 7945TIP3   OH223798   3.942   4.170   2.204
 7945TIP3    H123799   4.018   4.192   2.151
 7945TIP3    H223800   3.886   4.118   2.146
 7946TIP3   OH223801   0.792   6.372   4.074
 7946TIP3    H123802   0.701   6.386   4.102
 7946TIP3    H223803   0.788   6.373   3.979
 7947TIP3   OH223804   1.818   4.409   2.315
 7947TIP3    H123805   1.740   4.464   2.317
 7947TIP3    H223806   1.890   4.469   2.299
 7948TIP3   OH223807   1.080   4.594   3.990
 7948TIP3    H123808   1.030   4.634   4.061
 7948TIP3    H223809   1.171   4.598   4.019
 7949TIP3   OH223810   6.988   6.723   1.949
 7949TIP3    H123811   6.995   6.635   1.987
 7949TIP3    H223812   7.079   6.754   1.945
 7950TIP3   OH223813   0.882   3.581   0.943
 7950TIP3    H123814   0.952   3.603   0.881
 7950TIP3    H223815   0.804   3.624   0.908
 7951TIP3   OH223816   6.094   1.277   5.805
 7951TIP3    H123817   6.040   1.216   5.755
 7951TIP3    H223818   6.145   1.323   5.738
 7952TIP3   OH223819   6.958   5.218   0.520
 7952TIP3    H123820   7.041   5.249   0.485
 7952TIP3    H223821   6.954   5.126   0.493
 7953TIP3   OH223822   6.270   4.604   0.977
 7953TIP3    H123823   6.227   4.545   0.914
 7953TIP3    H223824   6.255   4.562   1.062
 7954TIP3   OH223825   6.812   6.142   3.487
 7954TIP3    H123826   6.899   6.123   3.523
 7954TIP3    H223827   6.755   6.144   3.563
 7955TIP3   OH223828   2.597   6.111   0.055
 7955TIP3    H123829   2.663   6.046   0.080
 7955TIP3    H223830   2.647   6.191   0.038
 7956TIP3   OH223831   4.715   4.079   1.547
 7956TIP3    H123832   4.655   4.021   1.500
 7956TIP3    H223833   4.673   4.165   1.541
 7957TIP3   OH223834   5.531   5.492   5.113
 7957TIP3    H123835   5.564   5.402   5.107
 7957TIP3    H223836   5.550   5.519   5.202
 7958TIP3   OH223837   6.789   5.274   1.716
 7958TIP3    H123838   6.698   5.244   1.706
 7958TIP3    H223839   6.824   5.220   1.787
 7959TIP3   OH223840   5.296   6.193   5.819
 7959TIP3    H123841   5.334   6.235   5.742
 7959TIP3    H223842   5.201   6.203   5.808
 7960TIP3   OH223843   2.069   0.583   5.394
 7960TIP3    H123844   2.020   0.619   5.467
 7960TIP3    H223845   2.148   0.547   5.435
 7961TIP3   OH223846   6.057   0.107   3.433
 7961TIP3    H123847   6.011   0.187   3.460
 7961TIP3    H223848   6.117   0.089   3.505
 7962TIP3   OH223849   4.946   4.051   0.620
 7962TIP3    H123850   4.905   4.086   0.541
 7962TIP3    H223851   4.876   4.003   0.664
 7963TIP3   OH223852   5.055   2.061   4.052
 7963TIP3    H123853   5.106   2.140   4.069
 7963TIP3    H223854   4.969   2.079   4.090
 7964TIP3   OH223855   7.065   3.252   5.701
 7964TIP3    H123856   7.057   3.176   5.643
 7964TIP3    H223857   7.159   3.265   5.710
 7965TIP3   OH223858   6.542   1.482   0.262
 7965TIP3    H123859   6.522   1.521   0.347
 7965TIP3    H223860   6.493   1.535   0.199
 7966TIP3   OH223861   2.012   6.148   3.858
 7966TIP3    H123862   1.955   6.127   3.932
 7966TIP3    H223863   2.013   6.243   3.854
 7967TIP3   OH223864   1.233   2.640   3.882
 7967TIP3    H123865   1.190   2.669   3.963
 7967TIP3    H223866   1.196   2.553   3.865
 7968TIP3   OH223867   4.395   4.128   5.195
 7968TIP3    H123868   4.441   4.082   5.265
 7968TIP3    H223869   4.435   4.215   5.193
 7969TIP3   OH223870   0.999   1.624   4.982
 7969TIP3    H123871   1.094   1.623   4.995
 7969TIP3    H223872   0.973   1.713   5.004
 7970TIP3   OH223873   5.041   4.352   2.656
 7970TIP3    H123874   5.083   4.371   2.572
 7970TIP3    H223875   5.106   4.302   2.704
 7971TIP3   OH223876   3.581   6.341   3.872
 7971TIP3    H123877   3.622   6.426   3.884
 7971TIP3    H223878   3.495   6.360   3.833
 7972TIP3   OH223879   6.479   3.871   1.245
 7972TIP3    H123880   6.439   3.789   1.273
 7972TIP3    H223881   6.445   3.936   1.307
 7973TIP3   OH223882   6.456   1.516   2.046
 7973TIP3    H123883   6.508   1.488   1.971
 7973TIP3    H223884   6.402   1.587   2.012
 7974TIP3   OH223885   5.288   3.043   0.998
 7974TIP3    H123886   5.269   3.116   0.938
 7974TIP3    H223887   5.208   3.034   1.050
 7975TIP3   OH223888   6.629   5.266   3.649
 7975TIP3    H123889   6.587   5.310   3.723
 7975TIP3    H223890   6.556   5.227   3.600
 7976TIP3   OH223891   4.697   3.621   4.893
 7976TIP3    H123892   4.603   3.602   4.888
 7976TIP3    H223893   4.703   3.701   4.945
 7977TIP3   OH223894   6.876   1.938   0.143
 7977TIP3    H123895   6.799   1.881   0.139
 7977TIP3    H223896   6.948   1.880   0.168
 7978TIP3   OH223897   1.239   0.059   2.221
 7978TIP3    H123898   1.184   0.073   2.144
 7978TIP3    H223899   1.186   0.003   2.278
 7979TIP3   OH223900   1.237   0.548   2.255
 7979TIP3    H123901   1.296   0.493   2.307
 7979TIP3    H223902   1.281   0.633   2.252
 7980TIP3   OH223903   2.522   1.395   0.605
 7980TIP3    H123904   2.605   1.351   0.583
 7980TIP3    H223905   2.548   1.483   0.631
 7981TIP3   OH223906   6.439   6.041   5.569
 7981TIP3    H123907   6.486   5.961   5.546
 7981TIP3    H223908   6.493   6.111   5.533
 7982TIP3   OH223909   2.139   0.531   1.310
 7982TIP3    H123910   2.174   0.486   1.233
 7982TIP3    H223911   2.205   0.515   1.378
 7983TIP3   OH223912   5.444   4.186   3.943
 7983TIP3    H123913   5.511   4.254   3.949
 7983TIP3    H223914   5.492   4.104   3.956
 7984TIP3   OH223915   2.388   6.268   5.738
 7984TIP3    H123916   2.297   6.239   5.742
 7984TIP3    H223917   2.439   6.191   5.763
 7985TIP3   OH223918   2.840   5.669   3.226
 7985TIP3    H123919   2.873   5.747   3.272
 7985TIP3    H223920   2.758   5.698   3.185
 7986TIP3   OH223921   3.352   3.376   1.892
 7986TIP3    H123922   3.391   3.366   1.805
 7986TIP3    H223923   3.267   3.417   1.876
 7987TIP3   OH223924   0.984   6.513   2.439
 7987TIP3    H123925   1.047   6.441   2.431
 7987TIP3    H223926   0.972   6.523   2.533
 7988TIP3   OH223927   1.402   4.433   4.376
 7988TIP3    H123928   1.451   4.351   4.388
 7988TIP3    H223929   1.465   4.501   4.396
 7989TIP3   OH223930   7.216   0.561   1.588
 7989TIP3    H123931   7.129   0.586   1.558
 7989TIP3    H223932   7.264   0.644   1.593
 7990TIP3   OH223933   2.027   0.020   3.616
 7990TIP3    H123934   2.118   0.005   3.642
 7990TIP3    H223935   1.995   0.088   3.676
 7991TIP3   OH223936   0.383   0.714   2.779
 7991TIP3    H123937   0.387   0.667   2.863
 7991TIP3    H223938   0.293   0.703   2.750
 7992TIP3   OH223939   1.741   6.176   3.989
 7992TIP3    H123940   1.791   6.214   4.062
 7992TIP3    H223941   1.699   6.250   3.947
 7993TIP3   OH223942   4.388   5.231   2.820
 7993TIP3    H123943   4.354   5.236   2.910
 7993TIP3    H223944   4.345   5.302   2.774
 7994TIP3   OH223945   3.067   3.809   5.313
 7994TIP3    H123946   3.036   3.718   5.320
 7994TIP3    H223947   2.988   3.860   5.298
 7995TIP3   OH223948   0.159   2.647   3.675
 7995TIP3    H123949   0.160   2.552   3.669
 7995TIP3    H223950   0.225   2.676   3.612
 7996TIP3   OH223951   5.657   3.613   4.466
 7996TIP3    H123952   5.736   3.666   4.457
 7996TIP3    H223953   5.659   3.582   4.556
 7997TIP3   OH223954   2.513   5.042   3.280
 7997TIP3    H123955   2.521   5.066   3.373
 7997TIP3    H223956   2.430   4.995   3.275
 7998TIP3   OH223957   3.437   5.854   4.105
 7998TIP3    H123958   3.446   5.809   4.021
 7998TIP3    H223959   3.518   5.906   4.113
 7999TIP3   OH223960   0.190   2.472   5.123
 7999TIP3    H123961   0.168   2.530   5.050
 7999TIP3    H223962   0.284   2.454   5.112
 8000TIP3   OH223963   2.926   2.202   0.609
 8000TIP3    H123964   2.927   2.106   0.604
 8000TIP3    H223965   2.855   2.228   0.551
 8001TIP3   OH223966   0.504   5.321   5.228
 8001TIP3    H123967   0.545   5.385   5.286
 8001TIP3    H223968   0.489   5.368   5.146
 8002TIP3   OH223969   0.188   0.612   3.476
 8002TIP3    H123970   0.175   0.631   3.383
 8002TIP3    H223971   0.270   0.656   3.498
 8003TIP3   OH223972   3.727   4.988   1.652
 8003TIP3    H123973   3.709   4.931   1.728
 8003TIP3    H223974   3.654   5.050   1.652
 8004TIP3   OH223975   0.828   3.711   4.762
 8004TIP3    H123976   0.761   3.769   4.724
 8004TIP3    H223977   0.896   3.770   4.792
 8005TIP3   OH223978   2.647   2.336   5.102
 8005TIP3    H123979   2.684   2.253   5.073
 8005TIP3    H223980   2.555   2.332   5.074
 8006TIP3   OH223981   4.545   5.720   2.231
 8006TIP3    H123982   4.559   5.650   2.168
 8006TIP3    H223983   4.604   5.699   2.304
 8007TIP3   OH223984   1.658   0.075   1.254
 8007TIP3    H123985   1.664   0.033   1.340
 8007TIP3    H223986   1.575   0.045   1.218
 8008TIP3   OH223987   2.748   2.076   5.064
 8008TIP3    H123988   2.657   2.083   5.094
 8008TIP3    H223989   2.782   1.999   5.109
 8009TIP3   OH223990   2.842   1.245   2.690
 8009TIP3    H123991   2.782   1.207   2.625
 8009TIP3    H223992   2.837   1.340   2.674
 8010TIP3   OH223993   6.821   4.880   4.117
 8010TIP3    H123994   6.826   4.795   4.162
 8010TIP3    H223995   6.730   4.906   4.126
 8011TIP3   OH223996   0.692   2.655   2.484
 8011TIP3    H123997   0.666   2.564   2.470
 8011TIP3    H223998   0.622   2.692   2.538
 8012TIP3   OH223999   3.259   0.980   5.808
 8012TIP3    H124000   3.338   0.935   5.840
 8012TIP3    H224001   3.192   0.912   5.807
 8013TIP3   OH224002   1.269   5.619   5.811
 8013TIP3    H124003   1.200   5.685   5.811
 8013TIP3    H224004   1.225   5.538   5.834
 8014TIP3   OH224005   0.274   5.683   5.621
 8014TIP3    H124006   0.284   5.755   5.559
 8014TIP3    H224007   0.363   5.651   5.635
 8015TIP3   OH224008   0.517   1.756   0.365
 8015TIP3    H124009   0.438   1.701   0.366
 8015TIP3    H224010   0.561   1.735   0.447
 8016TIP3   OH224011   1.337   6.657   1.320
 8016TIP3    H124012   1.258   6.604   1.316
 8016TIP3    H224013   1.392   6.613   1.384
 8017TIP3   OH224014   3.928   0.172   5.854
 8017TIP3    H124015   3.996   0.186   5.921
 8017TIP3    H224016   3.859   0.123   5.900
 8018TIP3   OH224017   4.378   4.561   1.631
 8018TIP3    H124018   4.413   4.593   1.548
 8018TIP3    H224019   4.303   4.507   1.605
 8019TIP3   OH224020   3.429   2.001   5.352
 8019TIP3    H124021   3.383   2.053   5.418
 8019TIP3    H224022   3.359   1.962   5.300
 8020TIP3   OH224023   5.173   6.186   3.409
 8020TIP3    H124024   5.216   6.272   3.404
 8020TIP3    H224025   5.237   6.125   3.374
 8021TIP3   OH224026   5.198   4.241   4.850
 8021TIP3    H124027   5.194   4.198   4.935
 8021TIP3    H224028   5.197   4.170   4.786
 8022TIP3   OH224029   4.354   1.894   3.570
 8022TIP3    H124030   4.269   1.865   3.603
 8022TIP3    H224031   4.407   1.815   3.566
 8023TIP3   OH224032   3.158   3.634   0.422
 8023TIP3    H124033   3.193   3.609   0.508
 8023TIP3    H224034   3.190   3.565   0.363
 8024TIP3   OH224035   4.904   2.823   2.686
 8024TIP3    H124036   4.857   2.875   2.621
 8024TIP3    H224037   4.847   2.749   2.705
 8025TIP3   OH224038   5.982   2.021   2.186
 8025TIP3    H124039   5.989   1.927   2.172
 8025TIP3    H224040   6.052   2.059   2.132
 8026TIP3   OH224041   4.500   1.350   3.897
 8026TIP3    H124042   4.440   1.413   3.937
 8026TIP3    H224043   4.460   1.328   3.813
 8027TIP3   OH224044   0.731   0.262   5.849
 8027TIP3    H124045   0.742   0.200   5.921
 8027TIP3    H224046   0.680   0.215   5.783
 8028TIP3   OH224047   6.658   3.075   1.140
 8028TIP3    H124048   6.603   3.110   1.069
 8028TIP3    H224049   6.747   3.097   1.114
 8029TIP3   OH224050   4.256   5.901   5.033
 8029TIP3    H124051   4.270   5.952   5.113
 8029TIP3    H224052   4.232   5.966   4.967
 8030TIP3   OH224053   0.331   0.924   5.689
 8030TIP3    H124054   0.336   0.903   5.782
 8030TIP3    H224055   0.412   0.888   5.652
 8031TIP3   OH224056   6.689   3.951   5.723
 8031TIP3    H124057   6.709   3.864   5.759
 8031TIP3    H224058   6.711   3.945   5.630
 8032TIP3   OH224059   0.790   5.384   2.403
 8032TIP3    H124060   0.817   5.347   2.487
 8032TIP3    H224061   0.743   5.464   2.427
 8033TIP3   OH224062   1.320   3.538   1.718
 8033TIP3    H124063   1.309   3.538   1.623
 8033TIP3    H224064   1.363   3.621   1.738
 8034TIP3   OH224065   4.382   6.293   4.412
 8034TIP3    H124066   4.309   6.355   4.405
 8034TIP3    H224067   4.346   6.211   4.377
 8035TIP3   OH224068   3.734   5.943   4.118
 8035TIP3    H124069   3.677   6.015   4.145
 8035TIP3    H224070   3.780   5.917   4.197
 8036TIP3   OH224071   4.931   3.360   0.926
 8036TIP3    H124072   4.891   3.288   0.975
 8036TIP3    H224073   5.022   3.333   0.914
 8037TIP3   OH224074  -0.020   5.851   1.251
 8037TIP3    H124075   0.035   5.777   1.225
 8037TIP3    H224076  -0.061   5.822   1.333
 8038TIP3   OH224077   5.488   2.702   0.575
 8038TIP3    H124078   5.419   2.643   0.606
 8038TIP3    H224079   5.548   2.645   0.528
 8039TIP3   OH224080   3.110   4.966   5.216
 8039TIP3    H124081   3.109   4.881   5.260
 8039TIP3    H224082   3.138   4.947   5.127
 8040TIP3   OH224083   2.374   4.669   4.679
 8040TIP3    H124084   2.348   4.577   4.678
 8040TIP3    H224085   2.295   4.715   4.709
 8041TIP3   OH224086   6.142   5.720   5.844
 8041TIP3    H124087   6.090   5.764   5.911
 8041TIP3    H224088   6.182   5.646   5.889
 8042TIP3   OH224089   3.977   3.419   1.749
 8042TIP3    H124090   4.031   3.430   1.671
 8042TIP3    H224091   4.008   3.487   1.810
 8043TIP3   OH224092   3.277   2.577   0.516
 8043TIP3    H124093   3.322   2.614   0.440
 8043TIP3    H224094   3.306   2.486   0.519
 8044TIP3   OH224095   2.828   1.045   3.078
 8044TIP3    H124096   2.890   0.973   3.067
 8044TIP3    H224097   2.753   1.005   3.122
 8045TIP3   OH224098   0.640   4.788   2.659
 8045TIP3    H124099   0.729   4.761   2.681
 8045TIP3    H224100   0.646   4.822   2.570
 8046TIP3   OH224101   3.405   1.398   4.584
 8046TIP3    H124102   3.463   1.405   4.660
 8046TIP3    H224103   3.409   1.306   4.558
 8047TIP3   OH224104   0.290   5.497   1.188
 8047TIP3    H124105   0.344   5.571   1.217
 8047TIP3    H224106   0.217   5.538   1.141
 8048TIP3   OH224107   4.604   3.442   3.547
 8048TIP3    H124108   4.613   3.457   3.453
 8048TIP3    H224109   4.515   3.471   3.568
 8049TIP3   OH224110   3.299   2.298   0.555
 8049TIP3    H124111   3.310   2.233   0.486
 8049TIP3    H224112   3.387   2.311   0.590
 8050TIP3   OH224113   1.371   3.729   0.306
 8050TIP3    H124114   1.395   3.698   0.219
 8050TIP3    H224115   1.313   3.804   0.290
 8051TIP3   OH224116   6.478   6.610   4.268
 8051TIP3    H124117   6.573   6.604   4.259
 8051TIP3    H224118   6.465   6.672   4.340
 8052TIP3   OH224119   5.334   5.252   4.601
 8052TIP3    H124120   5.331   5.190   4.674
 8052TIP3    H224121   5.425   5.249   4.571
 8053TIP3   OH224122   5.467   0.574   0.739
 8053TIP3    H124123   5.490   0.486   0.710
 8053TIP3    H224124   5.421   0.560   0.822
 8054TIP3   OH224125   4.958   1.590   3.615
 8054TIP3    H124126   5.039   1.619   3.658
 8054TIP3    H224127   4.987   1.531   3.546
 8055TIP3   OH224128   2.862   1.010   5.585
 8055TIP3    H124129   2.904   1.088   5.550
 8055TIP3    H224130   2.802   0.981   5.517
 8056TIP3   OH224131   3.661   6.443   4.911
 8056TIP3    H124132   3.593   6.483   4.856
 8056TIP3    H224133   3.615   6.373   4.959
 8057TIP3   OH224134   5.856   6.539   4.714
 8057TIP3    H124135   5.781   6.563   4.658
 8057TIP3    H224136   5.827   6.560   4.803
 8058TIP3   OH224137   4.732   1.994   3.072
 8058TIP3    H124138   4.720   1.981   3.166
 8058TIP3    H224139   4.651   1.960   3.033
 8059TIP3   OH224140   6.954   6.135   1.480
 8059TIP3    H124141   7.024   6.199   1.494
 8059TIP3    H224142   6.897   6.176   1.416
 8060TIP3   OH224143   0.102   2.052   3.771
 8060TIP3    H124144   0.158   1.989   3.816
 8060TIP3    H224145   0.104   2.130   3.825
 8061TIP3   OH224146   1.249   1.436   3.661
 8061TIP3    H124147   1.197   1.450   3.740
 8061TIP3    H224148   1.339   1.430   3.691
 8062TIP3   OH224149   3.945   2.357   0.555
 8062TIP3    H124150   4.030   2.377   0.515
 8062TIP3    H224151   3.940   2.261   0.553
 8063TIP3   OH224152   2.121   4.329   0.859
 8063TIP3    H124153   2.086   4.311   0.947
 8063TIP3    H224154   2.074   4.408   0.831
 8064TIP3   OH224155   4.901   0.120   2.292
 8064TIP3    H124156   4.829   0.137   2.353
 8064TIP3    H224157   4.889   0.184   2.222
 8065TIP3   OH224158   0.483   5.534   2.779
 8065TIP3    H124159   0.574   5.536   2.808
 8065TIP3    H224160   0.434   5.568   2.853
 8066TIP3   OH224161   5.723   3.537   0.155
 8066TIP3    H124162   5.789   3.468   0.160
 8066TIP3    H224163   5.751   3.591   0.081
 8067TIP3   OH224164   0.165   6.265   1.342
 8067TIP3    H124165   0.231   6.295   1.404
 8067TIP3    H224166   0.082   6.277   1.388
 8068TIP3   OH224167   2.490   5.495   3.831
 8068TIP3    H124168   2.577   5.533   3.822
 8068TIP3    H224169   2.437   5.564   3.872
 8069TIP3   OH224170   6.485   0.438   4.383
 8069TIP3    H124171   6.426   0.391   4.325
 8069TIP3    H224172   6.429   0.500   4.430
 8070TIP3   OH224173   2.040   4.217   5.334
 8070TIP3    H124174   2.124   4.261   5.341
 8070TIP3    H224175   1.993   4.264   5.265
 8071TIP3   OH224176   0.190   2.431   2.904
 8071TIP3    H124177   0.180   2.404   2.813
 8071TIP3    H224178   0.148   2.361   2.955
 8072TIP3   OH224179   3.471   2.490   4.729
 8072TIP3    H124180   3.529   2.435   4.677
 8072TIP3    H224181   3.485   2.579   4.695
 8073TIP3   OH224182   1.737   3.448   4.246
 8073TIP3    H124183   1.812   3.506   4.229
 8073TIP3    H224184   1.683   3.496   4.308
 8074TIP3   OH224185   1.571   4.540   2.393
 8074TIP3    H124186   1.530   4.627   2.386
 8074TIP3    H224187   1.511   4.490   2.448
 8075TIP3   OH224188   6.196   1.049   4.830
 8075TIP3    H124189   6.273   1.097   4.859
 8075TIP3    H224190   6.228   0.989   4.762
 8076TIP3   OH224191   3.380   3.332   0.796
 8076TIP3    H124192   3.299   3.281   0.796
 8076TIP3    H224193   3.443   3.275   0.840
 8077TIP3   OH224194   0.532   5.147   4.378
 8077TIP3    H124195   0.470   5.078   4.403
 8077TIP3    H224196   0.614   5.101   4.360
 8078TIP3   OH224197   7.104   6.793   3.755
 8078TIP3    H124198   7.129   6.874   3.800
 8078TIP3    H224199   7.138   6.723   3.810
 8079TIP3   OH224200   0.644   3.010   4.591
 8079TIP3    H124201   0.643   3.039   4.500
 8079TIP3    H224202   0.605   3.082   4.640
 8080TIP3   OH224203   2.040   0.690   3.949
 8080TIP3    H124204   2.088   0.749   3.890
 8080TIP3    H224205   2.105   0.627   3.978
 8081TIP3   OH224206   5.819   6.873   2.012
 8081TIP3    H124207   5.817   6.827   1.929
 8081TIP3    H224208   5.754   6.829   2.067
 8082TIP3   OH224209   1.057   3.056   0.953
 8082TIP3    H124210   1.120   3.043   1.024
 8082TIP3    H224211   1.109   3.053   0.873
 8083TIP3   OH224212   0.336   0.432   2.228
 8083TIP3    H124213   0.346   0.523   2.257
 8083TIP3    H224214   0.323   0.440   2.133
 8084TIP3   OH224215   0.250   1.713   4.766
 8084TIP3    H124216   0.276   1.712   4.858
 8084TIP3    H224217   0.321   1.669   4.720
 8085TIP3   OH224218   3.847   5.680   4.287
 8085TIP3    H124219   3.755   5.693   4.308
 8085TIP3    H224220   3.851   5.591   4.253
 8086TIP3   OH224221   5.766   0.917   1.620
 8086TIP3    H124222   5.693   0.899   1.679
 8086TIP3    H224223   5.747   1.003   1.584
 8087TIP3   OH224224   4.572   2.748   0.626
 8087TIP3    H124225   4.625   2.823   0.601
 8087TIP3    H224226   4.505   2.784   0.683
 8088TIP3   OH224227   6.124   5.916   2.966
 8088TIP3    H124228   6.111   5.832   3.011
 8088TIP3    H224229   6.191   5.897   2.900
 8089TIP3   OH224230   5.953   4.666   2.339
 8089TIP3    H124231   5.989   4.726   2.405
 8089TIP3    H224232   5.879   4.623   2.382
 8090TIP3   OH224233   0.706   0.884   2.572
 8090TIP3    H124234   0.769   0.835   2.625
 8090TIP3    H224235   0.658   0.937   2.634
 8091TIP3   OH224236   0.262   6.355   1.111
 8091TIP3    H124237   0.226   6.348   1.199
 8091TIP3    H224238   0.355   6.333   1.122
 8092TIP3   OH224239   4.929   3.102   5.689
 8092TIP3    H124240   4.950   3.092   5.782
 8092TIP3    H224241   4.901   3.193   5.681
 8093TIP3   OH224242   6.014   0.820   1.770
 8093TIP3    H124243   5.958   0.836   1.694
 8093TIP3    H224244   5.964   0.757   1.823
 8094TIP3   OH224245   2.987   2.028   2.733
 8094TIP3    H124246   2.969   1.945   2.778
 8094TIP3    H224247   2.946   2.095   2.787
 8095TIP3   OH224248   0.595   5.958   0.112
 8095TIP3    H124249   0.658   5.889   0.088
 8095TIP3    H224250   0.528   5.912   0.163
 8096TIP3   OH224251   1.742   0.552   4.093
 8096TIP3    H124252   1.796   0.603   4.152
 8096TIP3    H224253   1.700   0.618   4.037
 8097TIP3   OH224254   3.882   4.076   1.850
 8097TIP3    H124255   3.854   4.089   1.759
 8097TIP3    H224256   3.803   4.088   1.902
 8098TIP3   OH224257   1.957   1.617   1.010
 8098TIP3    H124258   1.907   1.535   1.020
 8098TIP3    H224259   1.947   1.640   0.918
 8099TIP3   OH224260   1.384   5.212   0.854
 8099TIP3    H124261   1.358   5.288   0.801
 8099TIP3    H224262   1.479   5.221   0.863
 8100TIP3   OH224263   5.819   4.337   2.302
 8100TIP3    H124264   5.767   4.261   2.275
 8100TIP3    H224265   5.755   4.408   2.308
 8101TIP3   OH224266   5.753   5.423   4.730
 8101TIP3    H124267   5.719   5.472   4.805
 8101TIP3    H224268   5.717   5.469   4.654
 8102TIP3   OH224269   4.327   5.307   1.388
 8102TIP3    H124270   4.421   5.319   1.395
 8102TIP3    H224271   4.308   5.312   1.295
 8103TIP3   OH224272   2.491   5.672   2.530
 8103TIP3    H124273   2.470   5.603   2.593
 8103TIP3    H224274   2.415   5.677   2.473
 8104TIP3   OH224275   2.103   6.263   2.059
 8104TIP3    H124276   2.196   6.280   2.074
 8104TIP3    H224277   2.099   6.174   2.024
 8105TIP3   OH224278   7.072   6.658   4.893
 8105TIP3    H124279   7.052   6.669   4.986
 8105TIP3    H224280   7.079   6.747   4.859
 8106TIP3   OH224281   4.143   3.145   4.348
 8106TIP3    H124282   4.157   3.177   4.437
 8106TIP3    H224283   4.083   3.209   4.309
 8107TIP3   OH224284   3.073   5.574   3.081
 8107TIP3    H124285   3.077   5.666   3.055
 8107TIP3    H224286   2.995   5.568   3.137
 8108TIP3   OH224287   2.154   4.398   5.098
 8108TIP3    H124288   2.086   4.367   5.039
 8108TIP3    H224289   2.163   4.491   5.077
 8109TIP3   OH224290   5.307   4.349   1.898
 8109TIP3    H124291   5.219   4.364   1.932
 8109TIP3    H224292   5.329   4.430   1.850
 8110TIP3   OH224293   3.366   4.152   4.228
 8110TIP3    H124294   3.272   4.168   4.231
 8110TIP3    H224295   3.384   4.126   4.138
 8111TIP3   OH224296   4.437   0.108   4.142
 8111TIP3    H124297   4.363   0.149   4.186
 8111TIP3    H224298   4.493   0.077   4.214
 8112TIP3   OH224299   3.056   3.456   5.004
 8112TIP3    H124300   3.013   3.445   4.919
 8112TIP3    H224301   3.069   3.367   5.036
 8113TIP3   OH224302   1.656   4.681   3.391
 8113TIP3    H124303   1.569   4.686   3.429
 8113TIP3    H224304   1.643   4.695   3.297
 8114TIP3   OH224305   3.407   5.148   4.744
 8114TIP3    H124306   3.478   5.141   4.808
 8114TIP3    H224307   3.410   5.239   4.715
 8115TIP3   OH224308   1.496   0.702   4.649
 8115TIP3    H124309   1.454   0.788   4.652
 8115TIP3    H224310   1.502   0.675   4.741
 8116TIP3   OH224311   1.556   0.623   0.547
 8116TIP3    H124312   1.585   0.602   0.637
 8116TIP3    H224313   1.487   0.560   0.529
 8117TIP3   OH224314   0.845   6.288   5.679
 8117TIP3    H124315   0.860   6.206   5.726
 8117TIP3    H224316   0.768   6.326   5.721
 8118TIP3   OH224317   6.104   3.667   3.298
 8118TIP3    H124318   6.095   3.576   3.268
 8118TIP3    H224319   6.043   3.717   3.244
 8119TIP3   OH224320   2.261   6.619   5.542
 8119TIP3    H124321   2.333   6.613   5.605
 8119TIP3    H224322   2.296   6.581   5.462
 8120TIP3   OH224323   1.808   0.605   3.240
 8120TIP3    H124324   1.737   0.543   3.226
 8120TIP3    H224325   1.776   0.687   3.203
 8121TIP3   OH224326   0.735   5.661   0.128
 8121TIP3    H124327   0.784   5.629   0.052
 8121TIP3    H224328   0.650   5.619   0.121
 8122TIP3   OH224329   4.994   0.500   2.138
 8122TIP3    H124330   5.083   0.527   2.160
 8122TIP3    H224331   4.947   0.501   2.222
 8123TIP3   OH224332   3.935   3.772   0.501
 8123TIP3    H124333   3.978   3.748   0.582
 8123TIP3    H224334   3.877   3.698   0.481
 8124TIP3   OH224335   3.325   0.749   0.889
 8124TIP3    H124336   3.293   0.745   0.979
 8124TIP3    H224337   3.250   0.784   0.839
 8125TIP3   OH224338   5.356   6.540   0.067
 8125TIP3    H124339   5.439   6.526   0.112
 8125TIP3    H224340   5.290   6.542   0.137
 8126TIP3   OH224341   2.086   4.916   3.607
 8126TIP3    H124342   2.171   4.878   3.587
 8126TIP3    H224343   2.024   4.867   3.552
 8127TIP3   OH224344   5.943   4.365   1.190
 8127TIP3    H124345   5.919   4.378   1.282
 8127TIP3    H224346   5.905   4.280   1.168
 8128TIP3   OH224347   0.716   3.590   5.596
 8128TIP3    H124348   0.789   3.532   5.618
 8128TIP3    H224349   0.757   3.663   5.550
 8129TIP3   OH224350   6.043   5.865   0.509
 8129TIP3    H124351   6.084   5.929   0.568
 8129TIP3    H224352   5.961   5.842   0.552
 8130TIP3   OH224353   1.927   2.049   4.953
 8130TIP3    H124354   1.932   1.954   4.964
 8130TIP3    H224355   2.010   2.073   4.912
 8131TIP3   OH224356   4.385   4.882   3.032
 8131TIP3    H124357   4.383   4.936   3.111
 8131TIP3    H224358   4.456   4.820   3.048
 8132TIP3   OH224359   3.849   1.021   1.702
 8132TIP3    H124360   3.896   1.076   1.766
 8132TIP3    H224361   3.837   1.078   1.626
 8133TIP3   OH224362   1.677   2.946   2.949
 8133TIP3    H124363   1.630   2.999   2.884
 8133TIP3    H224364   1.662   2.856   2.921
 8134TIP3   OH224365   2.786   3.681   1.718
 8134TIP3    H124366   2.699   3.713   1.742
 8134TIP3    H224367   2.772   3.630   1.639
 8135TIP3   OH224368   3.881   6.563   2.586
 8135TIP3    H124369   3.888   6.500   2.514
 8135TIP3    H224370   3.923   6.520   2.660
 8136TIP3   OH224371   4.380   1.349   1.307
 8136TIP3    H124372   4.301   1.298   1.322
 8136TIP3    H224373   4.407   1.326   1.218
 8137TIP3   OH224374   6.017   0.363   1.951
 8137TIP3    H124375   5.999   0.333   1.862
 8137TIP3    H224376   5.935   0.403   1.980
 8138TIP3   OH224377   5.863   4.228   0.738
 8138TIP3    H124378   5.774   4.206   0.711
 8138TIP3    H224379   5.912   4.237   0.657
 8139TIP3   OH224380   3.721   4.802   3.474
 8139TIP3    H124381   3.671   4.745   3.532
 8139TIP3    H224382   3.671   4.804   3.393
 8140TIP3   OH224383   4.956   1.902   5.091
 8140TIP3    H124384   4.939   1.884   5.183
 8140TIP3    H224385   4.920   1.827   5.045
 8141TIP3   OH224386   2.569   0.438   3.868
 8141TIP3    H124387   2.592   0.523   3.830
 8141TIP3    H224388   2.646   0.415   3.921
 8142TIP3   OH224389   2.233   2.575   5.326
 8142TIP3    H124390   2.283   2.609   5.251
 8142TIP3    H224391   2.282   2.499   5.355
 8143TIP3   OH224392   5.447   4.389   2.144
 8143TIP3    H124393   5.408   4.363   2.061
 8143TIP3    H224394   5.466   4.306   2.189
 8144TIP3   OH224395   4.526   2.054   2.041
 8144TIP3    H124396   4.437   2.018   2.034
 8144TIP3    H224397   4.515   2.148   2.030
 8145TIP3   OH224398   1.052   0.566   4.030
 8145TIP3    H124399   1.119   0.514   3.985
 8145TIP3    H224400   1.067   0.656   4.000
 8146TIP3   OH224401   6.998   2.635   1.895
 8146TIP3    H124402   7.057   2.680   1.835
 8146TIP3    H224403   7.043   2.553   1.915
 8147TIP3   OH224404   1.789   1.044   1.686
 8147TIP3    H124405   1.755   0.955   1.672
 8147TIP3    H224406   1.742   1.076   1.763
 8148TIP3   OH224407   0.578   6.416   4.406
 8148TIP3    H124408   0.500   6.381   4.363
 8148TIP3    H224409   0.544   6.486   4.462
 8149TIP3   OH224410   5.357   5.974   3.348
 8149TIP3    H124411   5.434   5.962   3.403
 8149TIP3    H224412   5.391   5.977   3.259
 8150TIP3   OH224413   6.324   2.770   2.061
 8150TIP3    H124414   6.269   2.737   2.132
 8150TIP3    H224415   6.273   2.839   2.020
 8151TIP3   OH224416   5.191   1.157   3.585
 8151TIP3    H124417   5.203   1.065   3.564
 8151TIP3    H224418   5.276   1.197   3.567
 8152TIP3   OH224419   0.055   5.171   4.248
 8152TIP3    H124420   0.044   5.136   4.336
 8152TIP3    H224421   0.145   5.204   4.246
 8153TIP3   OH224422   6.831   5.382   5.658
 8153TIP3    H124423   6.889   5.404   5.585
 8153TIP3    H224424   6.889   5.372   5.733
 8154TIP3   OH224425   1.429   2.654   4.207
 8154TIP3    H124426   1.339   2.622   4.207
 8154TIP3    H224427   1.479   2.583   4.166
 8155TIP3   OH224428   0.925   0.017   2.798
 8155TIP3    H124429   1.011   0.016   2.841
 8155TIP3    H224430   0.866   0.055   2.862
 8156TIP3   OH224431   4.960   5.401   2.250
 8156TIP3    H124432   5.001   5.315   2.256
 8156TIP3    H224433   4.968   5.425   2.158
 8157TIP3   OH224434   1.699   4.865   2.332
 8157TIP3    H124435   1.633   4.847   2.398
 8157TIP3    H224436   1.726   4.956   2.349
 8158TIP3   OH224437   3.477   0.611   4.800
 8158TIP3    H124438   3.531   0.690   4.810
 8158TIP3    H224439   3.395   0.632   4.844
 8159TIP3   OH224440   6.586   5.878   3.734
 8159TIP3    H124441   6.575   5.921   3.818
 8159TIP3    H224442   6.546   5.937   3.671
 8160TIP3   OH224443   4.946   5.623   3.954
 8160TIP3    H124444   5.007   5.688   3.919
 8160TIP3    H224445   4.980   5.602   4.041
 8161TIP3   OH224446   5.202   5.242   2.217
 8161TIP3    H124447   5.232   5.274   2.132
 8161TIP3    H224448   5.281   5.210   2.260
 8162TIP3   OH224449   1.376   5.484   3.830
 8162TIP3    H124450   1.435   5.448   3.896
 8162TIP3    H224451   1.430   5.497   3.753
 8163TIP3   OH224452   6.924   6.661   1.624
 8163TIP3    H124453   6.880   6.727   1.571
 8163TIP3    H224454   6.898   6.681   1.714
 8164TIP3   OH224455   4.396   3.650   0.461
 8164TIP3    H124456   4.431   3.657   0.550
 8164TIP3    H224457   4.325   3.715   0.459
 8165TIP3   OH224458   4.542   1.073   0.072
 8165TIP3    H124459   4.494   1.145   0.114
 8165TIP3    H224460   4.603   1.042   0.139
 8166TIP3   OH224461   5.220   2.357   2.220
 8166TIP3    H124462   5.288   2.298   2.253
 8166TIP3    H224463   5.152   2.355   2.288
 8167TIP3   OH224464   3.032   6.597   1.679
 8167TIP3    H124465   3.042   6.539   1.755
 8167TIP3    H224466   3.033   6.685   1.716
 8168TIP3   OH224467   7.147   1.165   5.611
 8168TIP3    H124468   7.159   1.078   5.574
 8168TIP3    H224469   7.113   1.149   5.699
 8169TIP3   OH224470   4.534   0.834   2.332
 8169TIP3    H124471   4.583   0.871   2.259
 8169TIP3    H224472   4.442   0.843   2.306
 8170TIP3   OH224473   3.356   2.244   4.601
 8170TIP3    H124474   3.443   2.275   4.627
 8170TIP3    H224475   3.374   2.165   4.550
 8171TIP3   OH224476   2.982   4.605   1.895
 8171TIP3    H124477   2.916   4.535   1.895
 8171TIP3    H224478   3.056   4.569   1.846
 8172TIP3   OH224479   3.365   0.149   4.728
 8172TIP3    H124480   3.341   0.144   4.635
 8172TIP3    H224481   3.407   0.234   4.737
 8173TIP3   OH224482   1.629   4.328   4.644
 8173TIP3    H124483   1.614   4.421   4.632
 8173TIP3    H224484   1.620   4.290   4.557
 8174TIP3   OH224485   4.701   5.694   5.218
 8174TIP3    H124486   4.695   5.763   5.151
 8174TIP3    H224487   4.777   5.718   5.270
 8175TIP3   OH224488   5.540   2.180   3.961
 8175TIP3    H124489   5.495   2.110   3.912
 8175TIP3    H224490   5.524   2.159   4.053
 8176TIP3   OH224491   4.417   2.745   1.493
 8176TIP3    H124492   4.324   2.769   1.494
 8176TIP3    H224493   4.447   2.768   1.405
 8177TIP3   OH224494   0.530   4.366   2.737
 8177TIP3    H124495   0.600   4.366   2.803
 8177TIP3    H224496   0.513   4.459   2.721
 8178TIP3   OH224497   0.933   5.715   2.929
 8178TIP3    H124498   1.010   5.671   2.893
 8178TIP3    H224499   0.945   5.709   3.024
 8179TIP3   OH224500   4.637   1.874   2.652
 8179TIP3    H124501   4.561   1.920   2.688
 8179TIP3    H224502   4.669   1.931   2.582
 8180TIP3   OH224503   0.129   1.315   2.770
 8180TIP3    H124504   0.077   1.308   2.850
 8180TIP3    H224505   0.073   1.276   2.702
 8181TIP3   OH224506   6.518   4.780   3.931
 8181TIP3    H124507   6.429   4.815   3.925
 8181TIP3    H224508   6.521   4.737   4.016
 8182TIP3   OH224509   7.183   3.523   5.048
 8182TIP3    H124510   7.150   3.489   4.965
 8182TIP3    H224511   7.144   3.467   5.115
 8183TIP3   OH224512   0.581   5.180   4.924
 8183TIP3    H124513   0.647   5.221   4.980
 8183TIP3    H224514   0.631   5.132   4.858
 8184TIP3   OH224515   6.702   1.589   4.316
 8184TIP3    H124516   6.764   1.555   4.252
 8184TIP3    H224517   6.754   1.650   4.369
 8185TIP3   OH224518   7.177   6.567   3.930
 8185TIP3    H124519   7.136   6.512   3.864
 8185TIP3    H224520   7.203   6.506   3.999
 8186TIP3   OH224521   6.382   4.055   0.640
 8186TIP3    H124522   6.365   3.964   0.615
 8186TIP3    H224523   6.454   4.082   0.583
 8187TIP3   OH224524   0.682   6.034   1.844
 8187TIP3    H124525   0.748   6.033   1.914
 8187TIP3    H224526   0.599   6.017   1.889
 8188TIP3   OH224527   6.841   1.238   5.508
 8188TIP3    H124528   6.916   1.188   5.475
 8188TIP3    H224529   6.813   1.190   5.586
 8189TIP3   OH224530   0.740   1.798   0.609
 8189TIP3    H124531   0.784   1.729   0.560
 8189TIP3    H224532   0.708   1.754   0.689
 8190TIP3   OH224533   4.419   1.273   2.968
 8190TIP3    H124534   4.475   1.309   3.037
 8190TIP3    H224535   4.470   1.285   2.888
 8191TIP3   OH224536   2.729   5.699   5.309
 8191TIP3    H124537   2.747   5.628   5.248
 8191TIP3    H224538   2.785   5.681   5.384
 8192TIP3   OH224539   3.291   4.047   3.767
 8192TIP3    H124540   3.236   4.125   3.762
 8192TIP3    H224541   3.280   4.003   3.683
 8193TIP3   OH224542   6.884   1.382   1.603
 8193TIP3    H124543   6.973   1.347   1.612
 8193TIP3    H224544   6.887   1.465   1.649
 8194TIP3   OH224545   4.672   2.753   0.972
 8194TIP3    H124546   4.590   2.797   0.950
 8194TIP3    H224547   4.690   2.780   1.062
 8195TIP3   OH224548   0.968   5.638   5.497
 8195TIP3    H124549   0.914   5.634   5.417
 8195TIP3    H224550   0.909   5.609   5.566
 8196TIP3   OH224551   0.140   4.733   1.372
 8196TIP3    H124552   0.190   4.810   1.398
 8196TIP3    H224553   0.055   4.743   1.416
 8197TIP3   OH224554   0.610   0.245   0.079
 8197TIP3    H124555   0.673   0.244   0.006
 8197TIP3    H224556   0.605   0.337   0.104
 8198TIP3   OH224557   0.491   2.494   5.526
 8198TIP3    H124558   0.460   2.421   5.474
 8198TIP3    H224559   0.532   2.452   5.602
 8199TIP3   OH224560   5.323   3.491   4.546
 8199TIP3    H124561   5.308   3.465   4.455
 8199TIP3    H224562   5.403   3.443   4.571
 8200TIP3   OH224563   0.734   2.517   4.892
 8200TIP3    H124564   0.693   2.430   4.896
 8200TIP3    H224565   0.792   2.520   4.968
 8201TIP3   OH224566   4.624   5.312   4.869
 8201TIP3    H124567   4.629   5.377   4.939
 8201TIP3    H224568   4.712   5.276   4.863
 8202TIP3   OH224569   5.397   6.036   1.748
 8202TIP3    H124570   5.440   5.983   1.815
 8202TIP3    H224571   5.406   6.126   1.780
 8203TIP3   OH224572   3.594   5.689   4.390
 8203TIP3    H124573   3.519   5.749   4.394
 8203TIP3    H224574   3.583   5.633   4.468
 8204TIP3   OH224575   6.995   5.174   2.555
 8204TIP3    H124576   6.928   5.203   2.494
 8204TIP3    H224577   7.015   5.252   2.608
 8205TIP3   OH224578   5.632   3.471   4.716
 8205TIP3    H124579   5.590   3.539   4.769
 8205TIP3    H224580   5.637   3.395   4.774
 8206TIP3   OH224581   3.307   2.050   3.564
 8206TIP3    H124582   3.256   1.970   3.549
 8206TIP3    H224583   3.241   2.116   3.584
 8207TIP3   OH224584   1.615   4.401   0.831
 8207TIP3    H124585   1.624   4.365   0.742
 8207TIP3    H224586   1.571   4.485   0.819
 8208TIP3   OH224587   4.730   1.867   0.459
 8208TIP3    H124588   4.749   1.791   0.513
 8208TIP3    H224589   4.800   1.930   0.480
 8209TIP3   OH224590   6.128   4.901   3.754
 8209TIP3    H124591   6.196   4.968   3.745
 8209TIP3    H224592   6.047   4.945   3.730
 8210TIP3   OH224593   1.933   2.868   0.046
 8210TIP3    H124594   1.917   2.776   0.027
 8210TIP3    H224595   2.007   2.867   0.107
 8211TIP3   OH224596   1.685   3.314   0.939
 8211TIP3    H124597   1.635   3.393   0.962
 8211TIP3    H224598   1.628   3.266   0.880
 8212TIP3   OH224599   4.334   5.937   2.223
 8212TIP3    H124600   4.273   5.863   2.221
 8212TIP3    H224601   4.415   5.902   2.259
 8213TIP3   OH224602   1.190   0.309   2.061
 8213TIP3    H124603   1.155   0.390   2.099
 8213TIP3    H224604   1.114   0.252   2.049
 8214TIP3   OH224605   2.258   1.588   5.019
 8214TIP3    H124606   2.277   1.655   5.084
 8214TIP3    H224607   2.204   1.524   5.066
 8215TIP3   OH224608   6.367   1.977   3.920
 8215TIP3    H124609   6.273   1.970   3.934
 8215TIP3    H224610   6.395   1.887   3.900
 8216TIP3   OH224611   1.131   0.318   2.873
 8216TIP3    H124612   1.067   0.377   2.913
 8216TIP3    H224613   1.203   0.375   2.847
 8217TIP3   OH224614   4.575   1.413   0.239
 8217TIP3    H124615   4.618   1.380   0.319
 8217TIP3    H224616   4.521   1.340   0.209
 8218TIP3   OH224617   1.494   5.862   5.889
 8218TIP3    H124618   1.509   5.802   5.816
 8218TIP3    H224619   1.560   5.931   5.878
 8219TIP3   OH224620   0.287   3.964   2.393
 8219TIP3    H124621   0.301   4.012   2.311
 8219TIP3    H224622   0.321   4.023   2.461
 8220TIP3   OH224623   7.173   2.202   4.992
 8220TIP3    H124624   7.184   2.293   4.964
 8220TIP3    H224625   7.141   2.208   5.082
 8221TIP3   OH224626   5.370   1.959   0.896
 8221TIP3    H124627   5.370   1.958   0.801
 8221TIP3    H224628   5.385   2.051   0.919
 8222TIP3   OH224629   5.750   2.684   1.270
 8222TIP3    H124630   5.789   2.768   1.293
 8222TIP3    H224631   5.819   2.620   1.289
 8223TIP3   OH224632   4.694   0.427   3.452
 8223TIP3    H124633   4.663   0.340   3.427
 8223TIP3    H224634   4.616   0.482   3.446
 8224TIP3   OH224635   7.142   0.415   2.875
 8224TIP3    H124636   7.100   0.446   2.955
 8224TIP3    H224637   7.124   0.321   2.873
 8225TIP3   OH224638   2.110   1.527   4.489
 8225TIP3    H124639   2.105   1.467   4.564
 8225TIP3    H224640   2.096   1.471   4.413
 8226TIP3   OH224641   4.118   6.078   4.776
 8226TIP3    H124642   4.093   6.111   4.863
 8226TIP3    H224643   4.133   6.156   4.724
 8227TIP3   OH224644   0.779   5.354   3.442
 8227TIP3    H124645   0.685   5.371   3.436
 8227TIP3    H224646   0.814   5.429   3.490
 8228TIP3   OH224647   3.474   3.955   3.195
 8228TIP3    H124648   3.559   3.920   3.170
 8228TIP3    H224649   3.477   4.047   3.169
 8229TIP3   OH224650   2.825   1.305   1.053
 8229TIP3    H124651   2.745   1.254   1.066
 8229TIP3    H224652   2.828   1.364   1.129
 8230TIP3   OH224653   2.611   6.275   1.622
 8230TIP3    H124654   2.693   6.316   1.651
 8230TIP3    H224655   2.639   6.193   1.581
 8231TIP3   OH224656   0.885   3.114   1.969
 8231TIP3    H124657   0.915   3.199   2.000
 8231TIP3    H224658   0.842   3.132   1.885
 8232TIP3   OH224659   6.485   1.710   0.388
 8232TIP3    H124660   6.394   1.736   0.403
 8232TIP3    H224661   6.533   1.742   0.465
 8233TIP3   OH224662   3.687   4.560   4.808
 8233TIP3    H124663   3.666   4.478   4.763
 8233TIP3    H224664   3.707   4.621   4.737
 8234TIP3   OH224665   0.690   3.649   2.045
 8234TIP3    H124666   0.640   3.689   2.116
 8234TIP3    H224667   0.631   3.583   2.008
 8235TIP3   OH224668   5.712   4.770   0.062
 8235TIP3    H124669   5.735   4.844   0.006
 8235TIP3    H224670   5.738   4.693   0.011
 8236TIP3   OH224671   2.495   2.873   4.383
 8236TIP3    H124672   2.575   2.866   4.435
 8236TIP3    H224673   2.426   2.885   4.447
 8237TIP3   OH224674   4.591   3.470   1.598
 8237TIP3    H124675   4.509   3.436   1.563
 8237TIP3    H224676   4.612   3.411   1.670
 8238TIP3   OH224677   5.460   1.230   0.242
 8238TIP3    H124678   5.384   1.179   0.214
 8238TIP3    H224679   5.477   1.201   0.331
 8239TIP3   OH224680   4.712   6.580   4.180
 8239TIP3    H124681   4.685   6.490   4.164
 8239TIP3    H224682   4.633   6.625   4.209
 8240TIP3   OH224683   5.245   6.402   5.339
 8240TIP3    H124684   5.274   6.481   5.292
 8240TIP3    H224685   5.193   6.435   5.412
 8241TIP3   OH224686   3.295   2.991   2.162
 8241TIP3    H124687   3.357   2.937   2.114
 8241TIP3    H224688   3.330   3.079   2.157
 8242TIP3   OH224689   4.232   6.248   2.551
 8242TIP3    H124690   4.267   6.192   2.621
 8242TIP3    H224691   4.283   6.223   2.474
 8243TIP3   OH224692   2.597   6.124   4.101
 8243TIP3    H124693   2.593   6.175   4.182
 8243TIP3    H224694   2.684   6.084   4.101
 8244TIP3   OH224695   5.398   1.031   4.332
 8244TIP3    H124696   5.460   1.005   4.400
 8244TIP3    H224697   5.435   0.996   4.251
 8245TIP3   OH224698   6.889   4.287   5.071
 8245TIP3    H124699   6.897   4.192   5.074
 8245TIP3    H224700   6.802   4.303   5.036
 8246TIP3   OH224701   5.641   3.736   5.295
 8246TIP3    H124702   5.705   3.749   5.365
 8246TIP3    H224703   5.557   3.730   5.340
 8247TIP3   OH224704   0.643   3.088   3.005
 8247TIP3    H124705   0.562   3.108   2.959
 8247TIP3    H224706   0.712   3.118   2.947
 8248TIP3   OH224707   3.027   4.728   2.159
 8248TIP3    H124708   2.970   4.678   2.101
 8248TIP3    H224709   2.987   4.719   2.246
 8249TIP3   OH224710   0.103   1.726   2.299
 8249TIP3    H124711   0.161   1.656   2.269
 8249TIP3    H224712   0.063   1.691   2.378
 8250TIP3   OH224713   5.007   0.169   3.567
 8250TIP3    H124714   4.938   0.105   3.582
 8250TIP3    H224715   4.965   0.254   3.580
 8251TIP3   OH224716   5.665   1.447   1.666
 8251TIP3    H124717   5.600   1.458   1.735
 8251TIP3    H224718   5.705   1.534   1.657
 8252TIP3   OH224719   6.148   2.195   5.064
 8252TIP3    H124720   6.223   2.169   5.117
 8252TIP3    H224721   6.085   2.124   5.075
 8253TIP3   OH224722   6.150   1.906   1.122
 8253TIP3    H124723   6.105   1.910   1.038
 8253TIP3    H224724   6.080   1.907   1.187
 8254TIP3   OH224725   2.427   3.435   3.688
 8254TIP3    H124726   2.442   3.495   3.615
 8254TIP3    H224727   2.510   3.434   3.736
 8255TIP3   OH224728   1.470   6.710   2.624
 8255TIP3    H124729   1.501   6.625   2.653
 8255TIP3    H224730   1.398   6.731   2.684
 8256TIP3   OH224731   0.027   1.778   3.454
 8256TIP3    H124732  -0.026   1.766   3.532
 8256TIP3    H224733   0.068   1.692   3.439
 8257TIP3   OH224734   2.486   0.660   4.673
 8257TIP3    H124735   2.485   0.694   4.762
 8257TIP3    H224736   2.465   0.735   4.618
 8258TIP3   OH224737   5.299   0.505   3.804
 8258TIP3    H124738   5.342   0.537   3.725
 8258TIP3    H224739   5.368   0.458   3.851
 8259TIP3   OH224740   5.507   3.816   3.061
 8259TIP3    H124741   5.549   3.857   2.985
 8259TIP3    H224742   5.535   3.725   3.058
 8260TIP3   OH224743   1.057   1.599   0.069
 8260TIP3    H124744   1.023   1.683   0.038
 8260TIP3    H224745   1.013   1.534   0.014
 8261TIP3   OH224746   2.308   2.110   1.415
 8261TIP3    H124747   2.279   2.107   1.506
 8261TIP3    H224748   2.404   2.112   1.421
 8262TIP3   OH224749   5.388   1.040   0.880
 8262TIP3    H124750   5.375   1.036   0.975
 8262TIP3    H224751   5.368   0.952   0.849
 8263TIP3   OH224752   3.544   1.669   3.693
 8263TIP3    H124753   3.513   1.690   3.604
 8263TIP3    H224754   3.586   1.749   3.723
 8264TIP3   OH224755   2.840   5.611   0.497
 8264TIP3    H124756   2.909   5.660   0.542
 8264TIP3    H224757   2.791   5.568   0.567
 8265TIP3   OH224758   3.547   1.819   0.481
 8265TIP3    H124759   3.639   1.793   0.488
 8265TIP3    H224760   3.526   1.806   0.388
 8266TIP3   OH224761   3.375   0.970   1.265
 8266TIP3    H124762   3.304   0.907   1.278
 8266TIP3    H224763   3.363   1.034   1.335
 8267TIP3   OH224764   0.272   5.590   1.870
 8267TIP3    H124765   0.299   5.531   1.799
 8267TIP3    H224766   0.177   5.585   1.871
 8268TIP3   OH224767   3.868   1.011   3.921
 8268TIP3    H124768   3.802   0.998   3.852
 8268TIP3    H224769   3.887   1.105   3.919
 8269TIP3   OH224770   1.219   5.436   2.661
 8269TIP3    H124771   1.208   5.463   2.752
 8269TIP3    H224772   1.145   5.476   2.615
 8270TIP3   OH224773   5.958   0.885   3.147
 8270TIP3    H124774   5.890   0.870   3.081
 8270TIP3    H224775   5.927   0.961   3.197
 8271TIP3   OH224776   2.669   2.311   2.723
 8271TIP3    H124777   2.732   2.339   2.790
 8271TIP3    H224778   2.606   2.258   2.770
 8272TIP3   OH224779   3.361   1.340   3.592
 8272TIP3    H124780   3.410   1.414   3.556
 8272TIP3    H224781   3.273   1.349   3.558
 8273TIP3   OH224782   6.451   3.272   1.006
 8273TIP3    H124783   6.387   3.303   0.943
 8273TIP3    H224784   6.479   3.350   1.054
 8274TIP3   OH224785   3.074   3.337   0.563
 8274TIP3    H124786   3.111   3.409   0.615
 8274TIP3    H224787   3.150   3.282   0.543
 8275TIP3   OH224788   2.941   5.286   1.777
 8275TIP3    H124789   3.011   5.267   1.840
 8275TIP3    H224790   2.955   5.378   1.753
 8276TIP3   OH224791   3.936   1.125   5.738
 8276TIP3    H124792   3.849   1.146   5.704
 8276TIP3    H224793   3.942   1.171   5.821
 8277TIP3   OH224794   5.156   2.641   5.490
 8277TIP3    H124795   5.144   2.560   5.541
 8277TIP3    H224796   5.120   2.710   5.547
 8278TIP3   OH224797   4.662   3.749   1.626
 8278TIP3    H124798   4.652   3.663   1.586
 8278TIP3    H224799   4.640   3.811   1.556
 8279TIP3   OH224800   0.504   4.481   2.419
 8279TIP3    H124801   0.530   4.569   2.448
 8279TIP3    H224802   0.438   4.454   2.482
 8280TIP3   OH224803   1.541   0.921   5.639
 8280TIP3    H124804   1.532   0.832   5.605
 8280TIP3    H224805   1.622   0.919   5.689
 8281TIP3   OH224806   0.969   4.297   0.338
 8281TIP3    H124807   0.908   4.237   0.381
 8281TIP3    H224808   1.051   4.249   0.333
 8282TIP3   OH224809   5.634   2.943   4.123
 8282TIP3    H124810   5.630   2.951   4.027
 8282TIP3    H224811   5.716   2.986   4.147
 8283TIP3   OH224812   4.605   1.227   2.752
 8283TIP3    H124813   4.685   1.190   2.716
 8283TIP3    H224814   4.623   1.321   2.760
 8284TIP3   OH224815   1.728   1.890   0.378
 8284TIP3    H124816   1.771   1.891   0.293
 8284TIP3    H224817   1.665   1.963   0.374
 8285TIP3   OH224818   2.325   2.309   0.469
 8285TIP3    H124819   2.263   2.380   0.479
 8285TIP3    H224820   2.329   2.268   0.555
 8286TIP3   OH224821   0.872   4.935   5.113
 8286TIP3    H124822   0.780   4.953   5.133
 8286TIP3    H224823   0.874   4.916   5.020
 8287TIP3   OH224824   3.576   4.422   2.065
 8287TIP3    H124825   3.651   4.433   2.006
 8287TIP3    H224826   3.613   4.428   2.153
 8288TIP3   OH224827   4.585   0.920   5.366
 8288TIP3    H124828   4.680   0.919   5.360
 8288TIP3    H224829   4.564   1.011   5.390
 8289TIP3   OH224830   3.527   4.829   2.110
 8289TIP3    H124831   3.449   4.781   2.138
 8289TIP3    H224832   3.575   4.846   2.192
 8290TIP3   OH224833   0.251   3.791   4.528
 8290TIP3    H124834   0.270   3.703   4.497
 8290TIP3    H224835   0.223   3.839   4.450
 8291TIP3   OH224836   4.522   6.097   5.195
 8291TIP3    H124837   4.531   6.073   5.103
 8291TIP3    H224838   4.611   6.095   5.230
 8292TIP3   OH224839   3.696   0.648   3.950
 8292TIP3    H124840   3.655   0.561   3.953
 8292TIP3    H224841   3.677   0.687   4.035
 8293TIP3   OH224842   2.761   4.585   2.692
 8293TIP3    H124843   2.791   4.667   2.732
 8293TIP3    H224844   2.841   4.535   2.677
 8294TIP3   OH224845   5.756   6.737   3.816
 8294TIP3    H124846   5.835   6.773   3.856
 8294TIP3    H224847   5.786   6.656   3.773
 8295TIP3   OH224848   4.779   5.914   5.054
 8295TIP3    H124849   4.750   5.993   5.008
 8295TIP3    H224850   4.806   5.945   5.141
 8296TIP3   OH224851   4.762   2.921   5.423
 8296TIP3    H124852   4.803   2.841   5.389
 8296TIP3    H224853   4.812   2.992   5.382
 8297TIP3   OH224854   3.946   4.402   3.235
 8297TIP3    H124855   3.977   4.353   3.311
 8297TIP3    H224856   3.852   4.382   3.230
 8298TIP3   OH224857   1.607   2.931   1.821
 8298TIP3    H124858   1.698   2.915   1.795
 8298TIP3    H224859   1.582   3.010   1.772
 8299TIP3   OH224860   6.389   5.817   4.770
 8299TIP3    H124861   6.317   5.879   4.778
 8299TIP3    H224862   6.372   5.771   4.688
 8300TIP3   OH224863   5.184   0.550   2.569
 8300TIP3    H124864   5.153   0.481   2.627
 8300TIP3    H224865   5.271   0.520   2.541
 8301TIP3   OH224866   4.841   1.376   0.807
 8301TIP3    H124867   4.771   1.400   0.748
 8301TIP3    H224868   4.799   1.368   0.893
 8302TIP3   OH224869   0.589   0.237   1.532
 8302TIP3    H124870   0.515   0.248   1.472
 8302TIP3    H224871   0.650   0.181   1.485
 8303TIP3   OH224872   3.783   4.626   3.728
 8303TIP3    H124873   3.762   4.585   3.645
 8303TIP3    H224874   3.842   4.698   3.706
 8304TIP3   OH224875   4.408   0.536   1.473
 8304TIP3    H124876   4.373   0.461   1.521
 8304TIP3    H224877   4.336   0.599   1.470
 8305TIP3   OH224878   0.397   0.917   0.412
 8305TIP3    H124879   0.309   0.880   0.412
 8305TIP3    H224880   0.384   1.011   0.420
 8306TIP3   OH224881   3.603   1.650   0.753
 8306TIP3    H124882   3.557   1.734   0.759
 8306TIP3    H224883   3.564   1.608   0.676
 8307TIP3   OH224884   4.779   6.169   4.939
 8307TIP3    H124885   4.694   6.210   4.922
 8307TIP3    H224886   4.820   6.162   4.853
 8308TIP3   OH224887   3.271   4.480   5.304
 8308TIP3    H124888   3.360   4.487   5.338
 8308TIP3    H224889   3.280   4.422   5.228
 8309TIP3   OH224890   1.059   3.234   5.606
 8309TIP3    H124891   1.073   3.140   5.618
 8309TIP3    H224892   1.036   3.243   5.514
 8310TIP3   OH224893   1.419   1.631   2.531
 8310TIP3    H124894   1.392   1.611   2.621
 8310TIP3    H224895   1.370   1.570   2.477
 8311TIP3   OH224896   4.227   0.358   0.309
 8311TIP3    H124897   4.285   0.412   0.256
 8311TIP3    H224898   4.274   0.275   0.319
 8312TIP3   OH224899   3.788   5.822   5.457
 8312TIP3    H124900   3.749   5.894   5.508
 8312TIP3    H224901   3.858   5.864   5.408
 8313TIP3   OH224902   5.683   3.320   5.467
 8313TIP3    H124903   5.614   3.263   5.431
 8313TIP3    H224904   5.716   3.273   5.543
 8314TIP3   OH224905   3.643   0.238   3.686
 8314TIP3    H124906   3.553   0.206   3.695
 8314TIP3    H224907   3.687   0.170   3.636
 8315TIP3   OH224908   3.252   6.165   3.234
 8315TIP3    H124909   3.325   6.111   3.205
 8315TIP3    H224910   3.205   6.187   3.153
 8316TIP3   OH224911   3.381   5.743   0.860
 8316TIP3    H124912   3.429   5.677   0.809
 8316TIP3    H224913   3.392   5.824   0.810
 8317TIP3   OH224914   1.843   4.610   0.554
 8317TIP3    H124915   1.804   4.529   0.584
 8317TIP3    H224916   1.936   4.589   0.542
 8318TIP3   OH224917   5.571   5.349   4.475
 8318TIP3    H124918   5.561   5.428   4.526
 8318TIP3    H224919   5.590   5.380   4.386
 8319TIP3   OH224920   1.869   0.351   2.453
 8319TIP3    H124921   1.815   0.403   2.394
 8319TIP3    H224922   1.935   0.311   2.396
 8320TIP3   OH224923   6.733   6.653   2.546
 8320TIP3    H124924   6.778   6.570   2.532
 8320TIP3    H224925   6.739   6.698   2.461
 8321TIP3   OH224926   7.027   5.088   4.539
 8321TIP3    H124927   7.045   4.994   4.547
 8321TIP3    H224928   7.114   5.128   4.528
 8322TIP3   OH224929   4.937   1.828   0.222
 8322TIP3    H124930   4.998   1.894   0.255
 8322TIP3    H224931   4.962   1.816   0.131
 8323TIP3   OH224932   0.956   6.402   5.409
 8323TIP3    H124933   0.930   6.378   5.320
 8323TIP3    H224934   0.941   6.323   5.460
 8324TIP3   OH224935   6.656   0.667   3.676
 8324TIP3    H124936   6.741   0.709   3.680
 8324TIP3    H224937   6.635   0.664   3.583
 8325TIP3   OH224938   3.215   6.322   5.382
 8325TIP3    H124939   3.175   6.258   5.323
 8325TIP3    H224940   3.142   6.358   5.432
 8326TIP3   OH224941   4.609   1.256   4.480
 8326TIP3    H124942   4.673   1.186   4.464
 8326TIP3    H224943   4.578   1.239   4.569
 8327TIP3   OH224944   4.256   5.039   1.419
 8327TIP3    H124945   4.239   4.992   1.337
 8327TIP3    H224946   4.240   5.131   1.399
 8328TIP3   OH224947  -0.003   4.082   4.894
 8328TIP3    H124948   0.050   4.160   4.909
 8328TIP3    H224949  -0.063   4.078   4.969
 8329TIP3   OH224950   3.198   5.870   1.017
 8329TIP3    H124951   3.269   5.932   1.035
 8329TIP3    H224952   3.234   5.811   0.951
 8330TIP3   OH224953   1.742   6.444   1.607
 8330TIP3    H124954   1.690   6.478   1.679
 8330TIP3    H224955   1.816   6.400   1.648
 8331TIP3   OH224956   6.358   1.958   2.173
 8331TIP3    H124957   6.422   2.012   2.220
 8331TIP3    H224958   6.295   2.021   2.139
 8332TIP3   OH224959   4.837   0.718   0.067
 8332TIP3    H124960   4.886   0.800   0.062
 8332TIP3    H224961   4.820   0.706   0.160
 8333TIP3   OH224962   6.514   5.879   1.435
 8333TIP3    H124963   6.509   5.841   1.523
 8333TIP3    H224964   6.605   5.864   1.407
 8334TIP3   OH224965   1.994   4.985   0.888
 8334TIP3    H124966   1.994   4.932   0.808
 8334TIP3    H224967   1.981   4.921   0.958
 8335TIP3   OH224968   4.135   2.207   1.565
 8335TIP3    H124969   4.149   2.294   1.604
 8335TIP3    H224970   4.223   2.173   1.551
 8336TIP3   OH224971   3.556   6.253   3.110
 8336TIP3    H124972   3.547   6.164   3.144
 8336TIP3    H224973   3.637   6.250   3.058
 8337TIP3   OH224974   5.811   4.040   4.347
 8337TIP3    H124975   5.740   4.079   4.397
 8337TIP3    H224976   5.792   4.062   4.256
 8338TIP3   OH224977   5.903   1.009   0.776
 8338TIP3    H124978   5.948   1.042   0.699
 8338TIP3    H224979   5.894   1.084   0.833
 8339TIP3   OH224980   7.068   4.099   4.016
 8339TIP3    H124981   7.104   4.023   3.971
 8339TIP3    H224982   7.081   4.080   4.109
 8340TIP3   OH224983   1.457   1.893   2.642
 8340TIP3    H124984   1.463   1.860   2.732
 8340TIP3    H224985   1.418   1.822   2.592
 8341TIP3   OH224986   3.998   3.857   2.332
 8341TIP3    H124987   3.913   3.831   2.297
 8341TIP3    H224988   4.042   3.899   2.258
 8342TIP3   OH224989   6.175   4.230   5.782
 8342TIP3    H124990   6.240   4.224   5.852
 8342TIP3    H224991   6.092   4.246   5.826
 8343TIP3   OH224992   4.589   2.555   5.198
 8343TIP3    H124993   4.582   2.465   5.165
 8343TIP3    H224994   4.539   2.554   5.280
 8344TIP3   OH224995   2.269   1.838   5.407
 8344TIP3    H124996   2.186   1.797   5.434
 8344TIP3    H224997   2.303   1.877   5.488
 8345TIP3   OH224998   2.200   5.108   5.797
 8345TIP3    H124999   2.167   5.133   5.883
 8345TIP3    H225000   2.122   5.090   5.745
 8346TIP3   OH225001   0.385   3.515   5.066
 8346TIP3    H125002   0.325   3.500   5.139
 8346TIP3    H225003   0.357   3.599   5.028
 8347TIP3   OH225004   1.450   0.376   1.395
 8347TIP3    H125005   1.474   0.390   1.304
 8347TIP3    H225006   1.532   0.354   1.439
 8348TIP3   OH225007   5.034   4.933   4.934
 8348TIP3    H125008   4.952   4.919   4.982
 8348TIP3    H225009   5.027   4.876   4.857
 8349TIP3   OH225010   5.959   5.630   5.619
 8349TIP3    H125011   6.010   5.630   5.538
 8349TIP3    H225012   6.023   5.642   5.689
 8350TIP3   OH225013   6.661   4.379   4.020
 8350TIP3    H125014   6.616   4.442   4.077
 8350TIP3    H225015   6.596   4.309   4.006
 8351TIP3   OH225016   4.914   0.197   1.443
 8351TIP3    H125017   4.920   0.164   1.353
 8351TIP3    H225018   4.889   0.289   1.433
 8352TIP3   OH225019   0.843   6.100   3.459
 8352TIP3    H125020   0.911   6.166   3.448
 8352TIP3    H225021   0.845   6.079   3.553
 8353TIP3   OH225022   4.352   2.646   5.035
 8353TIP3    H125023   4.360   2.741   5.028
 8353TIP3    H225024   4.410   2.622   5.107
 8354TIP3   OH225025   5.525   5.370   2.862
 8354TIP3    H125026   5.619   5.354   2.869
 8354TIP3    H225027   5.503   5.420   2.941
 8355TIP3   OH225028   2.830   6.363   2.595
 8355TIP3    H125029   2.776   6.432   2.557
 8355TIP3    H225030   2.845   6.390   2.685
 8356TIP3   OH225031   4.252   4.972   1.157
 8356TIP3    H125032   4.306   5.010   1.087
 8356TIP3    H225033   4.162   4.976   1.122
 8357TIP3   OH225034   3.695   5.162   3.116
 8357TIP3    H125035   3.724   5.214   3.191
 8357TIP3    H225036   3.768   5.104   3.097
 8358TIP3   OH225037   1.525   5.662   2.282
 8358TIP3    H125038   1.550   5.674   2.191
 8358TIP3    H225039   1.510   5.750   2.315
 8359TIP3   OH225040   5.119   0.925   3.386
 8359TIP3    H125041   5.170   1.002   3.362
 8359TIP3    H225042   5.125   0.867   3.310
 8360TIP3   OH225043   6.134   6.756   3.677
 8360TIP3    H125044   6.115   6.792   3.591
 8360TIP3    H225045   6.229   6.740   3.676
 8361TIP3   OH225046   6.703   1.628   1.642
 8361TIP3    H125047   6.687   1.563   1.574
 8361TIP3    H225048   6.617   1.667   1.660
 8362TIP3   OH225049   3.783   0.872   3.031
 8362TIP3    H125050   3.731   0.929   2.975
 8362TIP3    H225051   3.724   0.848   3.103
 8363TIP3   OH225052   3.341   4.976   1.587
 8363TIP3    H125053   3.250   4.948   1.579
 8363TIP3    H225054   3.375   4.929   1.663
 8364TIP3   OH225055   1.764   0.782   1.740
 8364TIP3    H125056   1.676   0.774   1.777
 8364TIP3    H225057   1.778   0.700   1.693
 8365TIP3   OH225058   5.505   1.567   2.938
 8365TIP3    H125059   5.500   1.534   2.848
 8365TIP3    H225060   5.498   1.489   2.992
 8366TIP3   OH225061   0.941   0.669   1.889
 8366TIP3    H125062   0.977   0.757   1.875
 8366TIP3    H225063   0.916   0.668   1.981
 8367TIP3   OH225064   5.006   3.578   5.047
 8367TIP3    H125065   5.001   3.597   4.953
 8367TIP3    H225066   4.964   3.653   5.089
 8368TIP3   OH225067   5.231   6.337   2.982
 8368TIP3    H125068   5.309   6.316   2.930
 8368TIP3    H225069   5.202   6.422   2.948
 8369TIP3   OH225070   2.769   5.391   3.998
 8369TIP3    H125071   2.750   5.475   4.040
 8369TIP3    H225072   2.683   5.353   3.979
 8370TIP3   OH225073   2.530   6.208   0.548
 8370TIP3    H125074   2.450   6.187   0.597
 8370TIP3    H225075   2.502   6.210   0.456
 8371TIP3   OH225076   3.542   4.345   2.534
 8371TIP3    H125077   3.634   4.373   2.539
 8371TIP3    H225078   3.546   4.256   2.501
 8372TIP3   OH225079   0.672   5.600   2.080
 8372TIP3    H125080   0.679   5.662   2.007
 8372TIP3    H225081   0.726   5.638   2.149
 8373TIP3   OH225082   6.343   0.631   5.819
 8373TIP3    H125083   6.408   0.658   5.883
 8373TIP3    H225084   6.306   0.713   5.786
 8374TIP3   OH225085   4.799   4.021   2.023
 8374TIP3    H125086   4.736   3.970   2.075
 8374TIP3    H225087   4.750   4.098   1.996
 8375TIP3   OH225088   5.581   1.442   4.799
 8375TIP3    H125089   5.488   1.462   4.811
 8375TIP3    H225090   5.623   1.471   4.880
 8376TIP3   OH225091   0.475   3.241   5.861
 8376TIP3    H125092   0.418   3.285   5.798
 8376TIP3    H225093   0.459   3.148   5.847
 8377TIP3   OH225094   1.578   5.268   1.276
 8377TIP3    H125095   1.635   5.326   1.226
 8377TIP3    H225096   1.629   5.188   1.288
 8378TIP3   OH225097   0.129   5.967   1.877
 8378TIP3    H125098   0.222   5.973   1.854
 8378TIP3    H225099   0.102   6.058   1.892
 8379TIP3   OH225100   2.588   4.092   1.813
 8379TIP3    H125101   2.606   4.163   1.751
 8379TIP3    H225102   2.514   4.124   1.865
 8380TIP3   OH225103   1.949   0.387   4.989
 8380TIP3    H125104   1.879   0.330   5.019
 8380TIP3    H225105   1.908   0.445   4.925
 8381TIP3   OH225106   1.528   3.149   5.101
 8381TIP3    H125107   1.537   3.212   5.029
 8381TIP3    H225108   1.576   3.190   5.174
 8382TIP3   OH225109   3.455   2.973   0.634
 8382TIP3    H125110   3.364   2.954   0.612
 8382TIP3    H225111   3.479   3.045   0.576
 8383TIP3   OH225112   4.638   5.582   4.610
 8383TIP3    H125113   4.634   5.615   4.700
 8383TIP3    H225114   4.634   5.487   4.619
 8384TIP3   OH225115   0.777   2.535   0.551
 8384TIP3    H125116   0.685   2.550   0.529
 8384TIP3    H225117   0.774   2.481   0.630
 8385TIP3   OH225118   2.652   1.900   4.581
 8385TIP3    H125119   2.727   1.881   4.636
 8385TIP3    H225120   2.684   1.965   4.518
 8386TIP3   OH225121   7.224   2.201   4.366
 8386TIP3    H125122   7.129   2.194   4.351
 8386TIP3    H225123   7.233   2.213   4.460
 8387TIP3   OH225124   3.182   3.718   2.109
 8387TIP3    H125125   3.211   3.627   2.110
 8387TIP3    H225126   3.114   3.721   2.042
 8388TIP3   OH225127   5.061   3.933   0.025
 8388TIP3    H125128   5.132   3.948   0.088
 8388TIP3    H225129   5.026   4.020   0.007
 8389TIP3   OH225130   2.265   5.078   0.887
 8389TIP3    H125131   2.271   5.114   0.799
 8389TIP3    H225132   2.182   5.031   0.889
 8390TIP3   OH225133   4.205   3.854   3.401
 8390TIP3    H125134   4.168   3.936   3.368
 8390TIP3    H225135   4.176   3.851   3.492
 8391TIP3   OH225136   0.335   5.864   4.668
 8391TIP3    H125137   0.285   5.785   4.652
 8391TIP3    H225138   0.367   5.855   4.758
 8392TIP3   OH225139   4.256   2.105   0.163
 8392TIP3    H125140   4.304   2.163   0.105
 8392TIP3    H225141   4.171   2.093   0.121
 8393TIP3   OH225142   4.820   2.304   1.977
 8393TIP3    H125143   4.800   2.332   2.067
 8393TIP3    H225144   4.776   2.369   1.922
 8394TIP3   OH225145   3.634   6.128   3.674
 8394TIP3    H125146   3.669   6.044   3.701
 8394TIP3    H225147   3.619   6.176   3.756
 8395TIP3   OH225148   4.536   4.835   5.203
 8395TIP3    H125149   4.486   4.914   5.183
 8395TIP3    H225150   4.626   4.865   5.211
 8396TIP3   OH225151   2.796   3.779   2.760
 8396TIP3    H125152   2.863   3.745   2.701
 8396TIP3    H225153   2.832   3.861   2.792
 8397TIP3   OH225154   2.709   3.498   3.467
 8397TIP3    H125155   2.704   3.542   3.383
 8397TIP3    H225156   2.747   3.563   3.526
 8398TIP3   OH225157   4.571   4.414   5.486
 8398TIP3    H125158   4.624   4.392   5.563
 8398TIP3    H225159   4.615   4.490   5.447
 8399TIP3   OH225160   1.163   3.452   4.984
 8399TIP3    H125161   1.096   3.484   5.045
 8399TIP3    H225162   1.116   3.436   4.903
 8400TIP3   OH225163   5.433   3.747   4.469
 8400TIP3    H125164   5.518   3.704   4.459
 8400TIP3    H225165   5.374   3.678   4.498
 8401TIP3   OH225166   0.614   0.105   5.656
 8401TIP3    H125167   0.573   0.027   5.691
 8401TIP3    H225168   0.585   0.109   5.565
 8402TIP3   OH225169   5.817   4.185   4.064
 8402TIP3    H125170   5.748   4.251   4.060
 8402TIP3    H225171   5.814   4.141   3.979
 8403TIP3   OH225172   3.983   4.661   0.794
 8403TIP3    H125173   3.904   4.620   0.758
 8403TIP3    H225174   4.023   4.592   0.847
 8404TIP3   OH225175   5.892   4.379   4.867
 8404TIP3    H125176   5.913   4.462   4.824
 8404TIP3    H225177   5.921   4.312   4.806
 8405TIP3   OH225178   0.556   1.695   1.975
 8405TIP3    H125179   0.558   1.754   1.900
 8405TIP3    H225180   0.476   1.719   2.022
 8406TIP3   OH225181   6.178   6.157   5.524
 8406TIP3    H125182   6.268   6.127   5.513
 8406TIP3    H225183   6.125   6.079   5.514
 8407TIP3   OH225184   6.130   0.336   4.537
 8407TIP3    H125185   6.163   0.351   4.449
 8407TIP3    H225186   6.037   0.315   4.525
 8408TIP3   OH225187   2.360   6.078   3.777
 8408TIP3    H125188   2.371   5.998   3.725
 8408TIP3    H225189   2.449   6.111   3.790
 8409TIP3   OH225190   4.625   1.471   4.117
 8409TIP3    H125191   4.640   1.436   4.029
 8409TIP3    H225192   4.708   1.513   4.140
 8410TIP3   OH225193   4.693   3.696   0.516
 8410TIP3    H125194   4.733   3.676   0.601
 8410TIP3    H225195   4.703   3.790   0.505
 8411TIP3   OH225196   0.382   2.207   3.225
 8411TIP3    H125197   0.396   2.257   3.145
 8411TIP3    H225198   0.287   2.200   3.233
 8412TIP3   OH225199   0.591   2.976   1.187
 8412TIP3    H125200   0.584   3.069   1.209
 8412TIP3    H225201   0.613   2.933   1.270
 8413TIP3   OH225202   2.805   5.990   5.520
 8413TIP3    H125203   2.739   5.930   5.557
 8413TIP3    H225204   2.889   5.949   5.540
 8414TIP3   OH225205   2.083   6.377   2.398
 8414TIP3    H125206   2.173   6.345   2.405
 8414TIP3    H225207   2.090   6.471   2.417
 8415TIP3   OH225208   5.572   5.603   4.585
 8415TIP3    H125209   5.521   5.639   4.658
 8415TIP3    H225210   5.587   5.678   4.527
 8416TIP3   OH225211   6.624   1.377   1.513
 8416TIP3    H125212   6.588   1.300   1.470
 8416TIP3    H225213   6.711   1.350   1.541
 8417TIP3   OH225214   0.109   4.616   0.171
 8417TIP3    H125215   0.018   4.640   0.188
 8417TIP3    H225216   0.110   4.521   0.178
 8418TIP3   OH225217   0.767   0.593   5.498
 8418TIP3    H125218   0.786   0.589   5.404
 8418TIP3    H225219   0.788   0.505   5.530
 8419TIP3   OH225220   3.444   3.335   1.619
 8419TIP3    H125221   3.539   3.327   1.624
 8419TIP3    H225222   3.419   3.275   1.549
 8420TIP3   OH225223   1.911   1.468   1.262
 8420TIP3    H125224   2.004   1.452   1.249
 8420TIP3    H225225   1.901   1.563   1.253
 8421TIP3   OH225226   3.887   5.946   2.046
 8421TIP3    H125227   3.794   5.925   2.060
 8421TIP3    H225228   3.918   5.973   2.132
 8422TIP3   OH225229   3.211   0.364   0.312
 8422TIP3    H125230   3.180   0.350   0.402
 8422TIP3    H225231   3.262   0.445   0.317
 8423TIP3   OH225232   5.652   1.175   1.579
 8423TIP3    H125233   5.674   1.267   1.593
 8423TIP3    H225234   5.614   1.173   1.491
 8424TIP3   OH225235   3.388   6.704   2.748
 8424TIP3    H125236   3.404   6.677   2.657
 8424TIP3    H225237   3.341   6.631   2.787
 8425TIP3   OH225238   5.437   0.870   3.144
 8425TIP3    H125239   5.368   0.806   3.162
 8425TIP3    H225240   5.398   0.954   3.165
 8426TIP3   OH225241   5.071   1.464   2.604
 8426TIP3    H125242   5.004   1.397   2.592
 8426TIP3    H225243   5.132   1.451   2.530
 8427TIP3   OH225244   2.380   4.541   5.242
 8427TIP3    H125245   2.323   4.495   5.304
 8427TIP3    H225246   2.469   4.515   5.266
 8428TIP3   OH225247   4.545   1.536   1.002
 8428TIP3    H125248   4.576   1.589   0.929
 8428TIP3    H225249   4.625   1.513   1.050
 8429TIP3   OH225250   2.561   5.261   5.312
 8429TIP3    H125251   2.637   5.263   5.370
 8429TIP3    H225252   2.548   5.168   5.293
 8430TIP3   OH225253   4.685   1.586   1.776
 8430TIP3    H125254   4.768   1.604   1.732
 8430TIP3    H225255   4.639   1.527   1.717
 8431TIP3   OH225256   4.704   3.227   4.691
 8431TIP3    H125257   4.782   3.181   4.723
 8431TIP3    H225258   4.730   3.260   4.605
 8432TIP3   OH225259   2.743   4.755   0.413
 8432TIP3    H125260   2.821   4.706   0.388
 8432TIP3    H225261   2.758   4.782   0.503
 8433TIP3   OH225262   2.320   3.696   5.911
 8433TIP3    H125263   2.344   3.642   5.836
 8433TIP3    H225264   2.238   3.658   5.942
 8434TIP3   OH225265   2.623   6.579   3.425
 8434TIP3    H125266   2.571   6.613   3.352
 8434TIP3    H225267   2.711   6.567   3.388
 8435TIP3   OH225268   5.324   1.423   3.442
 8435TIP3    H125269   5.366   1.395   3.524
 8435TIP3    H225270   5.386   1.485   3.403
 8436TIP3   OH225271   0.187   0.345   1.603
 8436TIP3    H125272   0.136   0.415   1.561
 8436TIP3    H225273   0.124   0.301   1.659
 8437TIP3   OH225274   2.217   2.183   5.224
 8437TIP3    H125275   2.191   2.226   5.143
 8437TIP3    H225276   2.136   2.143   5.257
 8438TIP3   OH225277   5.140   3.537   1.071
 8438TIP3    H125278   5.171   3.494   0.992
 8438TIP3    H225279   5.045   3.531   1.066
 8439TIP3   OH225280   4.312   3.540   3.209
 8439TIP3    H125281   4.395   3.586   3.203
 8439TIP3    H225282   4.284   3.550   3.300
 8440TIP3   OH225283   0.846   6.494   3.826
 8440TIP3    H125284   0.843   6.590   3.825
 8440TIP3    H225285   0.819   6.468   3.738
 8441TIP3   OH225286   2.577   6.073   5.795
 8441TIP3    H125287   2.565   6.090   5.889
 8441TIP3    H225288   2.666   6.040   5.788
 8442TIP3   OH225289   4.002   4.608   4.779
 8442TIP3    H125290   3.988   4.614   4.685
 8442TIP3    H225291   3.916   4.628   4.818
 8443TIP3   OH225292   7.099   3.323   5.222
 8443TIP3    H125293   7.146   3.241   5.235
 8443TIP3    H225294   7.014   3.309   5.263
 8444TIP3   OH225295   1.162   0.563   3.599
 8444TIP3    H125296   1.118   0.509   3.533
 8444TIP3    H225297   1.141   0.522   3.682
 8445TIP3   OH225298   6.112   6.374   5.135
 8445TIP3    H125299   6.091   6.465   5.116
 8445TIP3    H225300   6.029   6.328   5.126
 8446TIP3   OH225301   0.289   5.315   4.239
 8446TIP3    H125302   0.351   5.266   4.292
 8446TIP3    H225303   0.264   5.389   4.294
 8447TIP3   OH225304   2.774   3.428   4.261
 8447TIP3    H125305   2.684   3.431   4.229
 8447TIP3    H225306   2.787   3.337   4.287
 8448TIP3   OH225307   4.880   0.792   3.501
 8448TIP3    H125308   4.963   0.832   3.475
 8448TIP3    H225309   4.904   0.704   3.530
 8449TIP3   OH225310   1.720   1.677   4.874
 8449TIP3    H125311   1.790   1.705   4.933
 8449TIP3    H225312   1.756   1.689   4.786
 8450TIP3   OH225313   6.489   4.274   2.851
 8450TIP3    H125314   6.536   4.197   2.881
 8450TIP3    H225315   6.433   4.299   2.925
 8451TIP3   OH225316   6.802   2.105   1.750
 8451TIP3    H125317   6.735   2.055   1.704
 8451TIP3    H225318   6.855   2.144   1.681
 8452TIP3   OH225319   2.493   5.874   3.313
 8452TIP3    H125320   2.552   5.819   3.262
 8452TIP3    H225321   2.542   5.896   3.392
 8453TIP3   OH225322   1.763   5.476   1.189
 8453TIP3    H125323   1.733   5.560   1.225
 8453TIP3    H225324   1.855   5.472   1.214
 8454TIP3   OH225325   3.682   5.554   4.680
 8454TIP3    H125326   3.751   5.613   4.709
 8454TIP3    H225327   3.661   5.501   4.757
 8455TIP3   OH225328   4.722   4.084   1.205
 8455TIP3    H125329   4.685   4.163   1.165
 8455TIP3    H225330   4.783   4.116   1.271
 8456TIP3   OH225331   1.061   5.623   5.090
 8456TIP3    H125332   1.096   5.691   5.147
 8456TIP3    H225333   1.048   5.547   5.148
 8457TIP3   OH225334   6.411   4.097   4.173
 8457TIP3    H125335   6.349   4.075   4.103
 8457TIP3    H225336   6.428   4.190   4.161
 8458TIP3   OH225337   6.954   4.175   1.768
 8458TIP3    H125338   6.974   4.248   1.826
 8458TIP3    H225339   6.976   4.208   1.680
 8459TIP3   OH225340   6.316   3.689   1.641
 8459TIP3    H125341   6.388   3.751   1.653
 8459TIP3    H225342   6.319   3.633   1.719
 8460TIP3   OH225343   1.175   6.490   0.643
 8460TIP3    H125344   1.269   6.500   0.655
 8460TIP3    H225345   1.164   6.470   0.550
 8461TIP3   OH225346   1.055   1.279   2.946
 8461TIP3    H125347   1.061   1.231   3.029
 8461TIP3    H225348   1.076   1.369   2.969
 8462TIP3   OH225349   1.329   3.423   1.455
 8462TIP3    H125350   1.411   3.382   1.483
 8462TIP3    H225351   1.305   3.376   1.375
 8463TIP3   OH225352   0.275   0.978   2.075
 8463TIP3    H125353   0.341   1.045   2.093
 8463TIP3    H225354   0.324   0.895   2.080
 8464TIP3   OH225355   2.872   0.256   0.932
 8464TIP3    H125356   2.835   0.271   0.846
 8464TIP3    H225357   2.817   0.187   0.970
 8465TIP3   OH225358   5.240   2.524   0.114
 8465TIP3    H125359   5.173   2.508   0.048
 8465TIP3    H225360   5.289   2.599   0.081
 8466TIP3   OH225361   3.302   3.171   4.525
 8466TIP3    H125362   3.207   3.159   4.527
 8466TIP3    H225363   3.330   3.126   4.445
 8467TIP3   OH225364   0.551   2.769   2.693
 8467TIP3    H125365   0.525   2.860   2.703
 8467TIP3    H225366   0.633   2.762   2.743
 8468TIP3   OH225367   6.219   3.974   5.089
 8468TIP3    H125368   6.171   3.924   5.023
 8468TIP3    H225369   6.164   4.051   5.106
 8469TIP3   OH225370   0.740   1.748   2.170
 8469TIP3    H125371   0.678   1.792   2.229
 8469TIP3    H225372   0.687   1.725   2.093
 8470TIP3   OH225373   2.631   3.592   2.451
 8470TIP3    H125374   2.560   3.581   2.514
 8470TIP3    H225375   2.635   3.687   2.437
 8471TIP3   OH225376   2.711   3.635   3.234
 8471TIP3    H125377   2.748   3.722   3.216
 8471TIP3    H225378   2.715   3.589   3.151
 8472TIP3   OH225379   3.759   4.861   2.908
 8472TIP3    H125380   3.776   4.922   2.837
 8472TIP3    H225381   3.799   4.902   2.985
 8473TIP3   OH225382   0.585   5.455   4.128
 8473TIP3    H125383   0.588   5.444   4.223
 8473TIP3    H225384   0.499   5.493   4.110
 8474TIP3   OH225385   7.056   4.272   1.504
 8474TIP3    H125386   7.115   4.208   1.464
 8474TIP3    H225387   7.026   4.326   1.431
 8475TIP3   OH225388   5.369   2.047   3.794
 8475TIP3    H125389   5.388   2.120   3.734
 8475TIP3    H225390   5.276   2.028   3.780
 8476TIP3   OH225391   4.470   6.728   4.264
 8476TIP3    H125392   4.446   6.693   4.350
 8476TIP3    H225393   4.386   6.743   4.220
 8477TIP3   OH225394   2.041   2.215   1.404
 8477TIP3    H125395   2.001   2.142   1.357
 8477TIP3    H225396   2.123   2.179   1.440
 8478TIP3   OH225397   3.714   0.916   0.900
 8478TIP3    H125398   3.660   0.973   0.845
 8478TIP3    H225399   3.786   0.971   0.929
 8479TIP3   OH225400   1.710   5.686   5.356
 8479TIP3    H125401   1.662   5.678   5.273
 8479TIP3    H225402   1.753   5.771   5.351
 8480TIP3   OH225403   0.291   3.264   0.879
 8480TIP3    H125404   0.214   3.281   0.825
 8480TIP3    H225405   0.340   3.197   0.831
 8481TIP3   OH225406   3.246   3.200   5.067
 8481TIP3    H125407   3.150   3.200   5.069
 8481TIP3    H225408   3.269   3.110   5.044
 8482TIP3   OH225409   1.996   5.135   3.346
 8482TIP3    H125410   2.014   5.206   3.407
 8482TIP3    H225411   1.911   5.157   3.308
 8483TIP3   OH225412   5.074   6.069   0.930
 8483TIP3    H125413   5.035   5.983   0.920
 8483TIP3    H225414   5.152   6.054   0.983
 8484TIP3   OH225415   0.529   4.816   3.826
 8484TIP3    H125416   0.535   4.726   3.857
 8484TIP3    H225417   0.477   4.810   3.745
 8485TIP3   OH225418   1.344   6.260   0.232
 8485TIP3    H125419   1.349   6.192   0.300
 8485TIP3    H225420   1.426   6.308   0.242
 8486TIP3   OH225421   6.081   4.013   2.688
 8486TIP3    H125422   6.132   3.934   2.702
 8486TIP3    H225423   6.053   4.039   2.776
 8487TIP3   OH225424   3.368   0.083   3.489
 8487TIP3    H125425   3.274   0.073   3.501
 8487TIP3    H225426   3.378   0.107   3.397
 8488TIP3   OH225427   2.169   4.256   1.505
 8488TIP3    H125428   2.198   4.182   1.558
 8488TIP3    H225429   2.240   4.271   1.443
 8489TIP3   OH225430   3.230   0.987   2.531
 8489TIP3    H125431   3.265   0.993   2.442
 8489TIP3    H225432   3.156   0.927   2.523
 8490TIP3   OH225433   5.799   6.094   2.113
 8490TIP3    H125434   5.704   6.098   2.097
 8490TIP3    H225435   5.822   6.002   2.099
 8491TIP3   OH225436   5.539   2.438   4.169
 8491TIP3    H125437   5.496   2.353   4.182
 8491TIP3    H225438   5.625   2.416   4.133
 8492TIP3   OH225439   5.449   1.171   5.672
 8492TIP3    H125440   5.503   1.234   5.719
 8492TIP3    H225441   5.509   1.130   5.610
 8493TIP3   OH225442   4.692   1.543   5.618
 8493TIP3    H125443   4.638   1.622   5.626
 8493TIP3    H225444   4.638   1.482   5.569
 8494TIP3   OH225445   5.647   2.023   1.984
 8494TIP3    H125446   5.688   2.096   2.032
 8494TIP3    H225447   5.556   2.023   2.013
 8495TIP3   OH225448   4.071   0.707   3.053
 8495TIP3    H125449   4.166   0.707   3.057
 8495TIP3    H225450   4.045   0.630   3.105
 8496TIP3   OH225451   3.484   4.350   4.399
 8496TIP3    H125452   3.431   4.296   4.340
 8496TIP3    H225453   3.566   4.302   4.409
 8497TIP3   OH225454   2.599   1.339   1.369
 8497TIP3    H125455   2.686   1.351   1.330
 8497TIP3    H225456   2.538   1.369   1.302
 8498TIP3   OH225457   5.318   4.703   0.860
 8498TIP3    H125458   5.381   4.662   0.800
 8498TIP3    H225459   5.232   4.680   0.824
 8499TIP3   OH225460   2.331   5.345   0.082
 8499TIP3    H125461   2.415   5.319   0.044
 8499TIP3    H225462   2.299   5.266   0.127
 8500TIP3   OH225463   4.307   3.725   2.965
 8500TIP3    H125464   4.273   3.659   3.024
 8500TIP3    H225465   4.399   3.734   2.990
 8501TIP3   OH225466   0.528   4.276   5.178
 8501TIP3    H125467   0.509   4.195   5.224
 8501TIP3    H225468   0.450   4.291   5.124
 8502TIP3   OH225469   4.156   2.444   1.696
 8502TIP3    H125470   4.212   2.517   1.673
 8502TIP3    H225471   4.068   2.481   1.702
 8503TIP3   OH225472   4.269   0.171   1.387
 8503TIP3    H125473   4.359   0.147   1.367
 8503TIP3    H225474   4.224   0.169   1.303
 8504TIP3   OH225475   3.778   1.622   5.658
 8504TIP3    H125476   3.706   1.613   5.596
 8504TIP3    H225477   3.833   1.691   5.622
 8505TIP3   OH225478   5.346   6.629   5.721
 8505TIP3    H125479   5.379   6.541   5.703
 8505TIP3    H225480   5.253   6.617   5.735
 8506TIP3   OH225481   3.281   4.976   3.996
 8506TIP3    H125482   3.239   4.954   3.913
 8506TIP3    H225483   3.221   5.037   4.038
 8507TIP3   OH225484   3.839   6.012   4.666
 8507TIP3    H125485   3.916   5.975   4.709
 8507TIP3    H225486   3.830   6.100   4.704
 8508TIP3   OH225487   2.396   0.990   2.774
 8508TIP3    H125488   2.339   0.926   2.732
 8508TIP3    H225489   2.476   0.941   2.795
 8509TIP3   OH225490   5.818   4.983   5.543
 8509TIP3    H125491   5.724   4.977   5.562
 8509TIP3    H225492   5.856   4.907   5.586
 8510TIP3   OH225493   0.160   2.009   4.239
 8510TIP3    H125494   0.119   2.094   4.258
 8510TIP3    H225495   0.088   1.946   4.246
 8511TIP3   OH225496   6.075   5.070   1.824
 8511TIP3    H125497   6.020   4.993   1.811
 8511TIP3    H225498   6.054   5.128   1.750
 8512TIP3   OH225499   6.601   2.388   5.737
 8512TIP3    H125500   6.597   2.348   5.650
 8512TIP3    H225501   6.537   2.459   5.734
 8513TIP3   OH225502   0.706   3.224   5.615
 8513TIP3    H125503   0.621   3.264   5.597
 8513TIP3    H225504   0.716   3.158   5.547
 8514TIP3   OH225505   0.831   3.953   1.424
 8514TIP3    H125506   0.842   3.909   1.340
 8514TIP3    H225507   0.791   4.037   1.402
 8515TIP3   OH225508   0.315   1.413   1.325
 8515TIP3    H125509   0.265   1.353   1.380
 8515TIP3    H225510   0.378   1.357   1.280
 8516TIP3   OH225511   5.743   6.355   3.345
 8516TIP3    H125512   5.700   6.425   3.393
 8516TIP3    H225513   5.805   6.400   3.287
 8517TIP3   OH225514   4.802   4.533   0.951
 8517TIP3    H125515   4.865   4.599   0.981
 8517TIP3    H225516   4.723   4.583   0.931
 8518TIP3   OH225517   0.734   3.308   2.274
 8518TIP3    H125518   0.690   3.225   2.253
 8518TIP3    H225519   0.690   3.373   2.219
 8519TIP3   OH225520   5.234   3.760   3.541
 8519TIP3    H125521   5.171   3.731   3.475
 8519TIP3    H225522   5.200   3.723   3.623
 8520TIP3   OH225523   1.669   5.560   4.316
 8520TIP3    H125524   1.594   5.609   4.283
 8520TIP3    H225525   1.723   5.625   4.360
 8521TIP3   OH225526   1.869   0.426   2.712
 8521TIP3    H125527   1.855   0.389   2.625
 8521TIP3    H225528   1.911   0.510   2.696
 8522TIP3   OH225529   1.962   1.537   2.504
 8522TIP3    H125530   1.947   1.522   2.410
 8522TIP3    H225531   1.886   1.497   2.547
 8523TIP3   OH225532   0.258   2.938   4.018
 8523TIP3    H125533   0.288   2.858   3.976
 8523TIP3    H225534   0.274   3.007   3.954
 8524TIP3   OH225535   7.118   6.510   1.773
 8524TIP3    H125536   7.055   6.552   1.714
 8524TIP3    H225537   7.064   6.454   1.829
 8525TIP3   OH225538   2.202   3.053   3.267
 8525TIP3    H125539   2.235   3.141   3.284
 8525TIP3    H225540   2.107   3.061   3.273
 8526TIP3   OH225541   0.702   4.406   3.145
 8526TIP3    H125542   0.672   4.320   3.177
 8526TIP3    H225543   0.701   4.462   3.222
 8527TIP3   OH225544   3.404   1.770   2.772
 8527TIP3    H125545   3.389   1.784   2.866
 8527TIP3    H225546   3.469   1.700   2.768
 8528TIP3   OH225547   0.338   0.281   4.285
 8528TIP3    H125548   0.324   0.212   4.350
 8528TIP3    H225549   0.312   0.241   4.201
 8529TIP3   OH225550   3.702   0.340   3.948
 8529TIP3    H125551   3.613   0.356   3.980
 8529TIP3    H225552   3.691   0.311   3.858
 8530TIP3   OH225553   0.092   1.172   5.133
 8530TIP3    H125554   0.148   1.144   5.205
 8530TIP3    H225555   0.151   1.215   5.071
 8531TIP3   OH225556   2.552   0.749   1.728
 8531TIP3    H125557   2.511   0.702   1.656
 8531TIP3    H225558   2.487   0.814   1.755
 8532TIP3   OH225559   1.182   2.896   1.170
 8532TIP3    H125560   1.107   2.880   1.226
 8532TIP3    H225561   1.250   2.837   1.202
 8533TIP3   OH225562   4.808   5.998   5.313
 8533TIP3    H125563   4.804   5.917   5.365
 8533TIP3    H225564   4.862   6.057   5.366
 8534TIP3   OH225565   2.664   6.128   2.324
 8534TIP3    H125566   2.601   6.062   2.353
 8534TIP3    H225567   2.749   6.097   2.357
 8535TIP3   OH225568   0.871   3.646   5.885
 8535TIP3    H125569   0.900   3.586   5.817
 8535TIP3    H225570   0.793   3.606   5.921
 8536TIP3   OH225571   0.938   2.489   5.095
 8536TIP3    H125572   0.934   2.572   5.143
 8536TIP3    H225573   0.954   2.423   5.163
 8537TIP3   OH225574   3.003   1.951   3.692
 8537TIP3    H125575   2.986   1.856   3.695
 8537TIP3    H225576   3.051   1.969   3.773
 8538TIP3   OH225577   6.191   1.896   4.740
 8538TIP3    H125578   6.192   1.806   4.710
 8538TIP3    H225579   6.164   1.891   4.832
 8539TIP3   OH225580   1.499   4.948   2.087
 8539TIP3    H125581   1.407   4.959   2.107
 8539TIP3    H225582   1.529   4.881   2.148
 8540TIP3   OH225583   1.422   1.742   3.723
 8540TIP3    H125584   1.480   1.796   3.776
 8540TIP3    H225585   1.454   1.753   3.633
 8541TIP3   OH225586   5.585   3.836   0.372
 8541TIP3    H125587   5.547   3.782   0.303
 8541TIP3    H225588   5.634   3.775   0.427
 8542TIP3   OH225589   2.310   6.161   2.313
 8542TIP3    H125590   2.326   6.215   2.235
 8542TIP3    H225591   2.368   6.086   2.302
 8543TIP3   OH225592   5.501   0.918   3.529
 8543TIP3    H125593   5.523   1.012   3.528
 8543TIP3    H225594   5.430   0.911   3.592
 8544TIP3   OH225595   2.922   6.525   5.866
 8544TIP3    H125596   2.979   6.560   5.934
 8544TIP3    H225597   2.887   6.602   5.822
 8545TIP3   OH225598   4.935   2.493   3.617
 8545TIP3    H125599   4.920   2.416   3.562
 8545TIP3    H225600   4.987   2.459   3.690
 8546TIP3   OH225601   2.889   3.270   3.223
 8546TIP3    H125602   2.952   3.246   3.155
 8546TIP3    H225603   2.915   3.358   3.249
 8547TIP3   OH225604   3.642   6.684   2.988
 8547TIP3    H125605   3.571   6.630   3.022
 8547TIP3    H225606   3.600   6.765   2.960
 8548TIP3   OH225607   6.330   3.353   5.141
 8548TIP3    H125608   6.301   3.443   5.127
 8548TIP3    H225609   6.258   3.300   5.106
 8549TIP3   OH225610   5.918   5.580   3.069
 8549TIP3    H125611   5.967   5.546   2.994
 8549TIP3    H225612   5.879   5.661   3.037
 8550TIP3   OH225613   4.738   3.753   4.439
 8550TIP3    H125614   4.777   3.694   4.503
 8550TIP3    H225615   4.660   3.708   4.408
 8551TIP3   OH225616   3.619   3.453   3.191
 8551TIP3    H125617   3.712   3.463   3.170
 8551TIP3    H225618   3.573   3.493   3.117
 8552TIP3   OH225619   3.677   0.066   2.181
 8552TIP3    H125620   3.605   0.098   2.125
 8552TIP3    H225621   3.739   0.138   2.183
 8553TIP3   OH225622   0.420   4.641   5.447
 8553TIP3    H125623   0.376   4.689   5.378
 8553TIP3    H225624   0.359   4.572   5.472
 8554TIP3   OH225625   6.143   0.753   2.960
 8554TIP3    H125626   6.158   0.659   2.973
 8554TIP3    H225627   6.080   0.777   3.028
 8555TIP3   OH225628   6.159   5.338   1.982
 8555TIP3    H125629   6.163   5.256   1.934
 8555TIP3    H225630   6.091   5.389   1.936
 8556TIP3   OH225631   3.843   2.918   2.119
 8556TIP3    H125632   3.846   2.827   2.147
 8556TIP3    H225633   3.928   2.954   2.143
 8557TIP3   OH225634   5.140   4.411   5.356
 8557TIP3    H125635   5.153   4.348   5.427
 8557TIP3    H225636   5.069   4.374   5.304
 8558TIP3   OH225637   7.101   2.457   1.566
 8558TIP3    H125638   7.168   2.405   1.612
 8558TIP3    H225639   7.021   2.406   1.576
 8559TIP3   OH225640   6.391   0.409   3.447
 8559TIP3    H125641   6.402   0.317   3.420
 8559TIP3    H225642   6.405   0.459   3.367
 8560TIP3   OH225643   5.402   5.202   4.975
 8560TIP3    H125644   5.344   5.143   4.928
 8560TIP3    H225645   5.356   5.222   5.057
 8561TIP3   OH225646   3.207   4.636   2.663
 8561TIP3    H125647   3.273   4.567   2.663
 8561TIP3    H225648   3.250   4.711   2.704
 8562TIP3   OH225649   3.572   5.948   1.736
 8562TIP3    H125650   3.512   5.873   1.734
 8562TIP3    H225651   3.574   5.976   1.828
 8563TIP3   OH225652   1.936   0.189   4.316
 8563TIP3    H125653   1.868   0.185   4.383
 8563TIP3    H225654   2.017   0.200   4.365
 8564TIP3   OH225655   3.499   3.520   2.467
 8564TIP3    H125656   3.577   3.566   2.500
 8564TIP3    H225657   3.485   3.556   2.379
 8565TIP3   OH225658   4.960   4.168   4.463
 8565TIP3    H125659   4.935   4.092   4.409
 8565TIP3    H225660   5.019   4.218   4.407
 8566TIP3   OH225661   3.356   4.477   2.342
 8566TIP3    H125662   3.373   4.419   2.267
 8566TIP3    H225663   3.431   4.462   2.400
 8567TIP3   OH225664   1.409   1.170   3.099
 8567TIP3    H125665   1.486   1.115   3.111
 8567TIP3    H225666   1.401   1.180   3.004
 8568TIP3   OH225667   1.121   4.274   2.035
 8568TIP3    H125668   1.089   4.216   1.966
 8568TIP3    H225669   1.092   4.233   2.117
 8569TIP3   OH225670   1.745   2.356   5.234
 8569TIP3    H125671   1.652   2.359   5.256
 8569TIP3    H225672   1.785   2.425   5.287
 8570TIP3   OH225673   5.437   5.611   1.307
 8570TIP3    H125674   5.507   5.664   1.346
 8570TIP3    H225675   5.414   5.658   1.227
 8571TIP3   OH225676   0.820   5.811   0.361
 8571TIP3    H125677   0.735   5.802   0.404
 8571TIP3    H225678   0.805   5.785   0.270
 8572TIP3   OH225679   5.593   1.719   5.034
 8572TIP3    H125680   5.655   1.729   4.962
 8572TIP3    H225681   5.539   1.797   5.030
 8573TIP3   OH225682   1.552   1.125   0.605
 8573TIP3    H125683   1.588   1.039   0.626
 8573TIP3    H225684   1.466   1.126   0.646
 8574TIP3   OH225685   2.643   1.077   5.037
 8574TIP3    H125686   2.586   1.121   5.100
 8574TIP3    H225687   2.727   1.121   5.046
 8575TIP3   OH225688   2.271   0.394   2.595
 8575TIP3    H125689   2.251   0.435   2.679
 8575TIP3    H225690   2.363   0.415   2.580
 8576TIP3   OH225691   0.523   2.890   3.610
 8576TIP3    H125692   0.574   2.880   3.691
 8576TIP3    H225693   0.541   2.979   3.580
 8577TIP3   OH225694   1.804   6.006   5.756
 8577TIP3    H125695   1.741   6.037   5.690
 8577TIP3    H225696   1.835   5.922   5.722
 8578TIP3   OH225697   5.642   5.320   0.976
 8578TIP3    H125698   5.735   5.326   0.998
 8578TIP3    H225699   5.596   5.334   1.059
 8579TIP3   OH225700   0.354   4.237   2.494
 8579TIP3    H125701   0.284   4.268   2.551
 8579TIP3    H225702   0.429   4.224   2.554
 8580TIP3   OH225703   5.049   2.485   1.620
 8580TIP3    H125704   5.089   2.399   1.615
 8580TIP3    H225705   4.966   2.477   1.573
 8581TIP3   OH225706   4.550   5.835   4.507
 8581TIP3    H125707   4.603   5.756   4.518
 8581TIP3    H225708   4.605   5.893   4.454
 8582TIP3   OH225709   0.895   6.114   4.216
 8582TIP3    H125710   0.814   6.078   4.179
 8582TIP3    H225711   0.897   6.205   4.186
 8583TIP3   OH225712   4.333   6.447   5.730
 8583TIP3    H125713   4.336   6.372   5.789
 8583TIP3    H225714   4.254   6.495   5.756
 8584TIP3   OH225715   0.215   5.503   2.304
 8584TIP3    H125716   0.292   5.518   2.248
 8584TIP3    H225717   0.221   5.410   2.329
 8585TIP3   OH225718   3.767   4.375   2.276
 8585TIP3    H125719   3.815   4.437   2.330
 8585TIP3    H225720   3.833   4.312   2.247
 8586TIP3   OH225721   5.714   6.415   5.594
 8586TIP3    H125722   5.801   6.437   5.626
 8586TIP3    H225723   5.730   6.364   5.514
 8587TIP3   OH225724   2.429   2.725   3.056
 8587TIP3    H125725   2.430   2.771   3.140
 8587TIP3    H225726   2.362   2.769   3.004
 8588TIP3   OH225727   2.383   4.522   1.506
 8588TIP3    H125728   2.474   4.545   1.526
 8588TIP3    H225729   2.339   4.606   1.496
 8589TIP3   OH225730   5.727   3.207   0.270
 8589TIP3    H125731   5.742   3.140   0.203
 8589TIP3    H225732   5.657   3.261   0.233
 8590TIP3   OH225733   5.487   1.658   4.353
 8590TIP3    H125734   5.509   1.639   4.444
 8590TIP3    H225735   5.567   1.696   4.317
 8591TIP3   OH225736   2.172   2.123   0.638
 8591TIP3    H125737   2.117   2.079   0.573
 8591TIP3    H225738   2.121   2.119   0.719
 8592TIP3   OH225739   6.318   4.723   1.290
 8592TIP3    H125740   6.278   4.653   1.239
 8592TIP3    H225741   6.370   4.678   1.356
 8593TIP3   OH225742   4.726   1.265   3.768
 8593TIP3    H125743   4.789   1.288   3.835
 8593TIP3    H225744   4.644   1.250   3.816
 8594TIP3   OH225745   1.112   3.251   0.505
 8594TIP3    H125746   1.043   3.312   0.478
 8594TIP3    H225747   1.077   3.164   0.484
 8595TIP3   OH225748   5.968   5.968   3.221
 8595TIP3    H125749   5.967   5.886   3.271
 8595TIP3    H225750   6.060   5.996   3.222
 8596TIP3   OH225751   5.266   5.267   5.280
 8596TIP3    H125752   5.283   5.354   5.316
 8596TIP3    H225753   5.303   5.207   5.344
 8597TIP3   OH225754   0.413   3.835   5.495
 8597TIP3    H125755   0.336   3.807   5.544
 8597TIP3    H225756   0.425   3.767   5.428
 8598TIP3   OH225757   1.326   4.754   2.842
 8598TIP3    H125758   1.415   4.783   2.824
 8598TIP3    H225759   1.333   4.659   2.853
 8599TIP3   OH225760   3.204   5.441   2.363
 8599TIP3    H125761   3.229   5.500   2.434
 8599TIP3    H225762   3.147   5.494   2.307
 8600TIP3   OH225763   0.364   2.998   5.609
 8600TIP3    H125764   0.284   2.968   5.564
 8600TIP3    H225765   0.346   2.985   5.702
 8601TIP3   OH225766   2.998   1.270   1.592
 8601TIP3    H125767   3.078   1.295   1.638
 8601TIP3    H225768   2.937   1.343   1.608
 8602TIP3   OH225769   5.416   2.510   4.792
 8602TIP3    H125770   5.470   2.437   4.762
 8602TIP3    H225771   5.327   2.485   4.768
 8603TIP3   OH225772   1.051   5.784   5.781
 8603TIP3    H125773   1.048   5.760   5.873
 8603TIP3    H225774   0.970   5.750   5.744
 8604TIP3   OH225775   1.078   1.258   1.917
 8604TIP3    H125776   1.065   1.205   1.995
 8604TIP3    H225777   1.047   1.345   1.942
 8605TIP3   OH225778   6.170   5.847   5.592
 8605TIP3    H125779   6.224   5.788   5.540
 8605TIP3    H225780   6.198   5.834   5.682
 8606TIP3   OH225781   3.332   0.163   5.021
 8606TIP3    H125782   3.309   0.074   5.049
 8606TIP3    H225783   3.339   0.156   4.926
 8607TIP3   OH225784   2.937   6.044   4.569
 8607TIP3    H125785   2.881   5.966   4.577
 8607TIP3    H225786   2.989   6.045   4.649
 8608TIP3   OH225787   2.686   1.105   3.813
 8608TIP3    H125788   2.716   1.129   3.725
 8608TIP3    H225789   2.765   1.080   3.860
 8609TIP3   OH225790   4.606   5.368   1.397
 8609TIP3    H125791   4.640   5.323   1.320
 8609TIP3    H225792   4.684   5.385   1.451
 8610TIP3   OH225793   0.208   5.924   1.557
 8610TIP3    H125794   0.168   5.872   1.626
 8610TIP3    H225795   0.202   5.869   1.478
 8611TIP3   OH225796   4.479   6.080   4.644
 8611TIP3    H125797   4.481   6.001   4.591
 8611TIP3    H225798   4.454   6.149   4.583
 8612TIP3   OH225799   5.876   5.373   5.062
 8612TIP3    H125800   5.786   5.341   5.060
 8612TIP3    H225801   5.887   5.410   5.149
 8613TIP3   OH225802   3.428   4.798   3.505
 8613TIP3    H125803   3.432   4.890   3.477
 8613TIP3    H225804   3.459   4.748   3.430
 8614TIP3   OH225805   4.889   2.287   3.428
 8614TIP3    H125806   4.948   2.252   3.362
 8614TIP3    H225807   4.873   2.214   3.488
 8615TIP3   OH225808   6.143   0.250   0.687
 8615TIP3    H125809   6.128   0.168   0.640
 8615TIP3    H225810   6.148   0.225   0.779
 8616TIP3   OH225811   3.263   4.123   5.589
 8616TIP3    H125812   3.339   4.143   5.534
 8616TIP3    H225813   3.201   4.193   5.570
 8617TIP3   OH225814   5.431   2.612   5.711
 8617TIP3    H125815   5.509   2.637   5.762
 8617TIP3    H225816   5.432   2.517   5.712
 8618TIP3   OH225817   2.446   4.762   1.726
 8618TIP3    H125818   2.531   4.730   1.754
 8618TIP3    H225819   2.405   4.793   1.806
 8619TIP3   OH225820   4.153   0.653   1.184
 8619TIP3    H125821   4.125   0.583   1.126
 8619TIP3    H225822   4.216   0.703   1.132
 8620TIP3   OH225823   5.545   3.526   2.106
 8620TIP3    H125824   5.606   3.575   2.051
 8620TIP3    H225825   5.495   3.472   2.045
 8621TIP3   OH225826   2.422   3.807   1.968
 8621TIP3    H125827   2.350   3.744   1.970
 8621TIP3    H225828   2.490   3.768   2.022
 8622TIP3   OH225829   5.455   2.162   4.212
 8622TIP3    H125830   5.515   2.132   4.281
 8622TIP3    H225831   5.405   2.083   4.188
 8623TIP3   OH225832   4.769   0.283   1.802
 8623TIP3    H125833   4.716   0.221   1.752
 8623TIP3    H225834   4.749   0.368   1.763
 8624TIP3   OH225835   6.481   5.871   2.332
 8624TIP3    H125836   6.394   5.838   2.356
 8624TIP3    H225837   6.490   5.953   2.381
 8625TIP3   OH225838   6.712   2.086   2.785
 8625TIP3    H125839   6.722   2.179   2.808
 8625TIP3    H225840   6.643   2.055   2.843
 8626TIP3   OH225841   1.067   0.736   4.547
 8626TIP3    H125842   1.035   0.647   4.558
 8626TIP3    H225843   1.009   0.790   4.600
 8627TIP3   OH225844   0.243   0.664   2.351
 8627TIP3    H125845   0.259   0.663   2.257
 8627TIP3    H225846   0.148   0.661   2.359
 8628TIP3   OH225847   5.867   1.662   4.886
 8628TIP3    H125848   5.870   1.609   4.807
 8628TIP3    H225849   5.878   1.752   4.856
 8629TIP3   OH225850   3.190   5.600   1.983
 8629TIP3    H125851   3.246   5.541   2.034
 8629TIP3    H225852   3.149   5.544   1.917
 8630TIP3   OH225853   6.607   6.570   3.770
 8630TIP3    H125854   6.594   6.664   3.755
 8630TIP3    H225855   6.579   6.557   3.861
 8631TIP3   OH225856   4.803   1.911   5.583
 8631TIP3    H125857   4.830   1.974   5.516
 8631TIP3    H225858   4.707   1.912   5.579
 8632TIP3   OH225859   4.852   5.854   4.607
 8632TIP3    H125860   4.878   5.787   4.669
 8632TIP3    H225861   4.869   5.937   4.652
 8633TIP3   OH225862   2.206   3.571   3.828
 8633TIP3    H125863   2.272   3.509   3.798
 8633TIP3    H225864   2.164   3.528   3.902
 8634TIP3   OH225865   2.716   4.143   4.711
 8634TIP3    H125866   2.763   4.076   4.761
 8634TIP3    H225867   2.624   4.129   4.733
 8635TIP3   OH225868   2.654   0.773   0.491
 8635TIP3    H125869   2.725   0.710   0.506
 8635TIP3    H225870   2.672   0.809   0.404
 8636TIP3   OH225871   0.104   2.914   3.774
 8636TIP3    H125872   0.099   2.834   3.721
 8636TIP3    H225873   0.053   2.894   3.852
 8637TIP3   OH225874   5.887   5.517   4.198
 8637TIP3    H125875   5.939   5.589   4.233
 8637TIP3    H225876   5.816   5.559   4.149
 8638TIP3   OH225877   1.002   2.456   4.411
 8638TIP3    H125878   0.954   2.382   4.376
 8638TIP3    H225879   0.991   2.449   4.506
 8639TIP3   OH225880   0.507   5.139   0.821
 8639TIP3    H125881   0.597   5.142   0.853
 8639TIP3    H225882   0.484   5.046   0.819
 8640TIP3   OH225883   0.260   4.212   3.380
 8640TIP3    H125884   0.334   4.268   3.356
 8640TIP3    H225885   0.245   4.157   3.304
 8641TIP3   OH225886   4.405   1.417   5.534
 8641TIP3    H125887   4.330   1.473   5.511
 8641TIP3    H225888   4.374   1.366   5.609
 8642TIP3   OH225889   6.058   6.108   1.264
 8642TIP3    H125890   6.071   6.203   1.263
 8642TIP3    H225891   6.032   6.088   1.354
 8643TIP3   OH225892   4.196   3.127   3.197
 8643TIP3    H125893   4.123   3.085   3.243
 8643TIP3    H225894   4.248   3.166   3.267
 8644TIP3   OH225895   4.204   3.240   4.015
 8644TIP3    H125896   4.297   3.245   4.037
 8644TIP3    H225897   4.175   3.158   4.055
 8645TIP3   OH225898   2.555   6.094   3.086
 8645TIP3    H125899   2.566   6.182   3.123
 8645TIP3    H225900   2.530   6.040   3.161
 8646TIP3   OH225901   5.993   0.965   5.796
 8646TIP3    H125902   6.041   0.888   5.765
 8646TIP3    H225903   5.901   0.946   5.775
 8647TIP3   OH225904   4.248   5.511   0.272
 8647TIP3    H125905   4.160   5.538   0.248
 8647TIP3    H225906   4.238   5.422   0.306
 8648TIP3   OH225907   6.903   5.796   5.113
 8648TIP3    H125908   6.828   5.757   5.068
 8648TIP3    H225909   6.955   5.836   5.043
 8649TIP3   OH225910   1.997   4.804   1.354
 8649TIP3    H125911   1.913   4.843   1.330
 8649TIP3    H225912   1.991   4.791   1.448
 8650TIP3   OH225913   2.380   6.375   0.007
 8650TIP3    H125914   2.433   6.318  -0.049
 8650TIP3    H225915   2.444   6.417   0.065
 8651TIP3   OH225916   5.717   2.802   2.387
 8651TIP3    H125917   5.776   2.846   2.448
 8651TIP3    H225918   5.769   2.730   2.351
 8652TIP3   OH225919   5.918   2.098   4.029
 8652TIP3    H125920   5.970   2.019   4.046
 8652TIP3    H225921   5.970   2.148   3.966
 8653TIP3   OH225922   5.097   2.580   0.343
 8653TIP3    H125923   5.158   2.568   0.270
 8653TIP3    H225924   5.021   2.623   0.304
 8654TIP3   OH225925   4.347   5.460   4.431
 8654TIP3    H125926   4.324   5.374   4.396
 8654TIP3    H225927   4.393   5.442   4.513
 8655TIP3   OH225928   2.131   4.534   0.544
 8655TIP3    H125929   2.164   4.470   0.480
 8655TIP3    H225930   2.149   4.619   0.504
 8656TIP3   OH225931   6.894   3.200   2.958
 8656TIP3    H125932   6.870   3.265   3.024
 8656TIP3    H225933   6.840   3.124   2.978
 8657TIP3   OH225934   0.099   6.225   1.980
 8657TIP3    H125935   0.147   6.303   2.006
 8657TIP3    H225936   0.014   6.233   2.025
 8658TIP3   OH225937   2.219   1.984   0.084
 8658TIP3    H125938   2.220   1.970  -0.010
 8658TIP3    H225939   2.183   2.072   0.094
 8659TIP3   OH225940   1.435   5.382   1.865
 8659TIP3    H125941   1.376   5.398   1.791
 8659TIP3    H225942   1.444   5.468   1.907
 8660TIP3   OH225943   0.726   1.967   4.830
 8660TIP3    H125944   0.800   2.020   4.859
 8660TIP3    H225945   0.661   1.975   4.900
 8661TIP3   OH225946   2.550   6.716   3.944
 8661TIP3    H125947   2.471   6.771   3.942
 8661TIP3    H225948   2.554   6.676   3.858
 8662TIP3   OH225949   0.447   5.514   5.021
 8662TIP3    H125950   0.448   5.576   4.948
 8662TIP3    H225951   0.402   5.561   5.092
 8663TIP3   OH225952   3.923   2.608   3.001
 8663TIP3    H125953   3.987   2.552   2.957
 8663TIP3    H225954   3.970   2.645   3.075
 8664TIP3   OH225955   0.004   3.527   1.105
 8664TIP3    H125956  -0.048   3.446   1.110
 8664TIP3    H225957   0.094   3.496   1.096
 8665TIP3   OH225958   2.755   2.773   1.898
 8665TIP3    H125959   2.787   2.843   1.840
 8665TIP3    H225960   2.685   2.814   1.948
 8666TIP3   OH225961   1.877   2.023   4.522
 8666TIP3    H125962   1.922   2.074   4.454
 8666TIP3    H225963   1.808   2.081   4.554
 8667TIP3   OH225964   4.689   6.271   1.199
 8667TIP3    H125965   4.626   6.312   1.259
 8667TIP3    H225966   4.679   6.320   1.117
 8668TIP3   OH225967   6.165   4.013   2.982
 8668TIP3    H125968   6.107   3.949   3.024
 8668TIP3    H225969   6.249   3.967   2.974
 8669TIP3   OH225970   5.654   5.233   5.087
 8669TIP3    H125971   5.576   5.205   5.039
 8669TIP3    H225972   5.658   5.176   5.163
 8670TIP3   OH225973   6.007   2.098   0.295
 8670TIP3    H125974   6.055   2.180   0.305
 8670TIP3    H225975   6.075   2.030   0.295
 8671TIP3   OH225976   6.613   2.629   4.102
 8671TIP3    H125977   6.655   2.650   4.018
 8671TIP3    H225978   6.683   2.594   4.156
 8672TIP3   OH225979   0.238   6.086   5.339
 8672TIP3    H125980   0.183   6.084   5.261
 8672TIP3    H225981   0.190   6.141   5.401
 8673TIP3   OH225982   6.053   3.936   3.464
 8673TIP3    H125983   6.135   3.903   3.427
 8673TIP3    H225984   5.985   3.882   3.424
 8674TIP3   OH225985   6.963   1.813   4.952
 8674TIP3    H125986   6.988   1.886   5.009
 8674TIP3    H225987   7.031   1.811   4.885
 8675TIP3   OH225988   6.892   2.629   5.552
 8675TIP3    H125989   6.909   2.621   5.646
 8675TIP3    H225990   6.904   2.540   5.518
 8676TIP3   OH225991   4.960   3.992   0.905
 8676TIP3    H125992   4.922   4.079   0.907
 8676TIP3    H225993   5.016   3.991   0.828
 8677TIP3   OH225994   3.982   5.558   1.337
 8677TIP3    H125995   3.905   5.529   1.290
 8677TIP3    H225996   3.962   5.648   1.363
 8678TIP3   OH225997   2.157   5.022   4.110
 8678TIP3    H125998   2.234   4.965   4.118
 8678TIP3    H225999   2.153   5.044   4.017
 8679TIP3   OH226000   2.899   0.055   1.950
 8679TIP3    H126001   2.844   0.044   1.872
 8679TIP3    H226002   2.864  -0.009   2.012
 8680TIP3   OH226003   3.218   2.959   0.486
 8680TIP3    H126004   3.162   2.965   0.408
 8680TIP3    H226005   3.227   3.049   0.516
 8681TIP3   OH226006   4.172   0.531   5.552
 8681TIP3    H126007   4.205   0.444   5.578
 8681TIP3    H226008   4.250   0.585   5.545
 8682TIP3   OH226009   1.543   3.952   5.078
 8682TIP3    H126010   1.500   3.983   4.998
 8682TIP3    H226011   1.509   3.864   5.090
 8683TIP3   OH226012   0.103   0.393   0.312
 8683TIP3    H126013   0.151   0.351   0.384
 8683TIP3    H226014   0.069   0.320   0.260
 8684TIP3   OH226015   2.840   4.871   0.675
 8684TIP3    H126016   2.932   4.848   0.687
 8684TIP3    H226017   2.841   4.966   0.659
 8685TIP3   OH226018   6.946   3.482   0.725
 8685TIP3    H126019   6.861   3.440   0.738
 8685TIP3    H226020   6.966   3.523   0.809
 8686TIP3   OH226021   6.158   2.087   1.457
 8686TIP3    H126022   6.154   2.182   1.472
 8686TIP3    H226023   6.099   2.050   1.523
 8687TIP3   OH226024   2.061   1.895   4.207
 8687TIP3    H126025   1.993   1.834   4.177
 8687TIP3    H226026   2.046   1.975   4.155
 8688TIP3   OH226027   2.502   2.103   4.023
 8688TIP3    H126028   2.454   2.066   3.949
 8688TIP3    H226029   2.576   2.149   3.982
 8689TIP3   OH226030   3.595   4.525   5.640
 8689TIP3    H126031   3.589   4.597   5.703
 8689TIP3    H226032   3.616   4.449   5.693
 8690TIP3   OH226033   5.574   2.944   0.667
 8690TIP3    H126034   5.551   2.852   0.657
 8690TIP3    H226035   5.492   2.991   0.649
 8691TIP3   OH226036   2.285   1.507   3.083
 8691TIP3    H126037   2.360   1.448   3.072
 8691TIP3    H226038   2.241   1.504   2.998
 8692TIP3   OH226039   5.431   2.541   0.941
 8692TIP3    H126040   5.387   2.623   0.917
 8692TIP3    H226041   5.452   2.551   1.033
 8693TIP3   OH226042   4.446   2.147   3.545
 8693TIP3    H126043   4.422   2.055   3.551
 8693TIP3    H226044   4.378   2.187   3.490
 8694TIP3   OH226045   2.904   1.936   0.614
 8694TIP3    H126046   2.956   1.878   0.670
 8694TIP3    H226047   2.815   1.902   0.620
 8695TIP3   OH226048   5.535   1.898   5.690
 8695TIP3    H126049   5.493   1.946   5.762
 8695TIP3    H226050   5.508   1.945   5.611
 8696TIP3   OH226051   1.983   1.655   5.328
 8696TIP3    H126052   1.895   1.674   5.361
 8696TIP3    H226053   2.034   1.636   5.407
 8697TIP3   OH226054   6.093   4.168   5.319
 8697TIP3    H126055   6.053   4.232   5.376
 8697TIP3    H226056   6.031   4.158   5.246
 8698TIP3   OH226057   2.737   3.522   1.237
 8698TIP3    H126058   2.755   3.508   1.144
 8698TIP3    H226059   2.685   3.446   1.264
 8699TIP3   OH226060   6.524   4.824   2.380
 8699TIP3    H126061   6.509   4.810   2.474
 8699TIP3    H226062   6.589   4.894   2.377
 8700TIP3   OH226063   1.266   1.674   4.791
 8700TIP3    H126064   1.361   1.681   4.782
 8700TIP3    H226065   1.231   1.736   4.727
 8701TIP3   OH226066   1.738   5.755   5.623
 8701TIP3    H126067   1.761   5.731   5.533
 8701TIP3    H226068   1.645   5.732   5.630
 8702TIP3   OH226069   1.483   4.588   3.933
 8702TIP3    H126070   1.448   4.601   3.845
 8702TIP3    H226071   1.552   4.522   3.922
 8703TIP3   OH226072   3.027   3.257   4.488
 8703TIP3    H126073   3.060   3.343   4.464
 8703TIP3    H226074   2.967   3.273   4.561
 8704TIP3   OH226075   1.541   5.141   1.800
 8704TIP3    H126076   1.517   5.231   1.822
 8704TIP3    H226077   1.484   5.087   1.854
 8705TIP3   OH226078   3.893   5.637   5.835
 8705TIP3    H126079   3.844   5.570   5.883
 8705TIP3    H226080   3.861   5.720   5.871
 8706TIP3   OH226081   6.200   4.083   0.896
 8706TIP3    H126082   6.232   4.071   0.806
 8706TIP3    H226083   6.276   4.064   0.951
 8707TIP3   OH226084   2.144   1.933   0.900
 8707TIP3    H126085   2.208   1.984   0.949
 8707TIP3    H226086   2.196   1.887   0.833
 8708TIP3   OH226087   4.882   0.486   5.262
 8708TIP3    H126088   4.824   0.563   5.266
 8708TIP3    H226089   4.837   0.420   5.315
 8709TIP3   OH226090   1.010   1.180   4.840
 8709TIP3    H126091   1.070   1.244   4.803
 8709TIP3    H226092   0.983   1.218   4.923
 8710TIP3   OH226093   6.983   0.593   0.818
 8710TIP3    H126094   6.988   0.685   0.844
 8710TIP3    H226095   6.892   0.580   0.791
 8711TIP3   OH226096   4.941   1.362   0.104
 8711TIP3    H126097   4.933   1.433   0.167
 8711TIP3    H226098   4.943   1.283   0.158
 8712TIP3   OH226099   5.747   6.186   5.431
 8712TIP3    H126100   5.821   6.127   5.450
 8712TIP3    H226101   5.679   6.158   5.492
 8713TIP3   OH226102   1.748   5.245   5.527
 8713TIP3    H126103   1.704   5.192   5.460
 8713TIP3    H226104   1.793   5.314   5.478
 8714TIP3   OH226105   7.103   2.922   0.217
 8714TIP3    H126106   7.082   2.833   0.246
 8714TIP3    H226107   7.126   2.912   0.125
 8715TIP3   OH226108   4.462   3.485   1.058
 8715TIP3    H126109   4.501   3.446   0.980
 8715TIP3    H226110   4.532   3.487   1.123
 8716TIP3   OH226111   4.655   2.328   3.605
 8716TIP3    H126112   4.590   2.258   3.604
 8716TIP3    H226113   4.668   2.351   3.513
 8717TIP3   OH226114   4.412   2.248   5.775
 8717TIP3    H126115   4.342   2.299   5.734
 8717TIP3    H226116   4.370   2.166   5.799
 8718TIP3   OH226117   5.479   0.181   0.959
 8718TIP3    H126118   5.557   0.127   0.973
 8718TIP3    H226119   5.513   0.269   0.948
 8719TIP3   OH226120   7.061   2.797   5.401
 8719TIP3    H126121   6.992   2.756   5.452
 8719TIP3    H226122   7.072   2.740   5.325
 8720TIP3   OH226123   4.488   4.360   3.692
 8720TIP3    H126124   4.437   4.425   3.740
 8720TIP3    H226125   4.477   4.279   3.741
 8721TIP3   OH226126   3.144   2.555   5.053
 8721TIP3    H126127   3.074   2.596   5.103
 8721TIP3    H226128   3.100   2.488   5.000
 8722TIP3   OH226129   5.571   2.308   0.317
 8722TIP3    H126130   5.489   2.321   0.270
 8722TIP3    H226131   5.583   2.213   0.321
 8723TIP3   OH226132   6.672   1.154   0.968
 8723TIP3    H126133   6.703   1.200   1.046
 8723TIP3    H226134   6.653   1.223   0.905
 8724TIP3   OH226135   4.586   1.869   4.193
 8724TIP3    H126136   4.508   1.915   4.224
 8724TIP3    H226137   4.588   1.788   4.245
 8725TIP3   OH226138   1.168   1.208   4.143
 8725TIP3    H126139   1.258   1.196   4.174
 8725TIP3    H226140   1.173   1.188   4.049
 8726TIP3   OH226141   3.278   0.203   4.179
 8726TIP3    H126142   3.229   0.205   4.097
 8726TIP3    H226143   3.268   0.113   4.210
 8727TIP3   OH226144   1.514   5.191   2.338
 8727TIP3    H126145   1.539   5.258   2.274
 8727TIP3    H226146   1.576   5.203   2.411
 8728TIP3   OH226147   3.283   0.375   2.046
 8728TIP3    H126148   3.291   0.422   2.129
 8728TIP3    H226149   3.368   0.386   2.003
 8729TIP3   OH226150   6.813   3.012   5.467
 8729TIP3    H126151   6.905   2.987   5.477
 8729TIP3    H226152   6.768   2.969   5.540
 8730TIP3   OH226153   6.239   2.815   4.598
 8730TIP3    H126154   6.293   2.738   4.581
 8730TIP3    H226155   6.169   2.811   4.533
 8731TIP3   OH226156   3.282   3.467   2.151
 8731TIP3    H126157   3.246   3.406   2.216
 8731TIP3    H226158   3.294   3.414   2.073
 8732TIP3   OH226159   1.539   4.384   3.131
 8732TIP3    H126160   1.523   4.407   3.223
 8732TIP3    H226161   1.622   4.337   3.132
 8733TIP3   OH226162   1.498   1.214   3.493
 8733TIP3    H126163   1.462   1.183   3.576
 8733TIP3    H226164   1.519   1.306   3.509
 8734TIP3   OH226165   4.345   4.351   2.704
 8734TIP3    H126166   4.262   4.356   2.656
 8734TIP3    H226167   4.375   4.442   2.708
 8735TIP3   OH226168   0.123   2.893   3.377
 8735TIP3    H126169   0.039   2.846   3.369
 8735TIP3    H226170   0.177   2.857   3.307
 8736TIP3   OH226171   4.655   3.198   5.576
 8736TIP3    H126172   4.717   3.127   5.590
 8736TIP3    H226173   4.573   3.155   5.551
 8737TIP3   OH226174   1.913   3.520   1.325
 8737TIP3    H126175   1.828   3.552   1.294
 8737TIP3    H226176   1.957   3.489   1.246
 8738TIP3   OH226177   6.574   3.481   5.129
 8738TIP3    H126178   6.487   3.443   5.142
 8738TIP3    H226179   6.579   3.499   5.035
 8739TIP3   OH226180   1.747   4.344   1.939
 8739TIP3    H126181   1.690   4.341   1.862
 8739TIP3    H226182   1.807   4.417   1.922
 8740TIP3   OH226183   6.826   1.426   0.528
 8740TIP3    H126184   6.803   1.372   0.452
 8740TIP3    H226185   6.840   1.514   0.492
 8741TIP3   OH226186   2.800   3.410   2.085
 8741TIP3    H126187   2.754   3.373   2.160
 8741TIP3    H226188   2.747   3.385   2.010
 8742TIP3   OH226189   1.365   3.586   2.063
 8742TIP3    H126190   1.283   3.628   2.092
 8742TIP3    H226191   1.350   3.493   2.079
 8743TIP3   OH226192   5.737   2.393   4.549
 8743TIP3    H126193   5.647   2.366   4.527
 8743TIP3    H226194   5.728   2.483   4.581
 8744TIP3   OH226195   5.966   5.084   0.055
 8744TIP3    H126196   6.026   5.012   0.071
 8744TIP3    H226197   5.956   5.127   0.141
 8745TIP3   OH226198   4.269   4.609   3.233
 8745TIP3    H126199   4.363   4.625   3.231
 8745TIP3    H226200   4.242   4.614   3.142
 8746TIP3   OH226201   1.873   4.406   1.608
 8746TIP3    H126202   1.964   4.421   1.633
 8746TIP3    H226203   1.831   4.491   1.616
 8747TIP3   OH226204   4.332   0.277   3.342
 8747TIP3    H126205   4.354   0.306   3.253
 8747TIP3    H226206   4.336   0.182   3.338
 8748TIP3   OH226207   4.738   4.166   4.648
 8748TIP3    H126208   4.745   4.071   4.661
 8748TIP3    H226209   4.822   4.192   4.611
 8749TIP3   OH226210   6.412   1.161   2.781
 8749TIP3    H126211   6.392   1.111   2.702
 8749TIP3    H226212   6.501   1.134   2.804
 8750TIP3   OH226213   4.822   6.233   2.537
 8750TIP3    H126214   4.903   6.270   2.573
 8750TIP3    H226215   4.795   6.167   2.601
 8751TIP3   OH226216   1.996   3.836   4.911
 8751TIP3    H126217   1.914   3.877   4.939
 8751TIP3    H226218   1.971   3.779   4.839
 8752TIP3   OH226219   3.235   4.541   0.482
 8752TIP3    H126220   3.278   4.513   0.401
 8752TIP3    H226221   3.264   4.478   0.548
 8753TIP3   OH226222   1.678   0.474   2.287
 8753TIP3    H126223   1.673   0.454   2.194
 8753TIP3    H226224   1.619   0.412   2.329
 8754TIP3   OH226225   3.202   6.239   0.715
 8754TIP3    H126226   3.220   6.318   0.664
 8754TIP3    H226227   3.224   6.263   0.805
 8755TIP3   OH226228   6.942   4.346   5.343
 8755TIP3    H126229   6.866   4.398   5.370
 8755TIP3    H226230   6.940   4.348   5.248
 8756TIP3   OH226231   2.769   0.464   2.831
 8756TIP3    H126232   2.802   0.382   2.793
 8756TIP3    H226233   2.842   0.525   2.823
 8757TIP3   OH226234   3.213   6.812   2.959
 8757TIP3    H126235   3.199   6.801   2.865
 8757TIP3    H226236   3.126   6.828   2.994
 8758TIP3   OH226237   4.135   4.080   4.243
 8758TIP3    H126238   4.115   4.121   4.327
 8758TIP3    H226239   4.216   4.030   4.259
 8759TIP3   OH226240   2.873   0.596   0.347
 8759TIP3    H126241   2.937   0.559   0.286
 8759TIP3    H226242   2.925   0.622   0.423
 8760TIP3   OH226243   5.280   1.316   4.338
 8760TIP3    H126244   5.328   1.320   4.256
 8760TIP3    H226245   5.346   1.300   4.405
 8761TIP3   OH226246   2.488   2.903   4.779
 8761TIP3    H126247   2.557   2.916   4.714
 8761TIP3    H226248   2.408   2.888   4.728
 8762TIP3   OH226249   2.347   4.160   1.027
 8762TIP3    H126250   2.268   4.213   1.032
 8762TIP3    H226251   2.344   4.105   1.106
 8763TIP3   OH226252   2.749   0.803   1.394
 8763TIP3    H126253   2.794   0.851   1.463
 8763TIP3    H226254   2.771   0.711   1.410
 8764TIP3   OH226255   1.286   2.591   5.312
 8764TIP3    H126256   1.241   2.614   5.393
 8764TIP3    H226257   1.269   2.664   5.252
 8765TIP3   OH226258   0.432   2.324   5.105
 8765TIP3    H126259   0.375   2.249   5.086
 8765TIP3    H226260   0.506   2.314   5.046
 8766TIP3   OH226261   5.968   5.440   0.205
 8766TIP3    H126262   5.989   5.456   0.297
 8766TIP3    H226263   5.879   5.407   0.206
 8767TIP3   OH226264   3.553   5.957   4.545
 8767TIP3    H126265   3.569   6.033   4.488
 8767TIP3    H226266   3.640   5.927   4.571
 8768TIP3   OH226267   7.237   3.693   3.632
 8768TIP3    H126268   7.220   3.646   3.713
 8768TIP3    H226269   7.154   3.736   3.611
 8769TIP3   OH226270   2.414   3.478   1.287
 8769TIP3    H126271   2.356   3.404   1.308
 8769TIP3    H226272   2.416   3.529   1.368
 8770TIP3   OH226273   5.213   6.338   2.244
 8770TIP3    H126274   5.249   6.355   2.158
 8770TIP3    H226275   5.283   6.294   2.292
 8771TIP3   OH226276   4.315   1.650   5.174
 8771TIP3    H126277   4.255   1.656   5.099
 8771TIP3    H226278   4.258   1.638   5.249
 8772TIP3   OH226279   0.312   4.165   1.586
 8772TIP3    H126280   0.306   4.223   1.662
 8772TIP3    H226281   0.375   4.207   1.528
 8773TIP3   OH226282   0.552   5.565   5.367
 8773TIP3    H126283   0.638   5.604   5.349
 8773TIP3    H226284   0.492   5.639   5.364
 8774TIP3   OH226285   1.966   5.235   2.187
 8774TIP3    H126286   1.894   5.189   2.144
 8774TIP3    H226287   2.034   5.242   2.120
 8775TIP3   OH226288   6.823   2.881   2.236
 8775TIP3    H126289   6.814   2.975   2.253
 8775TIP3    H226290   6.733   2.850   2.223
 8776TIP3   OH226291   5.683   3.204   0.561
 8776TIP3    H126292   5.726   3.211   0.476
 8776TIP3    H226293   5.633   3.122   0.556
 8777TIP3   OH226294   0.023   3.529   2.189
 8777TIP3    H126295  -0.060   3.537   2.142
 8777TIP3    H226296   0.083   3.588   2.143
 8778TIP3   OH226297   6.921   4.893   3.537
 8778TIP3    H126298   7.007   4.873   3.575
 8778TIP3    H226299   6.868   4.920   3.611
 8779TIP3   OH226300   2.063   3.329   4.769
 8779TIP3    H126301   2.094   3.255   4.716
 8779TIP3    H226302   2.008   3.289   4.836
 8780TIP3   OH226303   0.639   5.540   3.829
 8780TIP3    H126304   0.574   5.608   3.811
 8780TIP3    H226305   0.632   5.524   3.923
 8781TIP3   OH226306   1.194   5.581   1.291
 8781TIP3    H126307   1.105   5.546   1.286
 8781TIP3    H226308   1.248   5.516   1.246
 8782TIP3   OH226309   4.529   0.181   3.673
 8782TIP3    H126310   4.587   0.249   3.707
 8782TIP3    H226311   4.447   0.226   3.655
 8783TIP3   OH226312   5.566   5.493   3.091
 8783TIP3    H126313   5.573   5.411   3.141
 8783TIP3    H226314   5.649   5.538   3.108
 8784TIP3   OH226315   5.903   0.347   5.823
 8784TIP3    H126316   5.875   0.292   5.750
 8784TIP3    H226317   5.982   0.304   5.856
 8785TIP3   OH226318   0.745   5.527   4.537
 8785TIP3    H126319   0.823   5.492   4.493
 8785TIP3    H226320   0.777   5.555   4.623
 8786TIP3   OH226321   2.928   1.309   3.012
 8786TIP3    H126322   2.887   1.234   3.054
 8786TIP3    H226323   3.002   1.273   2.964
 8787TIP3   OH226324   4.612   5.052   5.433
 8787TIP3    H126325   4.545   5.014   5.491
 8787TIP3    H226326   4.609   5.146   5.450
 8788TIP3   OH226327   7.226   4.083   0.068
 8788TIP3    H126328   7.242   4.082   0.163
 8788TIP3    H226329   7.211   4.175   0.048
 8789TIP3   OH226330   5.885   0.143   1.249
 8789TIP3    H126331   5.879   0.192   1.331
 8789TIP3    H226332   5.794   0.129   1.222
 8790TIP3   OH226333   1.184   5.659   3.962
 8790TIP3    H126334   1.181   5.718   3.887
 8790TIP3    H226335   1.263   5.607   3.949
 8791TIP3   OH226336   2.949   3.797   4.351
 8791TIP3    H126337   3.044   3.785   4.357
 8791TIP3    H226338   2.928   3.855   4.424
 8792TIP3   OH226339   6.725   0.516   2.391
 8792TIP3    H126340   6.775   0.595   2.413
 8792TIP3    H226341   6.653   0.515   2.454
 8793TIP3   OH226342   4.862   1.003   3.740
 8793TIP3    H126343   4.840   0.978   3.651
 8793TIP3    H226344   4.801   1.074   3.761
 8794TIP3   OH226345   4.632   1.144   0.957
 8794TIP3    H126346   4.621   1.070   0.897
 8794TIP3    H226347   4.653   1.103   1.042
 8795TIP3   OH226348   5.469   0.639   0.314
 8795TIP3    H126349   5.487   0.699   0.386
 8795TIP3    H226350   5.390   0.592   0.343
 8796TIP3   OH226351   6.026   4.635   5.536
 8796TIP3    H126352   6.086   4.705   5.561
 8796TIP3    H226353   5.976   4.617   5.615
 8797TIP3   OH226354   0.671   2.816   5.272
 8797TIP3    H126355   0.595   2.803   5.329
 8797TIP3    H226356   0.741   2.768   5.315
 8798TIP3   OH226357   7.175   4.785   4.593
 8798TIP3    H126358   7.141   4.845   4.659
 8798TIP3    H226359   7.169   4.698   4.634
 8799TIP3   OH226360   0.473   4.702   5.809
 8799TIP3    H126361   0.468   4.786   5.764
 8799TIP3    H226362   0.564   4.695   5.838
 8800TIP3   OH226363   5.981   0.241   5.221
 8800TIP3    H126364   6.034   0.301   5.170
 8800TIP3    H226365   5.958   0.171   5.159
 8801TIP3   OH226366   4.694   1.990   4.722
 8801TIP3    H126367   4.745   2.071   4.721
 8801TIP3    H226368   4.616   2.009   4.669
 8802TIP3   OH226369   2.797   6.463   3.959
 8802TIP3    H126370   2.811   6.541   3.906
 8802TIP3    H226371   2.837   6.484   4.044
 8803TIP3   OH226372   5.864   3.100   4.170
 8803TIP3    H126373   5.851   3.194   4.157
 8803TIP3    H226374   5.932   3.076   4.106
 8804TIP3   OH226375   1.560   6.579   1.425
 8804TIP3    H126376   1.605   6.512   1.475
 8804TIP3    H226377   1.602   6.661   1.452
 8805TIP3   OH226378   4.821   4.669   5.757
 8805TIP3    H126379   4.731   4.661   5.726
 8805TIP3    H226380   4.868   4.600   5.709
 8806TIP3   OH226381   4.505   0.735   3.658
 8806TIP3    H126382   4.519   0.649   3.620
 8806TIP3    H226383   4.560   0.736   3.737
 8807TIP3   OH226384   6.850   1.846   2.351
 8807TIP3    H126385   6.930   1.864   2.400
 8807TIP3    H226386   6.789   1.814   2.417
 8808TIP3   OH226387   4.170   5.947   3.340
 8808TIP3    H126388   4.212   5.873   3.384
 8808TIP3    H226389   4.164   6.015   3.407
 8809TIP3   OH226390   5.890   0.844   2.263
 8809TIP3    H126391   5.799   0.844   2.294
 8809TIP3    H226392   5.943   0.847   2.342
 8810TIP3   OH226393   0.912   5.988   0.950
 8810TIP3    H126394   0.910   6.084   0.951
 8810TIP3    H226395   0.873   5.963   1.033
 8811TIP3   OH226396   2.176   6.473   4.701
 8811TIP3    H126397   2.126   6.521   4.635
 8811TIP3    H226398   2.199   6.539   4.766
 8812TIP3   OH226399   3.713   4.891   3.992
 8812TIP3    H126400   3.731   4.964   3.932
 8812TIP3    H226401   3.796   4.843   3.998
 8813TIP3   OH226402   0.070   1.929   0.982
 8813TIP3    H126403   0.157   1.944   0.945
 8813TIP3    H226404   0.015   1.997   0.943
 8814TIP3   OH226405   5.550   3.283   5.052
 8814TIP3    H126406   5.581   3.201   5.090
 8814TIP3    H226407   5.455   3.281   5.064
 8815TIP3   OH226408   2.758   3.945   5.051
 8815TIP3    H126409   2.680   3.925   5.103
 8815TIP3    H226410   2.794   3.860   5.027
 8816TIP3   OH226411   2.545   0.792   4.912
 8816TIP3    H126412   2.590   0.742   4.980
 8816TIP3    H226413   2.543   0.882   4.947
 8817TIP3   OH226414   3.867   0.476   0.075
 8817TIP3    H126415   3.776   0.494   0.051
 8817TIP3    H226416   3.876   0.381   0.069
 8818TIP3   OH226417   6.001   4.814   2.591
 8818TIP3    H126418   6.019   4.853   2.676
 8818TIP3    H226419   5.930   4.867   2.555
 8819TIP3   OH226420   5.528   0.664   2.314
 8819TIP3    H126421   5.542   0.732   2.249
 8819TIP3    H226422   5.595   0.598   2.294
 8820TIP3   OH226423   3.977   4.133   5.838
 8820TIP3    H126424   3.948   4.116   5.928
 8820TIP3    H226425   4.021   4.052   5.811
 8821TIP3   OH226426   5.737   0.873   5.767
 8821TIP3    H126427   5.702   0.788   5.744
 8821TIP3    H226428   5.690   0.898   5.847
 8822TIP3   OH226429   4.730   3.629   1.845
 8822TIP3    H126430   4.717   3.539   1.817
 8822TIP3    H226431   4.724   3.680   1.764
 8823TIP3   OH226432   2.273   3.348   5.112
 8823TIP3    H126433   2.178   3.340   5.121
 8823TIP3    H226434   2.299   3.274   5.058
 8824TIP3   OH226435   2.201   5.645   4.990
 8824TIP3    H126436   2.188   5.690   5.074
 8824TIP3    H226437   2.151   5.696   4.927
 8825TIP3   OH226438   3.538   4.828   5.386
 8825TIP3    H126439   3.509   4.779   5.464
 8825TIP3    H226440   3.495   4.913   5.395
 8826TIP3   OH226441   3.348   3.982   5.826
 8826TIP3    H126442   3.438   3.948   5.833
 8826TIP3    H226443   3.346   4.026   5.741
 8827TIP3   OH226444   4.085   4.202   4.504
 8827TIP3    H126445   4.097   4.222   4.596
 8827TIP3    H226446   3.991   4.216   4.488
 8828TIP3   OH226447   6.240   0.871   4.617
 8828TIP3    H126448   6.317   0.828   4.654
 8828TIP3    H226449   6.246   0.855   4.523
 8829TIP3   OH226450   4.757   3.318   0.575
 8829TIP3    H126451   4.790   3.403   0.606
 8829TIP3    H226452   4.763   3.324   0.480
 8830TIP3   OH226453   3.358   3.435   2.692
 8830TIP3    H126454   3.390   3.454   2.604
 8830TIP3    H226455   3.344   3.520   2.732
 8831TIP3   OH226456   2.250   6.275   3.206
 8831TIP3    H126457   2.181   6.245   3.147
 8831TIP3    H226458   2.260   6.204   3.270
 8832TIP3   OH226459   1.630   2.895   5.032
 8832TIP3    H126460   1.578   2.963   5.074
 8832TIP3    H226461   1.639   2.924   4.941
 8833TIP3   OH226462   2.471   5.127   4.865
 8833TIP3    H126463   2.488   5.040   4.900
 8833TIP3    H226464   2.378   5.142   4.882
 8834TIP3   OH226465   1.086   3.714   5.574
 8834TIP3    H126466   1.130   3.797   5.595
 8834TIP3    H226467   0.996   3.728   5.604
 8835TIP3   OH226468   4.541   1.955   1.771
 8835TIP3    H126469   4.569   1.983   1.858
 8835TIP3    H226470   4.600   2.002   1.711
 8836TIP3   OH226471   0.513   5.230   1.795
 8836TIP3    H126472   0.591   5.262   1.840
 8836TIP3    H226473   0.547   5.190   1.715
 8837TIP3   OH226474   3.795   2.884   5.561
 8837TIP3    H126475   3.755   2.901   5.646
 8837TIP3    H226476   3.793   2.968   5.515
 8838TIP3   OH226477   3.733   6.607   4.639
 8838TIP3    H126478   3.671   6.651   4.580
 8838TIP3    H226479   3.697   6.622   4.726
 8839TIP3   OH226480   5.080   1.804   1.948
 8839TIP3    H126481   5.024   1.881   1.944
 8839TIP3    H226482   5.150   1.827   2.009
 8840TIP3   OH226483   6.042   2.079   1.788
 8840TIP3    H126484   6.003   2.161   1.756
 8840TIP3    H226485   5.972   2.015   1.781
 8841TIP3   OH226486   0.515   6.736   0.398
 8841TIP3    H126487   0.464   6.779   0.466
 8841TIP3    H226488   0.472   6.651   0.387
 8842TIP3   OH226489   4.289   5.928   3.005
 8842TIP3    H126490   4.350   5.968   3.068
 8842TIP3    H226491   4.280   5.838   3.035
 8843TIP3   OH226492   6.638   4.581   0.790
 8843TIP3    H126493   6.644   4.582   0.886
 8843TIP3    H226494   6.586   4.503   0.770
 8844TIP3   OH226495   0.316   5.578   0.370
 8844TIP3    H126496   0.259   5.578   0.294
 8844TIP3    H226497   0.274   5.637   0.433
 8845TIP3   OH226498   0.209   6.734   3.967
 8845TIP3    H126499   0.128   6.692   3.938
 8845TIP3    H226500   0.263   6.663   4.001
 8846TIP3   OH226501   1.132   4.049   1.419
 8846TIP3    H126502   1.050   4.072   1.463
 8846TIP3    H226503   1.158   4.129   1.373
 8847TIP3   OH226504   5.532   0.028   0.635
 8847TIP3    H126505   5.448  -0.010   0.663
 8847TIP3    H226506   5.594  -0.001   0.702
 8848TIP3   OH226507   3.022   2.763   3.503
 8848TIP3    H126508   2.992   2.818   3.574
 8848TIP3    H226509   2.964   2.784   3.430
 8849TIP3   OH226510   4.423   3.424   5.033
 8849TIP3    H126511   4.445   3.498   5.090
 8849TIP3    H226512   4.416   3.349   5.093
 8850TIP3   OH226513   0.514   5.519   5.671
 8850TIP3    H126514   0.524   5.504   5.577
 8850TIP3    H226515   0.583   5.582   5.693
 8851TIP3   OH226516   1.454   1.022   4.475
 8851TIP3    H126517   1.433   1.034   4.568
 8851TIP3    H226518   1.378   0.976   4.439
 8852TIP3   OH226519   6.993   3.176   1.711
 8852TIP3    H126520   6.959   3.107   1.769
 8852TIP3    H226521   6.924   3.188   1.645
 8853TIP3   OH226522   2.452   0.873   1.467
 8853TIP3    H126523   2.404   0.791   1.477
 8853TIP3    H226524   2.543   0.845   1.453
 8854TIP3   OH226525   4.140   6.635   5.841
 8854TIP3    H126526   4.092   6.702   5.793
 8854TIP3    H226527   4.087   6.619   5.919
 8855TIP3   OH226528   0.858   3.208   4.751
 8855TIP3    H126529   0.830   3.207   4.843
 8855TIP3    H226530   0.777   3.212   4.701
 8856TIP3   OH226531   6.368   4.891   4.254
 8856TIP3    H126532   6.352   4.887   4.348
 8856TIP3    H226533   6.281   4.902   4.216
 8857TIP3   OH226534   5.359   3.735   0.180
 8857TIP3    H126535   5.384   3.644   0.193
 8857TIP3    H226536   5.340   3.742   0.086
 8858TIP3   OH226537   6.350   2.319   0.288
 8858TIP3    H126538   6.366   2.401   0.334
 8858TIP3    H226539   6.379   2.335   0.199
 8859TIP3   OH226540   5.962   3.586   5.215
 8859TIP3    H126541   5.911   3.667   5.211
 8859TIP3    H226542   5.906   3.521   5.173
 8860TIP3   OH226543   6.996   6.294   4.590
 8860TIP3    H126544   6.998   6.386   4.615
 8860TIP3    H226545   6.904   6.277   4.569
 8861TIP3   OH226546   0.349   2.341   1.172
 8861TIP3    H126547   0.342   2.411   1.108
 8861TIP3    H226548   0.281   2.360   1.237
 8862TIP3   OH226549   5.377   3.410   5.499
 8862TIP3    H126550   5.452   3.361   5.466
 8862TIP3    H226551   5.397   3.427   5.591
 8863TIP3   OH226552   4.352   2.351   4.756
 8863TIP3    H126553   4.336   2.401   4.676
 8863TIP3    H226554   4.281   2.377   4.815
 8864TIP3   OH226555   6.747   0.628   2.093
 8864TIP3    H126556   6.819   0.577   2.055
 8864TIP3    H226557   6.746   0.603   2.185
 8865TIP3   OH226558   1.486   5.942   1.398
 8865TIP3    H126559   1.478   5.919   1.306
 8865TIP3    H226560   1.501   6.036   1.399
 8866TIP3   OH226561   3.563   5.526   1.596
 8866TIP3    H126562   3.620   5.568   1.661
 8866TIP3    H226563   3.579   5.574   1.515
 8867TIP3   OH226564   5.963   1.790   4.109
 8867TIP3    H126565   5.996   1.795   4.019
 8867TIP3    H226566   6.012   1.717   4.148
 8868TIP3   OH226567   5.769   1.701   5.302
 8868TIP3    H126568   5.711   1.770   5.335
 8868TIP3    H226569   5.725   1.620   5.325
 8869TIP3   OH226570   6.468   2.665   1.101
 8869TIP3    H126571   6.550   2.618   1.086
 8869TIP3    H226572   6.490   2.731   1.167
 8870TIP3   OH226573   1.745   2.564   5.466
 8870TIP3    H126574   1.685   2.514   5.522
 8870TIP3    H226575   1.832   2.539   5.497
 8871TIP3   OH226576   1.465   2.696   2.056
 8871TIP3    H126577   1.404   2.622   2.055
 8871TIP3    H226578   1.490   2.706   1.965
 8872TIP3   OH226579   1.284   2.196   4.502
 8872TIP3    H126580   1.322   2.265   4.448
 8872TIP3    H226581   1.245   2.135   4.439
 8873TIP3   OH226582   2.496   1.237   5.220
 8873TIP3    H126583   2.550   1.315   5.231
 8873TIP3    H226584   2.415   1.269   5.181
 8874TIP3   OH226585   1.815   4.017   4.323
 8874TIP3    H126586   1.766   3.936   4.311
 8874TIP3    H226587   1.822   4.027   4.418
 8875TIP3   OH226588   3.276   1.067   2.907
 8875TIP3    H126589   3.329   1.039   2.833
 8875TIP3    H226590   3.185   1.059   2.876
 8876TIP3   OH226591   4.520   6.288   2.090
 8876TIP3    H126592   4.542   6.364   2.035
 8876TIP3    H226593   4.584   6.291   2.161
 8877TIP3   OH226594   2.673   4.940   0.215
 8877TIP3    H126595   2.725   5.020   0.226
 8877TIP3    H226596   2.688   4.890   0.295
 8878TIP3   OH226597   2.828   6.754   1.905
 8878TIP3    H126598   2.883   6.718   1.974
 8878TIP3    H226599   2.774   6.820   1.948
 8879TIP3   OH226600   1.477   4.146   5.697
 8879TIP3    H126601   1.477   4.230   5.652
 8879TIP3    H226602   1.570   4.121   5.703
 8880TIP3   OH226603   5.208   1.149   4.833
 8880TIP3    H126604   5.277   1.086   4.811
 8880TIP3    H226605   5.225   1.224   4.777
 8881TIP3   OH226606   6.159   1.714   3.700
 8881TIP3    H126607   6.151   1.686   3.608
 8881TIP3    H226608   6.252   1.737   3.709
 8882TIP3   OH226609   3.198   1.421   3.982
 8882TIP3    H126610   3.243   1.498   3.948
 8882TIP3    H226611   3.208   1.428   4.077
 8883TIP3   OH226612   2.375   0.755   1.139
 8883TIP3    H126613   2.301   0.806   1.173
 8883TIP3    H226614   2.394   0.794   1.054
 8884TIP3   OH226615   2.260   2.168   5.880
 8884TIP3    H126616   2.290   2.102   5.942
 8884TIP3    H226617   2.165   2.174   5.896
 8885TIP3   OH226618   4.972   0.020   0.223
 8885TIP3    H126619   4.942   0.046   0.136
 8885TIP3    H226620   5.010   0.100   0.259
 8886TIP3   OH226621   5.441   1.342   3.068
 8886TIP3    H126622   5.417   1.289   2.992
 8886TIP3    H226623   5.363   1.395   3.085
 8887TIP3   OH226624   0.026   1.141   4.429
 8887TIP3    H126625   0.116   1.111   4.439
 8887TIP3    H226626  -0.024   1.061   4.415
 8888TIP3   OH226627   3.679   2.081   4.429
 8888TIP3    H126628   3.620   2.005   4.432
 8888TIP3    H226629   3.761   2.046   4.395
 8889TIP3   OH226630   3.522   5.167   4.016
 8889TIP3    H126631   3.614   5.175   4.042
 8889TIP3    H226632   3.477   5.138   4.096
 8890TIP3   OH226633   1.565   0.050   4.725
 8890TIP3    H126634   1.510   0.125   4.744
 8890TIP3    H226635   1.647   0.068   4.770
 8891TIP3   OH226636   4.425   4.259   0.420
 8891TIP3    H126637   4.445   4.321   0.490
 8891TIP3    H226638   4.332   4.240   0.431
 8892TIP3   OH226639   2.265   2.160   2.031
 8892TIP3    H126640   2.297   2.132   2.117
 8892TIP3    H226641   2.343   2.187   1.984
 8893TIP3   OH226642   5.913   5.819   2.170
 8893TIP3    H126643   5.841   5.821   2.233
 8893TIP3    H226644   5.958   5.736   2.187
 8894TIP3   OH226645   0.977   4.948   1.610
 8894TIP3    H126646   0.883   4.930   1.601
 8894TIP3    H226647   0.981   5.036   1.649
 8895TIP3   OH226648   4.347   5.507   4.010
 8895TIP3    H126649   4.435   5.540   3.992
 8895TIP3    H226650   4.361   5.429   4.063
 8896TIP3   OH226651   0.069   4.508   2.003
 8896TIP3    H126652   0.137   4.567   2.036
 8896TIP3    H226653   0.027   4.474   2.082
 8897TIP3   OH226654   6.615   0.939   0.757
 8897TIP3    H126655   6.596   1.008   0.694
 8897TIP3    H226656   6.639   0.986   0.837
 8898TIP3   OH226657   2.576   6.290   3.494
 8898TIP3    H126658   2.520   6.360   3.527
 8898TIP3    H226659   2.651   6.289   3.553
 8899TIP3   OH226660   3.273   4.545   1.691
 8899TIP3    H126661   3.301   4.624   1.737
 8899TIP3    H226662   3.240   4.577   1.607
 8900TIP3   OH226663   2.130   0.164   5.284
 8900TIP3    H126664   2.134   0.243   5.230
 8900TIP3    H226665   2.202   0.174   5.347
 8901TIP3   OH226666   1.255   6.435   5.334
 8901TIP3    H126667   1.284   6.485   5.258
 8901TIP3    H226668   1.297   6.477   5.409
 8902TIP3   OH226669   1.192   5.050   1.954
 8902TIP3    H126670   1.173   5.091   1.869
 8902TIP3    H226671   1.186   4.956   1.936
 8903TIP3   OH226672   3.028   1.077   2.789
 8903TIP3    H126673   2.953   1.132   2.768
 8903TIP3    H226674   3.058   1.043   2.704
 8904TIP3   OH226675   5.207   4.048   0.491
 8904TIP3    H126676   5.118   4.046   0.527
 8904TIP3    H226677   5.264   4.038   0.567
 8905TIP3   OH226678   3.281   6.596   1.392
 8905TIP3    H126679   3.306   6.604   1.300
 8905TIP3    H226680   3.188   6.619   1.394
 8906TIP3   OH226681   5.249   2.647   1.590
 8906TIP3    H126682   5.258   2.690   1.675
 8906TIP3    H226683   5.159   2.616   1.587
 8907TIP3   OH226684   4.401   4.159   3.860
 8907TIP3    H126685   4.326   4.180   3.916
 8907TIP3    H226686   4.468   4.128   3.920
 8908TIP3   OH226687   5.070   0.810   2.599
 8908TIP3    H126688   5.104   0.886   2.645
 8908TIP3    H226689   5.147   0.756   2.581
 8909TIP3   OH226690   0.106   0.746   4.915
 8909TIP3    H126691   0.086   0.836   4.888
 8909TIP3    H226692   0.023   0.699   4.903
 8910TIP3   OH226693   5.159   3.440   2.471
 8910TIP3    H126694   5.202   3.452   2.386
 8910TIP3    H226695   5.180   3.520   2.519
 8911TIP3   OH226696  -0.006   1.028   1.801
 8911TIP3    H126697  -0.031   1.105   1.851
 8911TIP3    H226698   0.086   1.043   1.777
 8912TIP3   OH226699   5.432   0.192   2.429
 8912TIP3    H126700   5.376   0.138   2.486
 8912TIP3    H226701   5.521   0.163   2.449
 8913TIP3   OH226702   1.825   2.980   0.809
 8913TIP3    H126703   1.737   2.947   0.828
 8913TIP3    H226704   1.830   2.980   0.713
 8914TIP3   OH226705   3.370   1.239   0.236
 8914TIP3    H126706   3.384   1.332   0.250
 8914TIP3    H226707   3.458   1.201   0.241
 8915TIP3   OH226708   6.407   6.308   3.790
 8915TIP3    H126709   6.317   6.288   3.814
 8915TIP3    H226710   6.401   6.389   3.740
 8916TIP3   OH226711   6.822   4.830   4.982
 8916TIP3    H126712   6.815   4.835   4.886
 8916TIP3    H226713   6.737   4.860   5.014
 8917TIP3   OH226714   2.997   2.050   1.927
 8917TIP3    H126715   3.012   2.144   1.939
 8917TIP3    H226716   2.903   2.039   1.940
 8918TIP3   OH226717   1.286   2.394   4.988
 8918TIP3    H126718   1.245   2.480   4.995
 8918TIP3    H226719   1.324   2.391   4.901
 8919TIP3   OH226720   4.612   4.491   0.605
 8919TIP3    H126721   4.634   4.582   0.588
 8919TIP3    H226722   4.518   4.492   0.625
 8920TIP3   OH226723   0.524   5.407   4.421
 8920TIP3    H126724   0.528   5.312   4.434
 8920TIP3    H226725   0.608   5.439   4.453
 8921TIP3   OH226726   4.009   4.001   0.717
 8921TIP3    H126727   3.954   3.978   0.642
 8921TIP3    H226728   4.098   3.999   0.682
 8922TIP3   OH226729   0.966   1.784   0.313
 8922TIP3    H126730   0.917   1.725   0.370
 8922TIP3    H226731   0.902   1.809   0.245
 8923TIP3   OH226732   6.010   3.592   1.973
 8923TIP3    H126733   6.055   3.660   1.924
 8923TIP3    H226734   6.017   3.620   2.065
 8924TIP3   OH226735   5.942   5.765   5.267
 8924TIP3    H126736   5.926   5.671   5.272
 8924TIP3    H226737   5.998   5.777   5.191
 8925TIP3   OH226738   6.474   1.412   4.777
 8925TIP3    H126739   6.451   1.498   4.741
 8925TIP3    H226740   6.418   1.351   4.730
 8926TIP3   OH226741   5.574   0.032   1.779
 8926TIP3    H126742   5.570   0.095   1.851
 8926TIP3    H226743   5.664   0.001   1.780
 8927TIP3   OH226744   6.055   2.242   0.974
 8927TIP3    H126745   6.127   2.224   1.035
 8927TIP3    H226746   6.051   2.337   0.969
 8928TIP3   OH226747   3.099   0.315   0.564
 8928TIP3    H126748   3.163   0.363   0.617
 8928TIP3    H226749   3.014   0.343   0.599
 8929TIP3   OH226750  -0.019   3.966   3.274
 8929TIP3    H126751   0.023   3.929   3.352
 8929TIP3    H226752   0.052   3.976   3.211
 8930TIP3   OH226753   2.347   0.854   0.335
 8930TIP3    H126754   2.252   0.846   0.333
 8930TIP3    H226755   2.367   0.922   0.270
 8931TIP3   OH226756   0.432   4.499   1.194
 8931TIP3    H126757   0.522   4.520   1.217
 8931TIP3    H226758   0.429   4.505   1.099
 8932TIP3   OH226759   0.513   0.245   3.981
 8932TIP3    H126760   0.488   0.324   3.933
 8932TIP3    H226761   0.440   0.185   3.967
 8933TIP3   OH226762   5.852   4.031   3.756
 8933TIP3    H126763   5.763   4.048   3.728
 8933TIP3    H226764   5.906   4.091   3.705
 8934TIP3   OH226765   4.419   2.375   0.593
 8934TIP3    H126766   4.507   2.385   0.558
 8934TIP3    H226767   4.362   2.375   0.516
 8935TIP3   OH226768   0.344   3.601   3.272
 8935TIP3    H126769   0.321   3.512   3.299
 8935TIP3    H226770   0.261   3.639   3.246
 8936TIP3   OH226771   1.960   1.763   4.569
 8936TIP3    H126772   1.918   1.706   4.505
 8936TIP3    H226773   1.923   1.850   4.551
 8937TIP3   OH226774   0.103   6.080   1.119
 8937TIP3    H126775   0.068   6.009   1.173
 8937TIP3    H226776   0.145   6.139   1.181
 8938TIP3   OH226777   5.060   5.731   0.230
 8938TIP3    H126778   5.112   5.807   0.206
 8938TIP3    H226779   5.091   5.707   0.318
 8939TIP3   OH226780   6.486   0.268   2.891
 8939TIP3    H126781   6.497   0.280   2.797
 8939TIP3    H226782   6.416   0.203   2.899
 8940TIP3   OH226783   4.148   2.088   1.048
 8940TIP3    H126784   4.240   2.113   1.050
 8940TIP3    H226785   4.116   2.103   1.137
 8941TIP3   OH226786   3.692   3.142   3.938
 8941TIP3    H126787   3.756   3.152   4.008
 8941TIP3    H226788   3.739   3.096   3.869
 8942TIP3   OH226789   3.029   5.721   4.661
 8942TIP3    H126790   3.100   5.717   4.725
 8942TIP3    H226791   2.965   5.781   4.699
 8943TIP3   OH226792   1.223   6.174   4.489
 8943TIP3    H126793   1.147   6.165   4.431
 8943TIP3    H226794   1.265   6.088   4.488
 8944TIP3   OH226795   3.510   5.501   0.219
 8944TIP3    H126796   3.540   5.501   0.310
 8944TIP3    H226797   3.421   5.466   0.224
 8945TIP3   OH226798   6.240   5.564   5.500
 8945TIP3    H126799   6.268   5.498   5.564
 8945TIP3    H226800   6.215   5.514   5.423
 8946TIP3   OH226801   4.359   0.224   0.592
 8946TIP3    H126802   4.444   0.265   0.577
 8946TIP3    H226803   4.375   0.131   0.579
 8947TIP3   OH226804   5.556   3.126   1.818
 8947TIP3    H126805   5.641   3.097   1.851
 8947TIP3    H226806   5.549   3.217   1.847
 8948TIP3   OH226807   6.784   5.638   0.677
 8948TIP3    H126808   6.783   5.669   0.768
 8948TIP3    H226809   6.715   5.689   0.634
 8949TIP3   OH226810   4.741   2.943   0.561
 8949TIP3    H126811   4.815   2.927   0.503
 8949TIP3    H226812   4.780   2.963   0.646
 8950TIP3   OH226813   2.070   1.679   0.390
 8950TIP3    H126814   1.987   1.632   0.377
 8950TIP3    H226815   2.090   1.717   0.305
 8951TIP3   OH226816   7.069   2.129   1.899
 8951TIP3    H126817   7.128   2.096   1.832
 8951TIP3    H226818   7.123   2.188   1.952
 8952TIP3   OH226819   1.150   6.192   1.175
 8952TIP3    H126820   1.131   6.113   1.226
 8952TIP3    H226821   1.228   6.229   1.218
 8953TIP3   OH226822   1.655   3.404   1.553
 8953TIP3    H126823   1.659   3.493   1.518
 8953TIP3    H226824   1.643   3.415   1.647
 8954TIP3   OH226825   4.756   2.597   0.773
 8954TIP3    H126826   4.730   2.639   0.855
 8954TIP3    H226827   4.679   2.605   0.717
 8955TIP3   OH226828   1.743   0.039   3.778
 8955TIP3    H126829   1.682   0.050   3.851
 8955TIP3    H226830   1.759   0.128   3.747
 8956TIP3   OH226831   2.528   1.241   5.534
 8956TIP3    H126832   2.457   1.219   5.473
 8956TIP3    H226833   2.498   1.206   5.618
 8957TIP3   OH226834   0.236   1.444   3.617
 8957TIP3    H126835   0.276   1.530   3.604
 8957TIP3    H226836   0.177   1.433   3.543
 8958TIP3   OH226837   0.553   2.246   0.342
 8958TIP3    H126838   0.479   2.252   0.402
 8958TIP3    H226839   0.537   2.166   0.292
 8959TIP3   OH226840   4.579   1.468   2.028
 8959TIP3    H126841   4.651   1.416   2.064
 8959TIP3    H226842   4.613   1.499   1.943
 8960TIP3   OH226843   3.738   1.694   4.573
 8960TIP3    H126844   3.804   1.635   4.537
 8960TIP3    H226845   3.725   1.761   4.505
 8961TIP3   OH226846   3.296   6.454   2.804
 8961TIP3    H126847   3.357   6.439   2.875
 8961TIP3    H226848   3.264   6.367   2.780
 8962TIP3   OH226849   6.587   1.830   4.707
 8962TIP3    H126850   6.626   1.790   4.785
 8962TIP3    H226851   6.534   1.902   4.742
 8963TIP3   OH226852   1.110   4.972   1.367
 8963TIP3    H126853   1.072   4.973   1.455
 8963TIP3    H226854   1.127   5.064   1.347
 8964TIP3   OH226855   0.252   1.124   2.932
 8964TIP3    H126856   0.226   1.179   3.006
 8964TIP3    H226857   0.244   1.181   2.855
 8965TIP3   OH226858   6.880   3.458   2.825
 8965TIP3    H126859   6.891   3.537   2.877
 8965TIP3    H226860   6.949   3.399   2.858
 8966TIP3   OH226861   5.223   2.665   2.944
 8966TIP3    H126862   5.287   2.615   2.894
 8966TIP3    H226863   5.247   2.756   2.928
 8967TIP3   OH226864   7.054   5.002   1.496
 8967TIP3    H126865   7.096   4.917   1.483
 8967TIP3    H226866   6.980   4.983   1.554
 8968TIP3   OH226867   6.197   2.965   5.142
 8968TIP3    H126868   6.189   3.000   5.054
 8968TIP3    H226869   6.183   2.871   5.131
 8969TIP3   OH226870   4.866   4.965   1.476
 8969TIP3    H126871   4.801   4.990   1.410
 8969TIP3    H226872   4.899   5.049   1.509
 8970TIP3   OH226873   4.642   2.924   3.636
 8970TIP3    H126874   4.713   2.872   3.599
 8970TIP3    H226875   4.686   2.985   3.695
 8971TIP3   OH226876   6.003   3.302   1.199
 8971TIP3    H126877   5.997   3.314   1.105
 8971TIP3    H226878   5.949   3.225   1.217
 8972TIP3   OH226879   0.947   6.097   4.494
 8972TIP3    H126880   0.893   6.024   4.524
 8972TIP3    H226881   0.915   6.115   4.405
 8973TIP3   OH226882   6.674   3.523   4.783
 8973TIP3    H126883   6.662   3.609   4.745
 8973TIP3    H226884   6.741   3.535   4.851
 8974TIP3   OH226885   2.079   3.423   4.006
 8974TIP3    H126886   2.001   3.371   3.985
 8974TIP3    H226887   2.136   3.363   4.053
 8975TIP3   OH226888   1.125   2.628   0.848
 8975TIP3    H126889   1.211   2.621   0.806
 8975TIP3    H226890   1.114   2.545   0.894
 8976TIP3   OH226891   1.220   0.956   3.636
 8976TIP3    H126892   1.203   1.045   3.609
 8976TIP3    H226893   1.301   0.961   3.687
 8977TIP3   OH226894   3.428   2.974   5.600
 8977TIP3    H126895   3.398   2.998   5.512
 8977TIP3    H226896   3.480   3.050   5.629
 8978TIP3   OH226897   4.256   2.845   5.462
 8978TIP3    H126898   4.192   2.902   5.418
 8978TIP3    H226899   4.293   2.793   5.391
 8979TIP3   OH226900   3.775   1.949   1.777
 8979TIP3    H126901   3.855   1.995   1.804
 8979TIP3    H226902   3.770   1.963   1.683
 8980TIP3   OH226903   0.952   1.069   1.474
 8980TIP3    H126904   0.869   1.089   1.518
 8980TIP3    H226905   1.018   1.079   1.542
 8981TIP3   OH226906   5.113   4.294   3.516
 8981TIP3    H126907   5.195   4.339   3.537
 8981TIP3    H226908   5.130   4.203   3.538
 8982TIP3   OH226909   3.769   1.996   1.516
 8982TIP3    H126910   3.716   2.075   1.498
 8982TIP3    H226911   3.716   1.924   1.480
 8983TIP3   OH226912   1.382   5.870   3.004
 8983TIP3    H126913   1.415   5.783   2.982
 8983TIP3    H226914   1.342   5.902   2.923
 8984TIP3   OH226915   0.105   0.873   3.004
 8984TIP3    H126916   0.129   0.833   2.921
 8984TIP3    H226917   0.138   0.963   2.998
 8985TIP3   OH226918   6.771   4.743   0.634
 8985TIP3    H126919   6.725   4.685   0.695
 8985TIP3    H226920   6.852   4.767   0.680
 8986TIP3   OH226921   0.354   0.413   5.135
 8986TIP3    H126922   0.369   0.495   5.087
 8986TIP3    H226923   0.425   0.409   5.199
 8987TIP3   OH226924   4.771   6.567   1.390
 8987TIP3    H126925   4.696   6.583   1.332
 8987TIP3    H226926   4.824   6.503   1.343
 8988TIP3   OH226927   5.068   2.316   0.411
 8988TIP3    H126928   5.126   2.294   0.484
 8988TIP3    H226929   5.086   2.408   0.393
 8989TIP3   OH226930   4.923   4.127   1.381
 8989TIP3    H126931   4.994   4.167   1.431
 8989TIP3    H226932   4.851   4.120   1.443
 8990TIP3   OH226933   6.972   6.130   2.717
 8990TIP3    H126934   7.005   6.103   2.803
 8990TIP3    H226935   6.877   6.138   2.729
 8991TIP3   OH226936   1.705   6.743   1.763
 8991TIP3    H126937   1.663   6.786   1.689
 8991TIP3    H226938   1.691   6.802   1.837
 8992TIP3   OH226939   4.657   5.785   3.689
 8992TIP3    H126940   4.606   5.716   3.732
 8992TIP3    H226941   4.595   5.827   3.629
 8993TIP3   OH226942   3.674  -0.011   2.787
 8993TIP3    H126943   3.586  -0.002   2.750
 8993TIP3    H226944   3.667   0.027   2.875
 8994TIP3   OH226945   6.638   0.771   4.498
 8994TIP3    H126946   6.594   0.706   4.553
 8994TIP3    H226947   6.661   0.842   4.557
 8995TIP3   OH226948   2.594   3.329   3.265
 8995TIP3    H126949   2.620   3.383   3.340
 8995TIP3    H226950   2.676   3.310   3.219
 8996TIP3   OH226951   4.501   1.233   4.219
 8996TIP3    H126952   4.539   1.257   4.303
 8996TIP3    H226953   4.545   1.289   4.156
 8997TIP3   OH226954   4.261   1.284   0.464
 8997TIP3    H126955   4.313   1.359   0.493
 8997TIP3    H226956   4.170   1.315   0.469
 8998TIP3   OH226957   1.384   3.826   1.605
 8998TIP3    H126958   1.383   3.873   1.689
 8998TIP3    H226959   1.292   3.818   1.581
 8999TIP3   OH226960   3.658   1.511   1.443
 8999TIP3    H126961   3.749   1.540   1.454
 8999TIP3    H226962   3.664   1.435   1.385
 9000TIP3   OH226963   3.198   1.543   0.060
 9000TIP3    H126964   3.228   1.545  -0.031
 9000TIP3    H226965   3.141   1.619   0.068
 9001TIP3   OH226966   5.422   4.063   2.528
 9001TIP3    H126967   5.436   3.983   2.579
 9001TIP3    H226968   5.327   4.074   2.527
 9002TIP3   OH226969   2.475   0.770   2.065
 9002TIP3    H126970   2.540   0.704   2.040
 9002TIP3    H226971   2.398   0.719   2.091
 9003TIP3   OH226972   1.753   1.636   3.484
 9003TIP3    H126973   1.771   1.602   3.396
 9003TIP3    H226974   1.765   1.561   3.542
 9004TIP3   OH226975   2.912   1.892   4.679
 9004TIP3    H126976   2.965   1.826   4.725
 9004TIP3    H226977   2.976   1.940   4.626
 9005TIP3   OH226978   5.088   2.597   2.511
 9005TIP3    H126979   5.072   2.504   2.524
 9005TIP3    H226980   5.025   2.641   2.569
 9006TIP3   OH226981   0.976   3.957   1.660
 9006TIP3    H126982   0.948   3.881   1.711
 9006TIP3    H226983   0.914   3.960   1.586
 9007TIP3   OH226984   1.377   3.864   3.831
 9007TIP3    H126985   1.414   3.926   3.769
 9007TIP3    H226986   1.294   3.836   3.790
 9008TIP3   OH226987   2.078   0.463   1.724
 9008TIP3    H126988   2.070   0.493   1.814
 9008TIP3    H226989   1.996   0.489   1.682
 9009TIP3   OH226990   6.570   3.769   3.489
 9009TIP3    H126991   6.601   3.840   3.433
 9009TIP3    H226992   6.475   3.769   3.479
 9010TIP3   OH226993   5.986   6.621   1.350
 9010TIP3    H126994   5.895   6.592   1.348
 9010TIP3    H226995   5.983   6.712   1.321
 9011TIP3   OH226996   4.962   2.626   2.126
 9011TIP3    H126997   4.956   2.665   2.039
 9011TIP3    H226998   5.026   2.682   2.172
 9012TIP3   OH226999   0.793   6.683   3.267
 9012TIP3    H127000   0.828   6.634   3.193
 9012TIP3    H227001   0.799   6.775   3.240
 9013TIP3   OH227002   1.018   6.295   0.778
 9013TIP3    H127003   1.083   6.360   0.752
 9013TIP3    H227004   1.001   6.314   0.870
 9014TIP3   OH227005   6.742   5.098   5.689
 9014TIP3    H127006   6.813   5.052   5.734
 9014TIP3    H227007   6.761   5.191   5.703
 9015TIP3   OH227008   6.442   5.524   1.387
 9015TIP3    H127009   6.393   5.445   1.410
 9015TIP3    H227010   6.441   5.577   1.467
 9016TIP3   OH227011   2.601   4.990   0.705
 9016TIP3    H127012   2.591   5.000   0.800
 9016TIP3    H227013   2.686   4.948   0.694
 9017TIP3   OH227014   6.550   5.198   2.056
 9017TIP3    H127015   6.566   5.107   2.030
 9017TIP3    H227016   6.462   5.217   2.026
 9018TIP3   OH227017   2.199   5.050   3.828
 9018TIP3    H127018   2.181   5.026   3.737
 9018TIP3    H227019   2.274   5.110   3.822
 9019TIP3   OH227020   7.115   3.430   4.054
 9019TIP3    H127021   7.146   3.506   4.103
 9019TIP3    H227022   7.144   3.355   4.106
 9020TIP3   OH227023   4.482   6.574   2.769
 9020TIP3    H127024   4.509   6.547   2.857
 9020TIP3    H227025   4.549   6.636   2.741
 9021TIP3   OH227026   0.404   0.773   3.534
 9021TIP3    H127027   0.429   0.798   3.623
 9021TIP3    H227028   0.487   0.766   3.486
 9022TIP3   OH227029   1.580   4.114   2.667
 9022TIP3    H127030   1.623   4.197   2.688
 9022TIP3    H227031   1.602   4.098   2.575
 9023TIP3   OH227032   0.677   4.130   3.190
 9023TIP3    H127033   0.747   4.147   3.252
 9023TIP3    H227034   0.721   4.098   3.112
 9024TIP3   OH227035   3.983   2.270   5.387
 9024TIP3    H127036   3.991   2.269   5.292
 9024TIP3    H227037   4.014   2.356   5.414
 9025TIP3   OH227038   2.706   1.026   5.797
 9025TIP3    H127039   2.621   0.991   5.772
 9025TIP3    H227040   2.752   1.037   5.714
 9026TIP3   OH227041   1.225  -0.030   0.863
 9026TIP3    H127042   1.158  -0.008   0.798
 9026TIP3    H227043   1.260   0.055   0.890
 9027TIP3   OH227044   0.068   3.216   1.402
 9027TIP3    H127045   0.065   3.136   1.453
 9027TIP3    H227046   0.083   3.186   1.312
 9028TIP3   OH227047   5.837   6.278   5.058
 9028TIP3    H127048   5.797   6.257   4.974
 9028TIP3    H227049   5.869   6.194   5.091
 9029TIP3   OH227050   2.657   4.326   3.851
 9029TIP3    H127051   2.610   4.345   3.932
 9029TIP3    H227052   2.749   4.320   3.878
 9030TIP3   OH227053   0.608   0.003   0.267
 9030TIP3    H127054   0.609   0.094   0.239
 9030TIP3    H227055   0.517  -0.015   0.291
 9031TIP3   OH227056   7.117   3.926   0.692
 9031TIP3    H127057   7.131   3.832   0.692
 9031TIP3    H227058   7.145   3.955   0.779
 9032TIP3   OH227059   2.168   0.800   0.721
 9032TIP3    H127060   2.254   0.827   0.687
 9032TIP3    H227061   2.109   0.870   0.694
 9033TIP3   OH227062   6.195   5.688   1.013
 9033TIP3    H127063   6.264   5.674   0.948
 9033TIP3    H227064   6.118   5.645   0.976
 9034TIP3   OH227065   5.457   3.793   3.829
 9034TIP3    H127066   5.439   3.700   3.817
 9034TIP3    H227067   5.446   3.831   3.741
 9035TIP3   OH227068   4.786   0.309   0.043
 9035TIP3    H127069   4.747   0.396   0.029
 9035TIP3    H227070   4.724   0.248   0.004
 9036TIP3   OH227071   2.501   5.526   5.846
 9036TIP3    H127072   2.405   5.523   5.844
 9036TIP3    H227073   2.528   5.479   5.767
 9037TIP3   OH227074   2.056   1.141   1.410
 9037TIP3    H127075   1.966   1.135   1.443
 9037TIP3    H227076   2.103   1.189   1.478
 9038TIP3   OH227077   6.175   3.472   2.198
 9038TIP3    H127078   6.168   3.391   2.250
 9038TIP3    H227079   6.221   3.445   2.118
 9039TIP3   OH227080   4.422   1.296   1.043
 9039TIP3    H127081   4.445   1.380   1.003
 9039TIP3    H227082   4.495   1.238   1.021
 9040TIP3   OH227083   3.074   4.139   4.713
 9040TIP3    H127084   3.093   4.123   4.805
 9040TIP3    H227085   3.161   4.148   4.672
 9041TIP3   OH227086   2.108   5.217   0.373
 9041TIP3    H127087   2.187   5.259   0.339
 9041TIP3    H227088   2.036   5.266   0.334
 9042TIP3   OH227089   0.648   5.852   5.125
 9042TIP3    H127090   0.721   5.911   5.140
 9042TIP3    H227091   0.571   5.900   5.155
 9043TIP3   OH227092   0.166   1.617   3.058
 9043TIP3    H127093   0.142   1.610   2.966
 9043TIP3    H227094   0.246   1.671   3.058
 9044TIP3   OH227095   5.349   1.028   1.167
 9044TIP3    H127096   5.281   1.092   1.186
 9044TIP3    H227097   5.420   1.050   1.227
 9045TIP3   OH227098   6.189   2.671   5.153
 9045TIP3    H127099   6.208   2.646   5.063
 9045TIP3    H227100   6.271   2.654   5.200
 9046TIP3   OH227101   1.317   3.877   2.526
 9046TIP3    H127102   1.274   3.932   2.592
 9046TIP3    H227103   1.307   3.926   2.444
 9047TIP3   OH227104   1.114   1.551   0.378
 9047TIP3    H127105   1.045   1.486   0.364
 9047TIP3    H227106   1.092   1.622   0.317
 9048TIP3   OH227107   5.596   4.007   5.001
 9048TIP3    H127108   5.570   4.000   4.909
 9048TIP3    H227109   5.625   4.097   5.010
 9049TIP3   OH227110   0.786   5.140   1.146
 9049TIP3    H127111   0.742   5.213   1.103
 9049TIP3    H227112   0.807   5.173   1.234
 9050TIP3   OH227113   4.794   1.424   4.342
 9050TIP3    H127114   4.738   1.389   4.411
 9050TIP3    H227115   4.850   1.351   4.317
 9051TIP3   OH227116   4.037   0.937   4.656
 9051TIP3    H127117   3.975   0.915   4.725
 9051TIP3    H227118   4.060   0.852   4.617
 9052TIP3   OH227119   4.653   1.560   0.029
 9052TIP3    H127120   4.697   1.504  -0.035
 9052TIP3    H227121   4.644   1.505   0.107
 9053TIP3   OH227122   2.334   1.573   5.352
 9053TIP3    H127123   2.309   1.664   5.366
 9053TIP3    H227124   2.409   1.559   5.410
 9054TIP3   OH227125   2.882   1.750   3.179
 9054TIP3    H127126   2.867   1.656   3.173
 9054TIP3    H227127   2.795   1.787   3.193
 9055TIP3   OH227128   6.571   5.614   3.722
 9055TIP3    H127129   6.537   5.608   3.633
 9055TIP3    H227130   6.584   5.708   3.736
 9056TIP3   OH227131   3.732   5.454   1.172
 9056TIP3    H127132   3.694   5.527   1.220
 9056TIP3    H227133   3.696   5.375   1.214
 9057TIP3   OH227134   2.999   0.924   0.620
 9057TIP3    H127135   2.963   1.009   0.645
 9057TIP3    H227136   3.092   0.931   0.641
 9058TIP3   OH227137   6.694   2.603   0.129
 9058TIP3    H127138   6.655   2.611   0.042
 9058TIP3    H227139   6.688   2.510   0.150
 9059TIP3   OH227140   3.594   1.589   2.029
 9059TIP3    H127141   3.613   1.514   2.085
 9059TIP3    H227142   3.680   1.622   2.003
 9060TIP3   OH227143   0.663   1.589   5.184
 9060TIP3    H127144   0.646   1.667   5.237
 9060TIP3    H227145   0.675   1.519   5.248
 9061TIP3   OH227146   5.802   5.193   3.164
 9061TIP3    H127147   5.800   5.221   3.073
 9061TIP3    H227148   5.739   5.250   3.208
 9062TIP3   OH227149   5.188   5.693   0.939
 9062TIP3    H127150   5.121   5.671   1.004
 9062TIP3    H227151   5.173   5.632   0.867
 9063TIP3   OH227152   5.741   2.436   5.269
 9063TIP3    H127153   5.736   2.413   5.176
 9063TIP3    H227154   5.795   2.515   5.272
 9064TIP3   OH227155   5.355   2.780   0.103
 9064TIP3    H127156   5.439   2.780   0.148
 9064TIP3    H227157   5.294   2.816   0.168
 9065TIP3   OH227158   6.018   3.865   5.352
 9065TIP3    H127159   6.087   3.805   5.325
 9065TIP3    H227160   6.041   3.948   5.310
 9066TIP3   OH227161   2.846   4.091   5.661
 9066TIP3    H127162   2.906   4.100   5.734
 9066TIP3    H227163   2.892   4.033   5.599
 9067TIP3   OH227164   3.071   2.983   2.793
 9067TIP3    H127165   3.119   2.978   2.875
 9067TIP3    H227166   3.139   2.982   2.725
 9068TIP3   OH227167   5.509   0.767   0.554
 9068TIP3    H127168   5.580   0.822   0.586
 9068TIP3    H227169   5.504   0.695   0.618
 9069TIP3   OH227170   2.872   3.991   5.394
 9069TIP3    H127171   2.807   4.033   5.338
 9069TIP3    H227172   2.951   4.044   5.382
 9070TIP3   OH227173   1.894   5.544   2.207
 9070TIP3    H127174   1.868   5.505   2.124
 9070TIP3    H227175   1.863   5.635   2.201
 9071TIP3   OH227176   2.985   6.191   0.313
 9071TIP3    H127177   2.994   6.261   0.249
 9071TIP3    H227178   2.957   6.235   0.393
 9072TIP3   OH227179   2.281   3.232   1.381
 9072TIP3    H127180   2.313   3.154   1.336
 9072TIP3    H227181   2.196   3.250   1.341
 9073TIP3   OH227182   4.440   4.453   4.849
 9073TIP3    H127183   4.469   4.488   4.933
 9073TIP3    H227184   4.481   4.366   4.844
 9074TIP3   OH227185   4.774   3.369   3.237
 9074TIP3    H127186   4.789   3.464   3.235
 9074TIP3    H227187   4.856   3.331   3.205
 9075TIP3   OH227188   1.149   4.473   5.717
 9075TIP3    H127189   1.231   4.466   5.764
 9075TIP3    H227190   1.107   4.551   5.753
 9076TIP3   OH227191   0.146   4.868   4.100
 9076TIP3    H127192   0.161   4.851   4.193
 9076TIP3    H227193   0.214   4.931   4.076
 9077TIP3   OH227194   0.550   6.076   2.489
 9077TIP3    H127195   0.531   6.001   2.432
 9077TIP3    H227196   0.544   6.152   2.431
 9078TIP3   OH227197   3.111   0.061   3.592
 9078TIP3    H127198   3.025   0.065   3.551
 9078TIP3    H227199   3.104  -0.011   3.654
 9079TIP3   OH227200   1.140   2.751   4.123
 9079TIP3    H127201   1.115   2.711   4.207
 9079TIP3    H227202   1.061   2.796   4.093
 9080TIP3   OH227203   3.901   3.541   5.176
 9080TIP3    H127204   3.806   3.542   5.167
 9080TIP3    H227205   3.933   3.563   5.089
 9081TIP3   OH227206   5.911   4.471   3.665
 9081TIP3    H127207   5.882   4.380   3.668
 9081TIP3    H227208   5.930   4.493   3.756
 9082TIP3   OH227209   5.273   2.640   3.761
 9082TIP3    H127210   5.328   2.595   3.825
 9082TIP3    H227211   5.265   2.578   3.688
 9083TIP3   OH227212   2.212   0.133   0.404
 9083TIP3    H127213   2.178   0.211   0.360
 9083TIP3    H227214   2.134   0.078   0.418
 9084TIP3   OH227215   6.341   6.613   4.913
 9084TIP3    H127216   6.350   6.692   4.859
 9084TIP3    H227217   6.251   6.616   4.945
 9085TIP3   OH227218   7.170   2.703   1.431
 9085TIP3    H127219   7.132   2.626   1.472
 9085TIP3    H227220   7.114   2.721   1.356
 9086TIP3   OH227221   7.128   1.025   0.126
 9086TIP3    H127222   7.054   0.984   0.172
 9086TIP3    H227223   7.183   0.952   0.098
 9087TIP3   OH227224   0.533   3.129   3.892
 9087TIP3    H127225   0.447   3.114   3.852
 9087TIP3    H227226   0.582   3.049   3.873
 9088TIP3   OH227227   3.867   2.842   2.478
 9088TIP3    H127228   3.949   2.879   2.508
 9088TIP3    H227229   3.892   2.764   2.429
 9089TIP3   OH227230   4.567   1.605   5.346
 9089TIP3    H127231   4.616   1.524   5.333
 9089TIP3    H227232   4.479   1.585   5.317
 9090TIP3   OH227233   3.271   5.637   0.588
 9090TIP3    H127234   3.218   5.577   0.536
 9090TIP3    H227235   3.361   5.605   0.579
 9091TIP3   OH227236   5.049   3.325   5.144
 9091TIP3    H127237   5.016   3.406   5.104
 9091TIP3    H227238   5.050   3.345   5.238
 9092TIP3   OH227239   1.796   0.155   4.816
 9092TIP3    H127240   1.859   0.096   4.858
 9092TIP3    H227241   1.739   0.184   4.886
 9093TIP3   OH227242   0.954   1.836   1.992
 9093TIP3    H127243   0.933   1.799   1.906
 9093TIP3    H227244   0.878   1.813   2.047
 9094TIP3   OH227245   2.277   1.847   5.135
 9094TIP3    H127246   2.241   1.869   5.221
 9094TIP3    H227247   2.330   1.924   5.112
 9095TIP3   OH227248   6.989   1.368   5.070
 9095TIP3    H127249   7.017   1.277   5.061
 9095TIP3    H227250   7.025   1.412   4.994
 9096TIP3   OH227251   0.104   2.880   0.920
 9096TIP3    H127252   0.177   2.916   0.970
 9096TIP3    H227253   0.144   2.847   0.839
 9097TIP3   OH227254   7.033   3.833   0.340
 9097TIP3    H127255   6.969   3.865   0.275
 9097TIP3    H227256   6.981   3.820   0.419
 9098TIP3   OH227257   7.006   0.547   3.405
 9098TIP3    H127258   7.027   0.637   3.428
 9098TIP3    H227259   7.081   0.496   3.438
 9099TIP3   OH227260   4.617   2.706   2.017
 9099TIP3    H127261   4.555   2.646   1.976
 9099TIP3    H227262   4.698   2.695   1.966
 9100TIP3   OH227263   3.124   2.242   5.742
 9100TIP3    H127264   3.135   2.317   5.801
 9100TIP3    H227265   3.073   2.179   5.792
 9101TIP3   OH227266   5.907   5.809   1.632
 9101TIP3    H127267   5.815   5.835   1.636
 9101TIP3    H227268   5.933   5.801   1.724
 9102TIP3   OH227269   5.042   1.032   5.507
 9102TIP3    H127270   5.094   1.055   5.430
 9102TIP3    H227271   5.101   0.981   5.562
 9103TIP3   OH227272   6.358   0.405   0.616
 9103TIP3    H127273   6.331   0.456   0.539
 9103TIP3    H227274   6.290   0.338   0.625
 9104TIP3   OH227275   0.915   0.088   5.732
 9104TIP3    H127276   0.837   0.134   5.763
 9104TIP3    H227277   0.964   0.067   5.811
 9105TIP3   OH227278   3.133   3.226   3.046
 9105TIP3    H127279   3.147   3.131   3.050
 9105TIP3    H227280   3.218   3.261   3.018
 9106TIP3   OH227281   6.204   0.915   0.934
 9106TIP3    H127282   6.198   0.828   0.894
 9106TIP3    H227283   6.212   0.975   0.860
 9107TIP3   OH227284   3.016   0.134   0.235
 9107TIP3    H127285   2.932   0.167   0.205
 9107TIP3    H227286   2.994   0.068   0.301
 9108TIP3   OH227287   0.351   5.728   0.847
 9108TIP3    H127288   0.351   5.695   0.757
 9108TIP3    H227289   0.325   5.653   0.899
 9109TIP3   OH227290   6.348   2.588   2.880
 9109TIP3    H127291   6.363   2.513   2.821
 9109TIP3    H227292   6.316   2.657   2.822
 9110TIP3   OH227293   2.286   5.692   1.928
 9110TIP3    H127294   2.331   5.714   1.846
 9110TIP3    H227295   2.321   5.606   1.953
 9111TIP3   OH227296   1.689   2.599   4.916
 9111TIP3    H127297   1.676   2.693   4.928
 9111TIP3    H227298   1.621   2.558   4.968
 9112TIP3   OH227299   3.943   6.768   5.694
 9112TIP3    H127300   3.927   6.860   5.675
 9112TIP3    H227301   3.864   6.740   5.741
 9113TIP3   OH227302   5.551   4.613   4.187
 9113TIP3    H127303   5.576   4.622   4.095
 9113TIP3    H227304   5.565   4.700   4.224
 9114TIP3   OH227305   4.396   0.690   5.454
 9114TIP3    H127306   4.468   0.749   5.477
 9114TIP3    H227307   4.359   0.728   5.375
 9115TIP3   OH227308   1.308   3.916   0.119
 9115TIP3    H127309   1.310   3.824   0.093
 9115TIP3    H227310   1.325   3.964   0.038
 9116TIP3   OH227311   0.037   0.762   4.572
 9116TIP3    H127312  -0.005   0.831   4.623
 9116TIP3    H227313   0.027   0.790   4.481
 9117TIP3   OH227314   3.220   1.608   3.784
 9117TIP3    H127315   3.225   1.679   3.721
 9117TIP3    H227316   3.258   1.533   3.738
 9118TIP3   OH227317   1.352   6.016   5.146
 9118TIP3    H127318   1.338   6.004   5.052
 9118TIP3    H227319   1.314   5.937   5.186
 9119TIP3   OH227320   0.793   3.763   1.813
 9119TIP3    H127321   0.747   3.846   1.806
 9119TIP3    H227322   0.762   3.723   1.894
 9120TIP3   OH227323   2.039   3.747   2.461
 9120TIP3    H127324   2.044   3.660   2.501
 9120TIP3    H227325   1.946   3.766   2.456
 9121TIP3   OH227326   0.316   2.978   1.085
 9121TIP3    H127327   0.390   3.002   1.140
 9121TIP3    H227328   0.354   2.923   1.017
 9122TIP3   OH227329   6.236   3.684   0.335
 9122TIP3    H127330   6.238   3.741   0.411
 9122TIP3    H227331   6.217   3.742   0.261
 9123TIP3   OH227332   0.363   3.523   0.984
 9123TIP3    H127333   0.344   3.508   1.077
 9123TIP3    H227334   0.340   3.441   0.941
 9124TIP3   OH227335   1.955   4.644   2.724
 9124TIP3    H127336   1.933   4.567   2.672
 9124TIP3    H227337   2.008   4.699   2.666
 9125TIP3   OH227338   0.594   3.976   5.649
 9125TIP3    H127339   0.523   3.932   5.602
 9125TIP3    H227340   0.558   3.997   5.735
 9126TIP3   OH227341   5.374   1.019   0.414
 9126TIP3    H127342   5.396   0.937   0.459
 9126TIP3    H227343   5.353   1.080   0.484
 9127TIP3   OH227344   2.766   2.302   5.762
 9127TIP3    H127345   2.795   2.393   5.764
 9127TIP3    H227346   2.675   2.305   5.793
 9128TIP3   OH227347   1.801   1.423   2.711
 9128TIP3    H127348   1.815   1.439   2.805
 9128TIP3    H227349   1.772   1.332   2.706
 9129TIP3   OH227350   5.984   3.780   1.296
 9129TIP3    H127351   6.021   3.862   1.330
 9129TIP3    H227352   5.892   3.783   1.321
 9130TIP3   OH227353   1.336   6.409   0.937
 9130TIP3    H127354   1.368   6.494   0.908
 9130TIP3    H227355   1.411   6.350   0.925
 9131TIP3   OH227356   1.898   1.256   5.629
 9131TIP3    H127357   1.941   1.207   5.698
 9131TIP3    H227358   1.951   1.240   5.551
 9132TIP3   OH227359   5.841   3.663   2.790
 9132TIP3    H127360   5.805   3.694   2.707
 9132TIP3    H227361   5.906   3.729   2.815
 9133TIP3   OH227362   1.523   3.334   1.857
 9133TIP3    H127363   1.462   3.405   1.836
 9133TIP3    H227364   1.509   3.270   1.787
 9134TIP3   OH227365   2.798   0.727   4.735
 9134TIP3    H127366   2.704   0.713   4.748
 9134TIP3    H227367   2.839   0.675   4.805
 9135TIP3   OH227368   5.548   3.784   1.763
 9135TIP3    H127369   5.620   3.816   1.709
 9135TIP3    H227370   5.582   3.706   1.807
 9136TIP3   OH227371   5.957   5.344   1.415
 9136TIP3    H127372   5.955   5.258   1.457
 9136TIP3    H227373   5.900   5.398   1.469
 9137TIP3   OH227374   3.672   1.361   3.579
 9137TIP3    H127375   3.678   1.374   3.484
 9137TIP3    H227376   3.650   1.447   3.614
 9138TIP3   OH227377   3.736   3.682   0.290
 9138TIP3    H127378   3.691   3.731   0.221
 9138TIP3    H227379   3.674   3.681   0.363
 9139TIP3   OH227380   5.832   3.381   4.169
 9139TIP3    H127381   5.737   3.373   4.183
 9139TIP3    H227382   5.841   3.450   4.103
 9140TIP3   OH227383   3.541   5.771   3.868
 9140TIP3    H127384   3.620   5.719   3.882
 9140TIP3    H227385   3.491   5.722   3.804
 9141TIP3   OH227386   5.629   3.178   3.812
 9141TIP3    H127387   5.719   3.168   3.783
 9141TIP3    H227388   5.586   3.226   3.742
 9142TIP3   OH227389   3.184   2.212   2.815
 9142TIP3    H127390   3.136   2.148   2.762
 9142TIP3    H227391   3.148   2.297   2.787
 9143TIP3   OH227392   5.360   0.109   3.221
 9143TIP3    H127393   5.317   0.078   3.141
 9143TIP3    H227394   5.312   0.067   3.292
 9144TIP3   OH227395   5.987   0.646   2.020
 9144TIP3    H127396   5.950   0.687   2.098
 9144TIP3    H227397   5.931   0.569   2.005
 9145TIP3   OH227398   0.602   4.758   2.044
 9145TIP3    H127399   0.654   4.716   2.112
 9145TIP3    H227400   0.666   4.791   1.982
 9146TIP3   OH227401   4.278   0.716   0.959
 9146TIP3    H127402   4.245   0.797   0.921
 9146TIP3    H227403   4.316   0.668   0.885
 9147TIP3   OH227404   1.517   3.858   2.720
 9147TIP3    H127405   1.536   3.943   2.681
 9147TIP3    H227406   1.450   3.819   2.663
 9148TIP3   OH227407   4.791   3.998   4.318
 9148TIP3    H127408   4.779   3.904   4.325
 9148TIP3    H227409   4.703   4.034   4.325
 9149TIP3   OH227410   5.381   4.566   5.291
 9149TIP3    H127411   5.461   4.513   5.289
 9149TIP3    H227412   5.310   4.503   5.295
 9150TIP3   OH227413   6.226   2.374   4.833
 9150TIP3    H127414   6.194   2.318   4.904
 9150TIP3    H227415   6.190   2.461   4.852
 9151TIP3   OH227416   6.255   1.889   5.252
 9151TIP3    H127417   6.331   1.913   5.306
 9151TIP3    H227418   6.186   1.871   5.315
 9152TIP3   OH227419   2.498   0.455   2.808
 9152TIP3    H127420   2.540   0.508   2.741
 9152TIP3    H227421   2.566   0.439   2.873
 9153TIP3   OH227422   2.256   3.952   1.464
 9153TIP3    H127423   2.249   3.958   1.560
 9153TIP3    H227424   2.165   3.948   1.435
 9154TIP3   OH227425   6.029   2.718   1.824
 9154TIP3    H127426   6.040   2.638   1.772
 9154TIP3    H227427   5.937   2.741   1.812
 9155TIP3   OH227428   4.894   0.873   1.368
 9155TIP3    H127429   4.925   0.939   1.430
 9155TIP3    H227430   4.974   0.842   1.325
 9156TIP3   OH227431   5.876   6.081   2.927
 9156TIP3    H127432   5.809   6.103   2.991
 9156TIP3    H227433   5.951   6.051   2.979
 9157TIP3   OH227434   0.180   6.674   1.589
 9157TIP3    H127435   0.137   6.729   1.523
 9157TIP3    H227436   0.206   6.596   1.542
 9158TIP3   OH227437   4.491   3.855   4.598
 9158TIP3    H127438   4.404   3.885   4.575
 9158TIP3    H227439   4.480   3.761   4.615
 9159TIP3   OH227440   3.441   6.233   5.533
 9159TIP3    H127441   3.384   6.310   5.524
 9159TIP3    H227442   3.492   6.232   5.452
 9160TIP3   OH227443   7.030   4.400   0.431
 9160TIP3    H127444   7.000   4.483   0.394
 9160TIP3    H227445   7.090   4.425   0.501
 9161TIP3   OH227446   6.630   4.649   4.779
 9161TIP3    H127447   6.725   4.647   4.765
 9161TIP3    H227448   6.597   4.573   4.732
 9162TIP3   OH227449   2.333   2.796   1.052
 9162TIP3    H127450   2.282   2.842   0.986
 9162TIP3    H227451   2.268   2.748   1.103
 9163TIP3   OH227452   4.220   1.254   4.136
 9163TIP3    H127453   4.296   1.207   4.104
 9163TIP3    H227454   4.248   1.293   4.218
 9164TIP3   OH227455   0.352   5.901   0.260
 9164TIP3    H127456   0.286   5.876   0.325
 9164TIP3    H227457   0.331   5.848   0.183
 9165TIP3   OH227458   4.332   0.514   2.396
 9165TIP3    H127459   4.285   0.501   2.313
 9165TIP3    H227460   4.280   0.466   2.460
 9166TIP3   OH227461   2.040   3.295   2.021
 9166TIP3    H127462   1.988   3.264   2.096
 9166TIP3    H227463   2.003   3.382   2.002
 9167TIP3   OH227464   0.584   4.954   0.100
 9167TIP3    H127465   0.495   4.981   0.077
 9167TIP3    H227466   0.582   4.942   0.195
 9168TIP3   OH227467   0.411   3.626   1.719
 9168TIP3    H127468   0.496   3.584   1.726
 9168TIP3    H227469   0.355   3.579   1.781
 9169TIP3   OH227470   3.793   6.409   2.276
 9169TIP3    H127471   3.845   6.330   2.265
 9169TIP3    H227472   3.803   6.456   2.194
 9170TIP3   OH227473   1.976   1.877   2.363
 9170TIP3    H127474   1.897   1.883   2.416
 9170TIP3    H227475   1.944   1.864   2.274
 9171TIP3   OH227476   1.467   4.834   5.200
 9171TIP3    H127477   1.531   4.892   5.160
 9171TIP3    H227478   1.386   4.850   5.151
 9172TIP3   OH227479   5.015   1.255   4.327
 9172TIP3    H127480   5.033   1.189   4.260
 9172TIP3    H227481   5.099   1.296   4.344
 9173TIP3   OH227482   6.470   4.561   1.470
 9173TIP3    H127483   6.557   4.544   1.433
 9173TIP3    H227484   6.469   4.512   1.552
 9174TIP3   OH227485   5.754   5.949   5.231
 9174TIP3    H127486   5.810   6.024   5.251
 9174TIP3    H227487   5.807   5.873   5.253
 9175TIP3   OH227488   4.292   3.488   2.431
 9175TIP3    H127489   4.315   3.522   2.517
 9175TIP3    H227490   4.305   3.562   2.371
 9176TIP3   OH227491   1.576   6.480   3.718
 9176TIP3    H127492   1.581   6.399   3.669
 9176TIP3    H227493   1.604   6.548   3.657
 9177TIP3   OH227494   2.708   4.591   2.406
 9177TIP3    H127495   2.728   4.684   2.400
 9177TIP3    H227496   2.706   4.573   2.500
 9178TIP3   OH227497   3.104   4.330   5.530
 9178TIP3    H127498   3.013   4.358   5.535
 9178TIP3    H227499   3.146   4.395   5.474
 9179TIP3   OH227500   7.150   6.746   0.543
 9179TIP3    H127501   7.103   6.826   0.522
 9179TIP3    H227502   7.203   6.768   0.620
 9180TIP3   OH227503   1.739   6.113   4.746
 9180TIP3    H127504   1.735   6.196   4.697
 9180TIP3    H227505   1.827   6.080   4.730
 9181TIP3   OH227506   7.084   3.564  -0.013
 9181TIP3    H127507   7.153   3.497  -0.016
 9181TIP3    H227508   7.065   3.574   0.080
 9182TIP3   OH227509   0.154   6.576   1.884
 9182TIP3    H127510   0.142   6.589   1.790
 9182TIP3    H227511   0.087   6.512   1.908
 9183TIP3   OH227512   6.294   0.792   1.161
 9183TIP3    H127513   6.265   0.808   1.072
 9183TIP3    H227514   6.300   0.879   1.201
 9184TIP3   OH227515   1.995   5.723   1.682
 9184TIP3    H127516   1.982   5.640   1.636
 9184TIP3    H227517   1.963   5.790   1.621
 9185TIP3   OH227518   1.183   3.330   5.295
 9185TIP3    H127519   1.090   3.348   5.280
 9185TIP3    H227520   1.209   3.395   5.360
 9186TIP3   OH227521   3.501   3.539   2.960
 9186TIP3    H127522   3.443   3.594   2.908
 9186TIP3    H227523   3.562   3.501   2.897
 9187TIP3   OH227524   2.814   3.272   1.661
 9187TIP3    H127525   2.798   3.283   1.755
 9187TIP3    H227526   2.748   3.208   1.633
 9188TIP3   OH227527   1.926   0.363   1.360
 9188TIP3    H127528   2.004   0.418   1.372
 9188TIP3    H227529   1.853   0.422   1.380
 9189TIP3   OH227530   6.942   4.111   2.985
 9189TIP3    H127531   6.849   4.115   2.963
 9189TIP3    H227532   6.976   4.039   2.932
 9190TIP3   OH227533   0.952   5.374   5.717
 9190TIP3    H127534   0.907   5.292   5.699
 9190TIP3    H227535   0.999   5.358   5.799
 9191TIP3   OH227536   3.780   2.802   4.170
 9191TIP3    H127537   3.824   2.884   4.194
 9191TIP3    H227538   3.753   2.815   4.079
 9192TIP3   OH227539   4.451   4.806   1.896
 9192TIP3    H127540   4.537   4.791   1.937
 9192TIP3    H227541   4.468   4.801   1.802
 9193TIP3   OH227542   5.678   0.078   2.447
 9193TIP3    H127543   5.699   0.019   2.519
 9193TIP3    H227544   5.751   0.068   2.386
 9194TIP3   OH227545   6.300   1.363   3.744
 9194TIP3    H127546   6.264   1.274   3.751
 9194TIP3    H227547   6.290   1.400   3.831
 9195TIP3   OH227548   6.821   0.794   1.841
 9195TIP3    H127549   6.902   0.802   1.790
 9195TIP3    H227550   6.842   0.833   1.926
 9196TIP3   OH227551   3.674   6.178   2.606
 9196TIP3    H127552   3.768   6.174   2.585
 9196TIP3    H227553   3.671   6.222   2.691
 9197TIP3   OH227554   5.216   2.449   1.965
 9197TIP3    H127555   5.200   2.406   2.049
 9197TIP3    H227556   5.237   2.377   1.904
 9198TIP3   OH227557   0.414   5.960   3.080
 9198TIP3    H127558   0.487   6.003   3.036
 9198TIP3    H227559   0.382   5.896   3.016
 9199TIP3   OH227560   4.756   6.060   2.725
 9199TIP3    H127561   4.801   6.048   2.808
 9199TIP3    H227562   4.692   5.990   2.721
 9200TIP3   OH227563   5.740   3.742   2.070
 9200TIP3    H127564   5.678   3.812   2.050
 9200TIP3    H227565   5.801   3.782   2.133
 9201TIP3   OH227566   5.596   3.310   4.068
 9201TIP3    H127567   5.618   3.309   3.975
 9201TIP3    H227568   5.535   3.237   4.079
 9202TIP3   OH227569   4.096   4.359   5.776
 9202TIP3    H127570   4.044   4.439   5.787
 9202TIP3    H227571   4.045   4.290   5.818
 9203TIP3   OH227572   4.870   3.871   0.380
 9203TIP3    H127573   4.834   3.817   0.308
 9203TIP3    H227574   4.960   3.839   0.390
 9204TIP3   OH227575   6.535   3.054   0.313
 9204TIP3    H127576   6.515   3.015   0.228
 9204TIP3    H227577   6.629   3.044   0.323
 9205TIP3   OH227578   4.683   5.447   2.228
 9205TIP3    H127579   4.619   5.393   2.275
 9205TIP3    H227580   4.764   5.438   2.279
 9206TIP3   OH227581   1.649   6.103   0.180
 9206TIP3    H127582   1.694   6.118   0.263
 9206TIP3    H227583   1.686   6.167   0.120
 9207TIP3   OH227584   0.651   2.373   4.151
 9207TIP3    H127585   0.659   2.315   4.075
 9207TIP3    H227586   0.717   2.342   4.212
 9208TIP3   OH227587   0.056   5.511   5.614
 9208TIP3    H127588   0.124   5.578   5.606
 9208TIP3    H227589   0.020   5.524   5.702
 9209TIP3   OH227590   0.290   1.712   5.047
 9209TIP3    H127591   0.266   1.641   5.107
 9209TIP3    H227592   0.354   1.764   5.096
 9210TIP3   OH227593   4.599   5.327   5.720
 9210TIP3    H127594   4.621   5.342   5.628
 9210TIP3    H227595   4.505   5.309   5.719
 9211TIP3   OH227596   3.691   3.460   2.767
 9211TIP3    H127597   3.669   3.409   2.689
 9211TIP3    H227598   3.785   3.448   2.777
 9212TIP3   OH227599   3.365   5.305   5.620
 9212TIP3    H127600   3.328   5.272   5.702
 9212TIP3    H227601   3.424   5.375   5.647
 9213TIP3   OH227602   3.442   1.757   0.197
 9213TIP3    H127603   3.523   1.803   0.172
 9213TIP3    H227604   3.372   1.810   0.160
 9214TIP3   OH227605   3.217   1.357   1.756
 9214TIP3    H127606   3.259   1.388   1.836
 9214TIP3    H227607   3.281   1.377   1.686
 9215TIP3   OH227608   1.504   6.598   1.111
 9215TIP3    H127609   1.477   6.508   1.093
 9215TIP3    H227610   1.456   6.622   1.190
 9216TIP3   OH227611   6.636   4.981   0.589
 9216TIP3    H127612   6.645   4.973   0.494
 9216TIP3    H227613   6.665   4.897   0.623
 9217TIP3   OH227614   3.978   5.609   3.467
 9217TIP3    H127615   3.884   5.595   3.453
 9217TIP3    H227616   3.991   5.702   3.451
 9218TIP3   OH227617   2.405   6.121   0.281
 9218TIP3    H127618   2.437   6.099   0.193
 9218TIP3    H227619   2.328   6.065   0.293
 9219TIP3   OH227620   2.041   2.240   2.571
 9219TIP3    H127621   1.947   2.255   2.580
 9219TIP3    H227622   2.056   2.232   2.476
 9220TIP3   OH227623   6.144   5.026   0.288
 9220TIP3    H127624   6.060   5.061   0.318
 9220TIP3    H227625   6.208   5.090   0.319
 9221TIP3   OH227626   5.189   5.729   5.351
 9221TIP3    H127627   5.160   5.671   5.281
 9221TIP3    H227628   5.190   5.816   5.310
 9222TIP3   OH227629   5.794   2.795   1.687
 9222TIP3    H127630   5.820   2.877   1.645
 9222TIP3    H227631   5.735   2.822   1.757
 9223TIP3   OH227632   4.625   3.851   2.249
 9223TIP3    H127633   4.557   3.835   2.183
 9223TIP3    H227634   4.685   3.776   2.240
 9224TIP3   OH227635   4.171   4.481   4.944
 9224TIP3    H127636   4.125   4.527   4.874
 9224TIP3    H227637   4.259   4.466   4.909
 9225TIP3   OH227638   0.814   3.373   0.030
 9225TIP3    H127639   0.851   3.301   0.081
 9225TIP3    H227640   0.864   3.373  -0.052
 9226TIP3   OH227641   6.494   1.717   4.127
 9226TIP3    H127642   6.484   1.701   4.221
 9226TIP3    H227643   6.577   1.763   4.119
 9227TIP3   OH227644   6.346   1.432   0.941
 9227TIP3    H127645   6.418   1.432   0.878
 9227TIP3    H227646   6.360   1.511   0.993
 9228TIP3   OH227647   5.526   1.343   0.016
 9228TIP3    H127648   5.616   1.313   0.009
 9228TIP3    H227649   5.498   1.318   0.104
 9229TIP3   OH227650   0.249   0.116   4.094
 9229TIP3    H127651   0.165   0.130   4.050
 9229TIP3    H227652   0.282   0.034   4.056
 9230TIP3   OH227653   3.704   1.420   3.311
 9230TIP3    H127654   3.690   1.344   3.255
 9230TIP3    H227655   3.779   1.465   3.272
 9231TIP3   OH227656   5.210   3.274   1.514
 9231TIP3    H127657   5.249   3.224   1.586
 9231TIP3    H227658   5.264   3.352   1.508
 9232TIP3   OH227659   3.462   5.614   3.473
 9232TIP3    H127660   3.467   5.688   3.413
 9232TIP3    H227661   3.395   5.557   3.434
 9233TIP3   OH227662   1.211   4.225   4.972
 9233TIP3    H127663   1.116   4.236   4.961
 9233TIP3    H227664   1.219   4.162   5.043
 9234TIP3   OH227665   4.443   4.532   2.433
 9234TIP3    H127666   4.516   4.476   2.460
 9234TIP3    H227667   4.478   4.621   2.439
 9235TIP3   OH227668   6.897   2.984   1.895
 9235TIP3    H127669   6.804   2.989   1.915
 9235TIP3    H227670   6.937   3.055   1.945
 9236TIP3   OH227671   2.786   0.532   1.719
 9236TIP3    H127672   2.789   0.613   1.668
 9236TIP3    H227673   2.859   0.538   1.780
 9237TIP3   OH227674   5.467   6.368   5.679
 9237TIP3    H127675   5.441   6.310   5.608
 9237TIP3    H227676   5.562   6.377   5.669
 9238TIP3   OH227677   0.692   1.440   2.551
 9238TIP3    H127678   0.750   1.495   2.603
 9238TIP3    H227679   0.685   1.358   2.600
 9239TIP3   OH227680   1.567   0.875   0.680
 9239TIP3    H127681   1.525   0.799   0.639
 9239TIP3    H227682   1.645   0.839   0.723
 9240TIP3   OH227683   0.923   0.310   2.159
 9240TIP3    H127684   0.906   0.215   2.159
 9240TIP3    H227685   0.847   0.348   2.201
 9241TIP3   OH227686   3.949   2.093   0.568
 9241TIP3    H127687   4.038   2.080   0.601
 9241TIP3    H227688   3.951   2.054   0.480
 9242TIP3   OH227689   0.060   4.141   1.433
 9242TIP3    H127690   0.127   4.154   1.500
 9242TIP3    H227691   0.099   4.172   1.352
 9243TIP3   OH227692   4.124   4.126   1.725
 9243TIP3    H127693   4.144   4.207   1.678
 9243TIP3    H227694   4.051   4.150   1.783
 9244TIP3   OH227695   6.220   5.518   0.716
 9244TIP3    H127696   6.254   5.509   0.627
 9244TIP3    H227697   6.294   5.549   0.768
 9245TIP3   OH227698   4.894   5.419   0.533
 9245TIP3    H127699   4.905   5.505   0.494
 9245TIP3    H227700   4.900   5.358   0.460
 9246TIP3   OH227701   2.760   4.672   3.396
 9246TIP3    H127702   2.838   4.619   3.380
 9246TIP3    H227703   2.690   4.624   3.352
 9247TIP3   OH227704   1.790   1.467   5.046
 9247TIP3    H127705   1.724   1.528   5.010
 9247TIP3    H227706   1.742   1.418   5.113
 9248TIP3   OH227707   4.526   5.342   2.434
 9248TIP3    H127708   4.512   5.362   2.526
 9248TIP3    H227709   4.447   5.376   2.390
 9249TIP3   OH227710   5.219   1.749   5.544
 9249TIP3    H127711   5.140   1.711   5.581
 9249TIP3    H227712   5.203   1.844   5.543
 9250TIP3   OH227713   5.633   4.521   1.310
 9250TIP3    H127714   5.694   4.568   1.367
 9250TIP3    H227715   5.606   4.585   1.244
 9251TIP3   OH227716   3.322   2.076   4.372
 9251TIP3    H127717   3.260   2.028   4.316
 9251TIP3    H227718   3.399   2.089   4.318
 9252TIP3   OH227719   0.894   3.120   1.288
 9252TIP3    H127720   0.858   3.177   1.220
 9252TIP3    H227721   0.957   3.174   1.335
 9253TIP3   OH227722   0.281   3.406   1.840
 9253TIP3    H127723   0.265   3.365   1.755
 9253TIP3    H227724   0.196   3.404   1.884
 9254TIP3   OH227725   4.739   3.411   4.228
 9254TIP3    H127726   4.703   3.322   4.220
 9254TIP3    H227727   4.833   3.398   4.236
 9255TIP3   OH227728   4.695   1.672   3.734
 9255TIP3    H127729   4.782   1.635   3.720
 9255TIP3    H227730   4.691   1.689   3.828
 9256TIP3   OH227731   1.846   1.768   5.710
 9256TIP3    H127732   1.827   1.805   5.624
 9256TIP3    H227733   1.787   1.693   5.718
 9257TIP3   OH227734   0.994   3.363   1.392
 9257TIP3    H127735   0.932   3.406   1.333
 9257TIP3    H227736   1.025   3.432   1.450
 9258TIP3   OH227737   3.092   2.182   0.205
 9258TIP3    H127738   3.187   2.172   0.215
 9258TIP3    H227739   3.055   2.113   0.259
 9259TIP3   OH227740   3.989   3.688   0.796
 9259TIP3    H127741   4.084   3.677   0.799
 9259TIP3    H227742   3.962   3.685   0.888
 9260TIP3   OH227743   0.396   4.724   4.187
 9260TIP3    H127744   0.405   4.807   4.139
 9260TIP3    H227745   0.333   4.673   4.136
 9261TIP3   OH227746   3.050   5.187   5.465
 9261TIP3    H127747   3.029   5.177   5.372
 9261TIP3    H227748   3.004   5.115   5.508
 9262TIP3   OH227749   3.338   5.399   1.724
 9262TIP3    H127750   3.278   5.470   1.700
 9262TIP3    H227751   3.423   5.427   1.689
 9263TIP3   OH227752   6.812   2.964   5.816
 9263TIP3    H127753   6.866   2.952   5.739
 9263TIP3    H227754   6.859   2.919   5.887
 9264TIP3   OH227755   2.092   5.483   4.089
 9264TIP3    H127756   1.998   5.467   4.101
 9264TIP3    H227757   2.112   5.447   4.003
 9265TIP3   OH227758   6.620   0.067   2.514
 9265TIP3    H127759   6.637   0.004   2.585
 9265TIP3    H227760   6.568   0.136   2.556
 9266TIP3   OH227761   5.113   1.742   3.239
 9266TIP3    H127762   5.083   1.740   3.148
 9266TIP3    H227763   5.193   1.795   3.237
 9267TIP3   OH227764   1.861   5.666   0.102
 9267TIP3    H127765   1.778   5.708   0.081
 9267TIP3    H227766   1.890   5.709   0.183
 9268TIP3   OH227767   3.234   0.439   0.805
 9268TIP3    H127768   3.316   0.470   0.768
 9268TIP3    H227769   3.186   0.519   0.827
 9269TIP3   OH227770   6.477   2.954   4.930
 9269TIP3    H127771   6.394   2.986   4.896
 9269TIP3    H227772   6.519   3.032   4.967
 9270TIP3   OH227773   0.640   2.828   3.104
 9270TIP3    H127774   0.690   2.822   3.185
 9270TIP3    H227775   0.647   2.921   3.079
 9271TIP3   OH227776   2.683   4.830   4.126
 9271TIP3    H127777   2.594   4.837   4.092
 9271TIP3    H227778   2.680   4.875   4.211
 9272TIP3   OH227779   6.627   0.693   3.396
 9272TIP3    H127780   6.548   0.746   3.394
 9272TIP3    H227781   6.696   0.749   3.361
 9273TIP3   OH227782   6.467   6.310   0.046
 9273TIP3    H127783   6.427   6.258  -0.024
 9273TIP3    H227784   6.458   6.255   0.124
 9274TIP3   OH227785   1.374   5.201   5.598
 9274TIP3    H127786   1.417   5.239   5.675
 9274TIP3    H227787   1.316   5.270   5.567
 9275TIP3   OH227788   5.550   0.924   1.759
 9275TIP3    H127789   5.500   0.998   1.795
 9275TIP3    H227790   5.593   0.885   1.835
 9276TIP3   OH227791   0.040   1.066   3.819
 9276TIP3    H127792   0.100   1.139   3.804
 9276TIP3    H227793   0.079   1.017   3.891
 9277TIP3   OH227794   5.089   0.273   5.270
 9277TIP3    H127795   5.018   0.305   5.214
 9277TIP3    H227796   5.049   0.263   5.356
 9278TIP3   OH227797   5.450   3.142   0.406
 9278TIP3    H127798   5.396   3.108   0.477
 9278TIP3    H227799   5.386   3.177   0.343
 9279TIP3   OH227800   5.545   1.488   2.340
 9279TIP3    H127801   5.638   1.502   2.354
 9279TIP3    H227802   5.512   1.571   2.306
 9280TIP3   OH227803   4.790   4.929   5.059
 9280TIP3    H127804   4.762   4.962   4.973
 9280TIP3    H227805   4.779   5.003   5.118
 9281TIP3   OH227806   1.409   6.446   5.570
 9281TIP3    H127807   1.430   6.458   5.663
 9281TIP3    H227808   1.372   6.358   5.565
 9282TIP3   OH227809   7.051   0.332   5.549
 9282TIP3    H127810   7.091   0.312   5.633
 9282TIP3    H227811   6.975   0.275   5.544
 9283TIP3   OH227812   2.372   3.059   5.814
 9283TIP3    H127813   2.421   3.083   5.735
 9283TIP3    H227814   2.353   3.143   5.856
 9284TIP3   OH227815   6.782   4.655   2.786
 9284TIP3    H127816   6.779   4.637   2.880
 9284TIP3    H227817   6.747   4.743   2.778
 9285TIP3   OH227818   1.153   1.093   3.159
 9285TIP3    H127819   1.238   1.137   3.152
 9285TIP3    H227820   1.174   1.000   3.163
 9286TIP3   OH227821   5.779   1.022   5.061
 9286TIP3    H127822   5.829   0.976   4.993
 9286TIP3    H227823   5.706   1.061   5.014
 9287TIP3   OH227824   6.483   5.951   1.950
 9287TIP3    H127825   6.527   6.036   1.942
 9287TIP3    H227826   6.483   5.916   1.861
 9288TIP3   OH227827   6.146   4.551   2.693
 9288TIP3    H127828   6.104   4.632   2.663
 9288TIP3    H227829   6.087   4.481   2.664
 9289TIP3   OH227830   5.083   2.318   2.571
 9289TIP3    H127831   5.036   2.338   2.651
 9289TIP3    H227832   5.122   2.232   2.586
 9290TIP3   OH227833   0.759   5.535   2.847
 9290TIP3    H127834   0.816   5.609   2.869
 9290TIP3    H227835   0.773   5.472   2.917
 9291TIP3   OH227836   2.388   1.928   2.983
 9291TIP3    H127837   2.358   1.887   3.065
 9291TIP3    H227838   2.438   1.859   2.939
 9292TIP3   OH227839   4.142   1.374   3.909
 9292TIP3    H127840   4.159   1.351   4.000
 9292TIP3    H227841   4.169   1.466   3.902
 9293TIP3   OH227842   3.899   2.116   5.061
 9293TIP3    H127843   3.939   2.080   4.982
 9293TIP3    H227844   3.818   2.158   5.030
 9294TIP3   OH227845   1.522   1.511   4.741
 9294TIP3    H127846   1.535   1.418   4.724
 9294TIP3    H227847   1.594   1.536   4.799
 9295TIP3   OH227848   5.520   4.597   3.919
 9295TIP3    H127849   5.433   4.596   3.960
 9295TIP3    H227850   5.507   4.647   3.838
 9296TIP3   OH227851   0.123   2.462   1.287
 9296TIP3    H127852   0.101   2.544   1.243
 9296TIP3    H227853   0.124   2.485   1.380
 9297TIP3   OH227854   3.271   2.745   3.669
 9297TIP3    H127855   3.186   2.735   3.710
 9297TIP3    H227856   3.255   2.799   3.591
 9298TIP3   OH227857   1.224   2.728   5.561
 9298TIP3    H127858   1.153   2.685   5.610
 9298TIP3    H227859   1.276   2.772   5.628
 9299TIP3   OH227860   6.004   5.713   2.585
 9299TIP3    H127861   6.016   5.625   2.619
 9299TIP3    H227862   5.937   5.752   2.641
 9300TIP3   OH227863   0.875   1.590   2.722
 9300TIP3    H127864   0.947   1.648   2.697
 9300TIP3    H227865   0.916   1.526   2.781
 9301TIP3   OH227866   1.339   0.074   1.377
 9301TIP3    H127867   1.306   0.028   1.453
 9301TIP3    H227868   1.385   0.150   1.413
 9302TIP3   OH227869   6.762   1.424   4.714
 9302TIP3    H127870   6.815   1.484   4.767
 9302TIP3    H227871   6.674   1.430   4.752
 9303TIP3   OH227872   6.574   5.415   3.890
 9303TIP3    H127873   6.669   5.420   3.898
 9303TIP3    H227874   6.551   5.484   3.827
 9304TIP3   OH227875   0.531   3.467   1.948
 9304TIP3    H127876   0.559   3.411   1.876
 9304TIP3    H227877   0.439   3.443   1.962
 9305TIP3   OH227878   3.182   1.158   4.324
 9305TIP3    H127879   3.150   1.109   4.248
 9305TIP3    H227880   3.122   1.133   4.394
 9306TIP3   OH227881   6.236   4.747   3.487
 9306TIP3    H127882   6.326   4.713   3.486
 9306TIP3    H227883   6.228   4.791   3.571
 9307TIP3   OH227884   3.968   3.590   4.880
 9307TIP3    H127885   3.927   3.506   4.858
 9307TIP3    H227886   4.060   3.569   4.894
 9308TIP3   OH227887   5.311   4.384   3.742
 9308TIP3    H127888   5.337   4.332   3.818
 9308TIP3    H227889   5.272   4.463   3.780
 9309TIP3   OH227890   5.894   3.353   1.869
 9309TIP3    H127891   5.806   3.357   1.906
 9309TIP3    H227892   5.937   3.432   1.901
 9310TIP3   OH227893   4.523   3.542   5.373
 9310TIP3    H127894   4.577   3.466   5.396
 9310TIP3    H227895   4.435   3.519   5.404
 9311TIP3   OH227896   5.858   3.539   5.503
 9311TIP3    H127897   5.870   3.525   5.409
 9311TIP3    H227898   5.802   3.466   5.531
 9312TIP3   OH227899   4.650   2.059   5.242
 9312TIP3    H127900   4.613   1.978   5.206
 9312TIP3    H227901   4.625   2.058   5.334
 9313TIP3   OH227902   2.396   4.236   0.760
 9313TIP3    H127903   2.391   4.198   0.847
 9313TIP3    H227904   2.305   4.243   0.731
 9314TIP3   OH227905   2.458   4.819   0.540
 9314TIP3    H127906   2.492   4.868   0.615
 9314TIP3    H227907   2.514   4.742   0.534
 9315TIP3   OH227908   0.933   0.504   3.760
 9315TIP3    H127909   0.970   0.424   3.797
 9315TIP3    H227910   0.868   0.473   3.697
 9316TIP3   OH227911   3.559   5.046   0.878
 9316TIP3    H127912   3.522   4.962   0.849
 9316TIP3    H227913   3.492   5.111   0.855
 9317TIP3   OH227914   3.957   1.977   0.303
 9317TIP3    H127915   3.967   2.048   0.239
 9317TIP3    H227916   4.045   1.943   0.314
 9318TIP3   OH227917   2.908   1.636   4.846
 9318TIP3    H127918   2.908   1.606   4.937
 9318TIP3    H227919   2.994   1.675   4.833
 9319TIP3   OH227920   1.916   5.170   4.575
 9319TIP3    H127921   1.874   5.156   4.490
 9319TIP3    H227922   1.995   5.115   4.571
 9320TIP3   OH227923   7.074   0.088   4.540
 9320TIP3    H127924   7.136   0.153   4.573
 9320TIP3    H227925   7.120   0.048   4.466
 9321TIP3   OH227926   2.322   3.580   4.228
 9321TIP3    H127927   2.232   3.612   4.240
 9321TIP3    H227928   2.363   3.592   4.314
 9322TIP3   OH227929   5.377   5.015   3.667
 9322TIP3    H127930   5.401   5.008   3.759
 9322TIP3    H227931   5.387   4.926   3.633
 9323TIP3   OH227932   3.336   5.563   1.087
 9323TIP3    H127933   3.320   5.583   0.995
 9323TIP3    H227934   3.409   5.621   1.112
 9324TIP3   OH227935   0.208   1.179   3.463
 9324TIP3    H127936   0.122   1.220   3.463
 9324TIP3    H227937   0.259   1.228   3.398
 9325TIP3   OH227938   3.732   3.303   4.371
 9325TIP3    H127939   3.655   3.303   4.315
 9325TIP3    H227940   3.711   3.365   4.441
 9326TIP3   OH227941   4.207   3.834   0.380
 9326TIP3    H127942   4.161   3.875   0.453
 9326TIP3    H227943   4.137   3.809   0.319
 9327TIP3   OH227944   2.721   2.115   4.398
 9327TIP3    H127945   2.657   2.141   4.333
 9327TIP3    H227946   2.781   2.189   4.405
 9328TIP3   OH227947   2.038   6.765   0.758
 9328TIP3    H127948   2.023   6.699   0.690
 9328TIP3    H227949   1.977   6.741   0.828
 9329TIP3   OH227950   0.803   5.612   0.769
 9329TIP3    H127951   0.756   5.684   0.811
 9329TIP3    H227952   0.811   5.546   0.837
 9330TIP3   OH227953   4.712   1.067   1.208
 9330TIP3    H127954   4.688   1.119   1.285
 9330TIP3    H227955   4.755   0.990   1.244
 9331TIP3   OH227956   6.601   1.339   0.789
 9331TIP3    H127957   6.661   1.307   0.722
 9331TIP3    H227958   6.633   1.426   0.810
 9332TIP3   OH227959   2.960   5.198   5.217
 9332TIP3    H127960   2.950   5.209   5.123
 9332TIP3    H227961   3.000   5.112   5.228
 9333TIP3   OH227962   3.181   4.959   1.951
 9333TIP3    H127963   3.152   4.983   1.863
 9333TIP3    H227964   3.171   4.864   1.955
 9334TIP3   OH227965   1.690   1.300   2.964
 9334TIP3    H127966   1.642   1.322   2.885
 9334TIP3    H227967   1.644   1.345   3.035
 9335TIP3   OH227968   1.592   6.699   5.250
 9335TIP3    H127969   1.581   6.731   5.339
 9335TIP3    H227970   1.513   6.647   5.234
 9336TIP3   OH227971   7.086   1.951   5.544
 9336TIP3    H127972   7.111   2.020   5.606
 9336TIP3    H227973   6.999   1.923   5.574
 9337TIP3   OH227974   1.108   3.064   3.865
 9337TIP3    H127975   1.032   3.050   3.810
 9337TIP3    H227976   1.078   3.045   3.954
 9338TIP3   OH227977   5.331   0.330   1.399
 9338TIP3    H127978   5.384   0.378   1.463
 9338TIP3    H227979   5.338   0.239   1.426
 9339TIP3   OH227980   6.325   5.087   3.761
 9339TIP3    H127981   6.365   5.123   3.840
 9339TIP3    H227982   6.397   5.043   3.716
 9340TIP3   OH227983   2.309   0.368   1.133
 9340TIP3    H127984   2.384   0.427   1.127
 9340TIP3    H227985   2.295   0.338   1.043
 9341TIP3   OH227986   3.909   1.479   2.519
 9341TIP3    H127987   3.855   1.436   2.585
 9341TIP3    H227988   3.951   1.408   2.471
 9342TIP3   OH227989   7.062   1.601   2.185
 9342TIP3    H127990   7.014   1.543   2.126
 9342TIP3    H227991   7.111   1.659   2.127
 9343TIP3   OH227992   2.035   0.154   3.257
 9343TIP3    H127993   1.992   0.069   3.261
 9343TIP3    H227994   2.096   0.146   3.184
 9344TIP3   OH227995   1.024   2.405   0.536
 9344TIP3    H127996   1.060   2.415   0.448
 9344TIP3    H227997   0.940   2.451   0.533
 9345TIP3   OH227998   4.013   1.373   0.372
 9345TIP3    H127999   3.949   1.443   0.357
 9345TIP3    H228000   4.017   1.326   0.290
 9346TIP3   OH228001   0.987   3.709   4.115
 9346TIP3    H128002   1.039   3.646   4.165
 9346TIP3    H228003   0.929   3.749   4.180
 9347TIP3   OH228004   0.073   5.128   4.551
 9347TIP3    H128005   0.151   5.182   4.557
 9347TIP3    H228006   0.084   5.062   4.620
 9348TIP3   OH228007   1.122   5.999   3.984
 9348TIP3    H128008   1.214   5.998   3.959
 9348TIP3    H228009   1.105   6.089   4.010
 9349TIP3   OH228010   6.434   1.577   5.210
 9349TIP3    H128011   6.528   1.572   5.224
 9349TIP3    H228012   6.423   1.555   5.117
 9350TIP3   OH228013   1.222   1.426   1.585
 9350TIP3    H128014   1.315   1.429   1.605
 9350TIP3    H228015   1.198   1.516   1.565
 9351TIP3   OH228016   2.406   5.914   1.036
 9351TIP3    H128017   2.459   5.992   1.017
 9351TIP3    H228018   2.404   5.866   0.954
 9352TIP3   OH228019   4.412   5.617   0.080
 9352TIP3    H128020   4.340   5.676   0.058
 9352TIP3    H228021   4.383   5.573   0.160
 9353TIP3   OH228022   6.165   0.252   2.445
 9353TIP3    H128023   6.218   0.293   2.377
 9353TIP3    H228024   6.222   0.186   2.484
 9354TIP3   OH228025   0.785   1.190   0.205
 9354TIP3    H128026   0.718   1.181   0.273
 9354TIP3    H228027   0.776   1.112   0.151
 9355TIP3   OH228028   6.236   3.394   0.409
 9355TIP3    H128029   6.244   3.489   0.418
 9355TIP3    H228030   6.157   3.372   0.459
 9356TIP3   OH228031   2.807   6.801   4.392
 9356TIP3    H128032   2.749   6.763   4.325
 9356TIP3    H228033   2.754   6.804   4.471
 9357TIP3   OH228034   7.112   5.108   0.182
 9357TIP3    H128035   7.129   5.036   0.121
 9357TIP3    H228036   7.043   5.076   0.240
 9358TIP3   OH228037   2.977   4.987   1.104
 9358TIP3    H128038   2.935   4.987   1.190
 9358TIP3    H228039   2.993   5.080   1.086
 9359TIP3   OH228040   5.203   1.334   4.031
 9359TIP3    H128041   5.167   1.420   4.054
 9359TIP3    H228042   5.295   1.351   4.011
 9360TIP3   OH228043   2.470   5.621   3.524
 9360TIP3    H128044   2.477   5.579   3.438
 9360TIP3    H228045   2.552   5.599   3.568
 9361TIP3   OH228046   4.411   5.907   2.553
 9361TIP3    H128047   4.423   5.940   2.642
 9361TIP3    H228048   4.424   5.984   2.498
 9362TIP3   OH228049   6.171   3.219   1.915
 9362TIP3    H128050   6.206   3.295   1.962
 9362TIP3    H228051   6.150   3.252   1.828
 9363TIP3   OH228052   4.877   4.411   3.025
 9363TIP3    H128053   4.793   4.409   3.072
 9363TIP3    H228054   4.942   4.387   3.091
 9364TIP3   OH228055   5.681   6.196   3.133
 9364TIP3    H128056   5.702   6.246   3.212
 9364TIP3    H228057   5.658   6.109   3.165
 9365TIP3   OH228058   4.886   6.505   0.372
 9365TIP3    H128059   4.898   6.596   0.401
 9365TIP3    H228060   4.798   6.504   0.334
 9366TIP3   OH228061   2.045   5.837   0.450
 9366TIP3    H128062   1.954   5.829   0.422
 9366TIP3    H228063   2.092   5.862   0.370
 9367TIP3   OH228064   3.318   1.751   2.090
 9367TIP3    H128065   3.267   1.681   2.131
 9367TIP3    H228066   3.275   1.831   2.119
 9368TIP3   OH228067   4.804   3.997   5.440
 9368TIP3    H128068   4.724   4.048   5.453
 9368TIP3    H228069   4.778   3.907   5.456
 9369TIP3   OH228070   4.871   4.871   1.926
 9369TIP3    H128071   4.888   4.950   1.875
 9369TIP3    H228072   4.812   4.899   1.996
 9370TIP3   OH228073   1.612   5.858   4.980
 9370TIP3    H128074   1.574   5.789   5.034
 9370TIP3    H228075   1.537   5.907   4.946
 9371TIP3   OH228076   2.881   2.172   4.106
 9371TIP3    H128077   2.939   2.247   4.117
 9371TIP3    H228078   2.809   2.204   4.051
 9372TIP3   OH228079   4.852   5.253   1.295
 9372TIP3    H128080   4.938   5.230   1.258
 9372TIP3    H228081   4.867   5.337   1.339
 9373TIP3   OH228082   3.333   3.268   5.390
 9373TIP3    H128083   3.389   3.337   5.426
 9373TIP3    H228084   3.366   3.252   5.302
 9374TIP3   OH228085   2.327   0.311   0.869
 9374TIP3    H128086   2.272   0.386   0.845
 9374TIP3    H228087   2.355   0.275   0.785
 9375TIP3   OH228088   7.095   4.373   2.159
 9375TIP3    H128089   7.075   4.406   2.246
 9375TIP3    H228090   7.073   4.280   2.162
 9376TIP3   OH228091   1.360   5.380   1.209
 9376TIP3    H128092   1.442   5.348   1.247
 9376TIP3    H228093   1.375   5.379   1.114
 9377TIP3   OH228094   4.372   5.845   1.203
 9377TIP3    H128095   4.417   5.927   1.225
 9377TIP3    H228096   4.293   5.846   1.257
 9378TIP3   OH228097   1.681   1.367   1.410
 9378TIP3    H128098   1.636   1.301   1.357
 9378TIP3    H228099   1.749   1.401   1.351
 9379TIP3   OH228100   6.754   6.563   4.223
 9379TIP3    H128101   6.829   6.580   4.280
 9379TIP3    H228102   6.775   6.607   4.141
 9380TIP3   OH228103   0.434   5.406   0.898
 9380TIP3    H128104   0.338   5.403   0.900
 9380TIP3    H228105   0.459   5.348   0.827
 9381TIP3   OH228106   3.118   2.851   4.239
 9381TIP3    H128107   3.072   2.892   4.166
 9381TIP3    H228108   3.154   2.925   4.289
 9382TIP3   OH228109   0.125   6.542   4.784
 9382TIP3    H128110   0.040   6.512   4.817
 9382TIP3    H228111   0.109   6.632   4.755
 9383TIP3   OH228112   7.064   1.510   2.826
 9383TIP3    H128113   7.100   1.452   2.893
 9383TIP3    H228114   6.999   1.456   2.780
 9384TIP3   OH228115   2.101   5.846   2.551
 9384TIP3    H128116   2.077   5.861   2.460
 9384TIP3    H228117   2.145   5.927   2.579
 9385TIP3   OH228118   3.397   2.907   4.080
 9385TIP3    H128119   3.375   3.001   4.077
 9385TIP3    H228120   3.324   2.867   4.127
 9386TIP3   OH228121   2.412   2.284   2.942
 9386TIP3    H128122   2.330   2.297   2.895
 9386TIP3    H228123   2.389   2.221   3.011
 9387TIP3   OH228124   2.011   5.412   5.158
 9387TIP3    H128125   2.105   5.409   5.172
 9387TIP3    H228126   2.001   5.433   5.065
 9388TIP3   OH228127   2.298   1.218   2.525
 9388TIP3    H128128   2.310   1.308   2.555
 9388TIP3    H228129   2.348   1.213   2.444
 9389TIP3   OH228130   3.582   3.786   4.515
 9389TIP3    H128131   3.596   3.864   4.461
 9389TIP3    H228132   3.500   3.750   4.483
 9390TIP3   OH228133   4.999   2.985   2.357
 9390TIP3    H128134   4.926   2.962   2.415
 9390TIP3    H228135   5.035   2.901   2.329
 9391TIP3   OH228136   2.406   3.074   3.487
 9391TIP3    H128137   2.377   3.150   3.437
 9391TIP3    H228138   2.500   3.087   3.499
 9392TIP3   OH228139   6.596   3.463   2.755
 9392TIP3    H128140   6.577   3.512   2.835
 9392TIP3    H228141   6.690   3.445   2.759
 9393TIP3   OH228142   1.413   4.857   1.689
 9393TIP3    H128143   1.459   4.801   1.751
 9393TIP3    H228144   1.321   4.853   1.717
 9394TIP3   OH228145   1.227   2.311   0.726
 9394TIP3    H128146   1.197   2.319   0.816
 9394TIP3    H228147   1.147   2.321   0.673
 9395TIP3   OH228148   3.731   1.281   4.212
 9395TIP3    H128149   3.642   1.302   4.185
 9395TIP3    H228150   3.776   1.365   4.217
 9396TIP3   OH228151   2.288   0.872   5.062
 9396TIP3    H128152   2.253   0.899   4.977
 9396TIP3    H228153   2.210   0.845   5.112
 9397TIP3   OH228154   0.247   1.045   5.307
 9397TIP3    H128155   0.312   1.038   5.377
 9397TIP3    H228156   0.277   0.984   5.240
 9398TIP3   OH228157   2.053   3.333   3.029
 9398TIP3    H128158   2.019   3.413   2.990
 9398TIP3    H228159   1.981   3.300   3.083
 9399TIP3   OH228160   5.706   5.473   3.733
 9399TIP3    H128161   5.756   5.393   3.751
 9399TIP3    H228162   5.770   5.543   3.740
 9400TIP3   OH228163   6.795   6.247   4.802
 9400TIP3    H128164   6.711   6.240   4.848
 9400TIP3    H228165   6.826   6.336   4.822
 9401TIP3   OH228166   3.920   5.147   2.067
 9401TIP3    H128167   4.013   5.167   2.077
 9401TIP3    H228168   3.915   5.052   2.069
 9402TIP3   OH228169   3.144   0.801   1.345
 9402TIP3    H128170   3.188   0.721   1.372
 9402TIP3    H228171   3.137   0.854   1.424
 9403TIP3   OH228172   0.364   4.024   4.715
 9403TIP3    H128173   0.374   4.098   4.654
 9403TIP3    H228174   0.304   3.964   4.671
 9404TIP3   OH228175   3.350   6.045   1.191
 9404TIP3    H128176   3.269   6.050   1.242
 9404TIP3    H228177   3.366   6.135   1.162
 9405TIP3   OH228178   1.118   5.379   3.309
 9405TIP3    H128179   1.152   5.320   3.376
 9405TIP3    H228180   1.149   5.466   3.335
 9406TIP3   OH228181   5.952   5.475   0.735
 9406TIP3    H128182   6.042   5.505   0.749
 9406TIP3    H228183   5.910   5.484   0.821
 9407TIP3   OH228184   6.248   3.047   0.402
 9407TIP3    H128185   6.295   3.104   0.342
 9407TIP3    H228186   6.163   3.090   0.414
 9408TIP3   OH228187   1.503   4.926   5.539
 9408TIP3    H128188   1.454   5.007   5.525
 9408TIP3    H228189   1.440   4.856   5.521
 9409TIP3   OH228190   6.749   2.011   5.520
 9409TIP3    H128191   6.675   1.959   5.490
 9409TIP3    H228192   6.774   1.971   5.603
 9410TIP3   OH228193   1.521   4.422   3.383
 9410TIP3    H128194   1.586   4.387   3.444
 9410TIP3    H228195   1.533   4.517   3.387
 9411TIP3   OH228196   1.406   5.672   1.828
 9411TIP3    H128197   1.339   5.671   1.759
 9411TIP3    H228198   1.375   5.738   1.890
 9412TIP3   OH228199   1.965   2.153   5.367
 9412TIP3    H128200   1.899   2.217   5.338
 9412TIP3    H228201   1.982   2.176   5.458
 9413TIP3   OH228202   0.684   1.972   4.386
 9413TIP3    H128203   0.596   2.003   4.409
 9413TIP3    H228204   0.673   1.930   4.301
 9414TIP3   OH228205   5.031   1.497   4.967
 9414TIP3    H128206   5.020   1.543   4.883
 9414TIP3    H228207   4.962   1.533   5.023
 9415TIP3   OH228208   4.603   1.278   2.424
 9415TIP3    H128209   4.560   1.196   2.448
 9415TIP3    H228210   4.575   1.340   2.491
 9416TIP3   OH228211   0.458   1.811   2.588
 9416TIP3    H128212   0.388   1.835   2.648
 9416TIP3    H228213   0.451   1.874   2.516
 9417TIP3   OH228214   0.444   5.087   3.557
 9417TIP3    H128215   0.376   5.106   3.492
 9417TIP3    H228216   0.398   5.080   3.640
 9418TIP3   OH228217   0.983   0.071   0.755
 9418TIP3    H128218   0.936   0.117   0.824
 9418TIP3    H228219   0.915   0.020   0.709
 9419TIP3   OH228220   6.896   1.000   1.079
 9419TIP3    H128221   6.972   1.057   1.068
 9419TIP3    H228222   6.821   1.053   1.055
 9420TIP3   OH228223   0.934   2.194   5.867
 9420TIP3    H128224   1.007   2.134   5.850
 9420TIP3    H228225   0.970   2.260   5.926
 9421TIP3   OH228226   6.013   1.358   5.241
 9421TIP3    H128227   6.002   1.445   5.202
 9421TIP3    H228228   5.946   1.353   5.309
 9422TIP3   OH228229   1.516   2.170   2.674
 9422TIP3    H128230   1.511   2.076   2.658
 9422TIP3    H228231   1.452   2.186   2.743
 9423TIP3   OH228232   4.914   4.340   5.211
 9423TIP3    H128233   4.840   4.284   5.237
 9423TIP3    H228234   4.911   4.340   5.115
 9424TIP3   OH228235   6.960   1.674   3.206
 9424TIP3    H128236   6.981   1.598   3.152
 9424TIP3    H228237   6.887   1.716   3.161
 9425TIP3   OH228238   7.102   4.858   4.220
 9425TIP3    H128239   7.167   4.893   4.158
 9425TIP3    H228240   7.018   4.879   4.180
 9426TIP3   OH228241   6.812   6.737   5.621
 9426TIP3    H128242   6.893   6.789   5.621
 9426TIP3    H228243   6.779   6.745   5.711
 9427TIP3   OH228244   4.507   3.543   3.872
 9427TIP3    H128245   4.595   3.519   3.899
 9427TIP3    H228246   4.519   3.620   3.815
 9428TIP3   OH228247   1.445   1.204   4.249
 9428TIP3    H128248   1.451   1.140   4.320
 9428TIP3    H228249   1.415   1.284   4.292
 9429TIP3   OH228250   1.129   5.515   2.297
 9429TIP3    H128251   1.051   5.482   2.252
 9429TIP3    H228252   1.200   5.459   2.266
 9430TIP3   OH228253   3.763   5.260   3.349
 9430TIP3    H128254   3.713   5.285   3.427
 9430TIP3    H228255   3.850   5.298   3.364
 9431TIP3   OH228256   6.800   6.508   4.891
 9431TIP3    H128257   6.892   6.528   4.873
 9431TIP3    H228258   6.751   6.571   4.838
 9432TIP3   OH228259   2.436   3.071   0.750
 9432TIP3    H128260   2.473   2.984   0.739
 9432TIP3    H228261   2.361   3.058   0.809
 9433TIP3   OH228262   5.882   5.311   1.130
 9433TIP3    H128263   5.926   5.232   1.097
 9433TIP3    H228264   5.927   5.331   1.212
 9434TIP3   OH228265   6.237   6.118   3.378
 9434TIP3    H128266   6.268   6.047   3.433
 9434TIP3    H228267   6.182   6.171   3.436
 9435TIP3   OH228268   2.548   1.381   4.189
 9435TIP3    H128269   2.591   1.466   4.191
 9435TIP3    H228270   2.564   1.347   4.101
 9436TIP3   OH228271   2.061   1.140   0.234
 9436TIP3    H128272   2.015   1.075   0.181
 9436TIP3    H228273   2.022   1.224   0.209
 9437TIP3   OH228274   4.779   5.792   2.414
 9437TIP3    H128275   4.834   5.727   2.457
 9437TIP3    H228276   4.810   5.876   2.449
 9438TIP3   OH228277   5.058   1.853   3.873
 9438TIP3    H128278   5.066   1.907   3.952
 9438TIP3    H228279   5.075   1.914   3.801
 9439TIP3   OH228280   5.759   1.673   2.427
 9439TIP3    H128281   5.794   1.734   2.492
 9439TIP3    H228282   5.793   1.705   2.343
 9440TIP3   OH228283   1.879   3.313   3.823
 9440TIP3    H128284   1.794   3.336   3.862
 9440TIP3    H228285   1.859   3.241   3.763
 9441TIP3   OH228286   6.716   5.582   2.182
 9441TIP3    H128287   6.802   5.540   2.174
 9441TIP3    H228288   6.663   5.519   2.231
 9442TIP3   OH228289   6.644   3.406   4.524
 9442TIP3    H128290   6.627   3.457   4.445
 9442TIP3    H228291   6.689   3.467   4.582
 9443TIP3   OH228292   2.976   6.620   1.405
 9443TIP3    H128293   2.887   6.626   1.371
 9443TIP3    H228294   2.966   6.623   1.500
 9444TIP3   OH228295   3.947   6.167   0.677
 9444TIP3    H128296   3.868   6.198   0.632
 9444TIP3    H228297   3.950   6.073   0.658
 9445TIP3   OH228298   4.966   3.932   5.758
 9445TIP3    H128299   4.894   3.993   5.773
 9445TIP3    H228300   4.923   3.847   5.749
 9446TIP3   OH228301   5.696   3.136   2.633
 9446TIP3    H128302   5.768   3.187   2.672
 9446TIP3    H228303   5.679   3.067   2.697
 9447TIP3   OH228304   0.384   5.970   1.032
 9447TIP3    H128305   0.298   5.950   0.994
 9447TIP3    H228306   0.407   5.890   1.080
 9448TIP3   OH228307   2.946   5.205   4.937
 9448TIP3    H128308   3.028   5.160   4.918
 9448TIP3    H228309   2.885   5.175   4.869
 9449TIP3   OH228310   3.467   0.047   1.345
 9449TIP3    H128311   3.524   0.036   1.421
 9449TIP3    H228312   3.382   0.071   1.381
 9450TIP3   OH228313   1.975   1.302   4.315
 9450TIP3    H128314   2.016   1.284   4.231
 9450TIP3    H228315   1.887   1.333   4.293
 9451TIP3   OH228316   6.311   3.646   1.131
 9451TIP3    H128317   6.285   3.645   1.223
 9451TIP3    H228318   6.230   3.630   1.083
 9452TIP3   OH228319   4.510   2.719   4.515
 9452TIP3    H128320   4.440   2.777   4.545
 9452TIP3    H228321   4.566   2.708   4.592
 9453TIP3   OH228322   5.342   1.974   0.632
 9453TIP3    H128323   5.338   1.881   0.609
 9453TIP3    H228324   5.430   2.002   0.607
 9454TIP3   OH228325  -0.003   1.260   0.832
 9454TIP3    H128326  -0.045   1.339   0.796
 9454TIP3    H228327   0.089   1.270   0.809
 9455TIP3   OH228328   3.444   4.188   1.509
 9455TIP3    H128329   3.358   4.228   1.521
 9455TIP3    H228330   3.433   4.098   1.541
 9456TIP3   OH228331   3.214   1.139   3.941
 9456TIP3    H128332   3.304   1.146   3.908
 9456TIP3    H228333   3.194   1.226   3.975
 9457TIP3   OH228334   6.434   3.213   2.348
 9457TIP3    H128335   6.410   3.284   2.407
 9457TIP3    H228336   6.350   3.175   2.321
 9458TIP3   OH228337   4.303   2.381   3.880
 9458TIP3    H128338   4.360   2.421   3.814
 9458TIP3    H228339   4.322   2.288   3.875
 9459TIP3   OH228340   2.746   5.821   4.673
 9459TIP3    H128341   2.692   5.747   4.648
 9459TIP3    H228342   2.684   5.887   4.703
 9460TIP3   OH228343   3.275   2.236   5.139
 9460TIP3    H128344   3.354   2.281   5.167
 9460TIP3    H228345   3.257   2.271   5.052
 9461TIP3   OH228346   5.618   4.546   2.304
 9461TIP3    H128347   5.578   4.537   2.217
 9461TIP3    H228348   5.551   4.590   2.356
 9462TIP3   OH228349   4.625   5.069   1.809
 9462TIP3    H128350   4.644   4.980   1.779
 9462TIP3    H228351   4.534   5.065   1.839
 9463TIP3   OH228352   1.314   2.983   4.195
 9463TIP3    H128353   1.248   2.920   4.166
 9463TIP3    H228354   1.393   2.958   4.147
 9464TIP3   OH228355   6.370   4.869   4.541
 9464TIP3    H128356   6.385   4.876   4.635
 9464TIP3    H228357   6.338   4.779   4.529
 9465TIP3   OH228358   1.376   2.986   2.045
 9465TIP3    H128359   1.292   3.012   2.007
 9465TIP3    H228360   1.418   2.933   1.976
 9466TIP3   OH228361   1.354   6.352   5.872
 9466TIP3    H128362   1.350   6.280   5.935
 9466TIP3    H228363   1.264   6.361   5.840
 9467TIP3   OH228364   5.612   6.573   2.938
 9467TIP3    H128365   5.578   6.647   2.887
 9467TIP3    H228366   5.668   6.613   3.004
 9468TIP3   OH228367   1.150   4.730   4.464
 9468TIP3    H128368   1.115   4.658   4.516
 9468TIP3    H228369   1.106   4.808   4.498
 9469TIP3   OH228370   6.085   6.366   1.276
 9469TIP3    H128371   6.033   6.445   1.289
 9469TIP3    H228372   6.147   6.366   1.349
 9470TIP3   OH228373   5.507   6.454   3.593
 9470TIP3    H128374   5.515   6.490   3.505
 9470TIP3    H228375   5.420   6.480   3.623
 9471TIP3   OH228376   4.508   5.499   3.175
 9471TIP3    H128377   4.573   5.441   3.136
 9471TIP3    H228378   4.545   5.525   3.259
 9472TIP3   OH228379   3.745   2.006   2.086
 9472TIP3    H128380   3.667   1.950   2.090
 9472TIP3    H228381   3.730   2.063   2.011
 9473TIP3   OH228382   2.114   3.948   3.427
 9473TIP3    H128383   2.180   4.002   3.384
 9473TIP3    H228384   2.112   3.979   3.517
 9474TIP3   OH228385   2.812   3.507   1.503
 9474TIP3    H128386   2.825   3.501   1.408
 9474TIP3    H228387   2.811   3.416   1.533
 9475TIP3   OH228388   4.431   0.824   0.254
 9475TIP3    H128389   4.516   0.813   0.297
 9475TIP3    H228390   4.447   0.889   0.185
 9476TIP3   OH228391   5.752   0.446   1.972
 9476TIP3    H128392   5.741   0.510   1.902
 9476TIP3    H228393   5.693   0.375   1.948
 9477TIP3   OH228394   4.144   3.259   0.864
 9477TIP3    H128395   4.087   3.207   0.920
 9477TIP3    H228396   4.089   3.329   0.831
 9478TIP3   OH228397   7.076   3.716   5.445
 9478TIP3    H128398   7.042   3.801   5.474
 9478TIP3    H228399   7.004   3.655   5.462
 9479TIP3   OH228400   5.679   1.123   2.162
 9479TIP3    H128401   5.731   1.142   2.083
 9479TIP3    H228402   5.729   1.162   2.233
 9480TIP3   OH228403   2.490   5.420   2.671
 9480TIP3    H128404   2.580   5.386   2.676
 9480TIP3    H228405   2.477   5.466   2.754
 9481TIP3   OH228406   0.092   6.211   3.429
 9481TIP3    H128407   0.155   6.281   3.412
 9481TIP3    H228408   0.127   6.166   3.506
 9482TIP3   OH228409   6.164   6.037   4.791
 9482TIP3    H128410   6.172   6.126   4.823
 9482TIP3    H228411   6.175   6.044   4.696
 9483TIP3   OH228412   0.612   3.425   0.422
 9483TIP3    H128413   0.623   3.488   0.351
 9483TIP3    H228414   0.668   3.459   0.492
 9484TIP3   OH228415   1.662   3.802   0.860
 9484TIP3    H128416   1.703   3.870   0.912
 9484TIP3    H228417   1.641   3.844   0.777
 9485TIP3   OH228418   3.203   1.466   5.374
 9485TIP3    H128419   3.170   1.556   5.367
 9485TIP3    H228420   3.210   1.450   5.468
 9486TIP3   OH228421   6.698   3.897   5.430
 9486TIP3    H128422   6.658   3.962   5.372
 9486TIP3    H228423   6.715   3.821   5.374
 9487TIP3   OH228424   6.491   2.211   3.510
 9487TIP3    H128425   6.564   2.272   3.512
 9487TIP3    H228426   6.456   2.212   3.599
 9488TIP3   OH228427   2.227   5.967   2.043
 9488TIP3    H128428   2.197   5.920   1.966
 9488TIP3    H228429   2.320   5.946   2.049
 9489TIP3   OH228430   2.652   2.693   0.095
 9489TIP3    H128431   2.660   2.738   0.179
 9489TIP3    H228432   2.613   2.758   0.036
 9490TIP3   OH228433   2.765   6.310   5.861
 9490TIP3    H128434   2.821   6.387   5.873
 9490TIP3    H228435   2.825   6.237   5.853
 9491TIP3   OH228436   3.220   0.298   5.238
 9491TIP3    H128437   3.259   0.227   5.186
 9491TIP3    H228438   3.295   0.343   5.277
 9492TIP3   OH228439   5.882   4.578  -0.008
 9492TIP3    H128440   5.883   4.487  -0.037
 9492TIP3    H228441   5.922   4.575   0.079
 9493TIP3   OH228442   3.123   3.521   5.601
 9493TIP3    H128443   3.132   3.478   5.686
 9493TIP3    H228444   3.167   3.605   5.612
 9494TIP3   OH228445   3.565   1.852   2.206
 9494TIP3    H128446   3.584   1.790   2.277
 9494TIP3    H228447   3.478   1.827   2.175
 9495TIP3   OH228448   5.897   2.390   2.101
 9495TIP3    H128449   5.828   2.404   2.036
 9495TIP3    H228450   5.861   2.326   2.162
 9496TIP3   OH228451   5.107   1.330   2.140
 9496TIP3    H128452   5.064   1.400   2.189
 9496TIP3    H228453   5.113   1.258   2.202
 9497TIP3   OH228454   1.267   3.340   2.156
 9497TIP3    H128455   1.175   3.360   2.174
 9497TIP3    H228456   1.299   3.301   2.238
 9498TIP3   OH228457   5.948   1.965   0.045
 9498TIP3    H128458   5.968   1.987   0.136
 9498TIP3    H228459   5.909   1.878   0.050
 9499TIP3   OH228460   1.010   3.613   4.551
 9499TIP3    H128461   0.963   3.636   4.631
 9499TIP3    H228462   1.050   3.695   4.522
 9500TIP3   OH228463   1.112   5.168   4.206
 9500TIP3    H128464   1.180   5.172   4.273
 9500TIP3    H228465   1.159   5.177   4.123
 9501TIP3   OH228466   6.689   2.753   3.876
 9501TIP3    H128467   6.699   2.689   3.805
 9501TIP3    H228468   6.637   2.823   3.837
 9502TIP3   OH228469   1.241   6.624   3.330
 9502TIP3    H128470   1.308   6.667   3.277
 9502TIP3    H228471   1.287   6.551   3.372
 9503TIP3   OH228472   2.759   3.950   2.069
 9503TIP3    H128473   2.686   3.945   2.131
 9503TIP3    H228474   2.738   4.024   2.013
 9504TIP3   OH228475   2.066   4.781   1.802
 9504TIP3    H128476   2.043   4.829   1.882
 9504TIP3    H228477   2.150   4.819   1.776
 9505TIP3   OH228478   2.030   6.241   1.576
 9505TIP3    H128479   2.099   6.192   1.529
 9505TIP3    H228480   1.967   6.174   1.602
 9506TIP3   OH228481   0.613   1.990   5.667
 9506TIP3    H128482   0.635   2.082   5.655
 9506TIP3    H228483   0.598   1.957   5.578
 9507TIP3   OH228484   3.340   1.524   0.297
 9507TIP3    H128485   3.275   1.517   0.227
 9507TIP3    H228486   3.390   1.603   0.277
 9508TIP3   OH228487   0.848   0.453   2.551
 9508TIP3    H128488   0.944   0.451   2.547
 9508TIP3    H228489   0.828   0.494   2.635
 9509TIP3   OH228490   2.303   3.255   1.763
 9509TIP3    H128491   2.378   3.314   1.754
 9509TIP3    H228492   2.309   3.225   1.854
 9510TIP3   OH228493   2.868   1.040   4.260
 9510TIP3    H128494   2.797   0.982   4.285
 9510TIP3    H228495   2.866   1.110   4.325
 9511TIP3   OH228496   3.264   1.700   0.953
 9511TIP3    H128497   3.278   1.616   0.909
 9511TIP3    H228498   3.315   1.763   0.902
 9512TIP3   OH228499   2.867   4.656   1.003
 9512TIP3    H128500   2.823   4.671   0.919
 9512TIP3    H228501   2.916   4.736   1.019
 9513TIP3   OH228502   6.884   5.476   3.216
 9513TIP3    H128503   6.843   5.449   3.298
 9513TIP3    H228504   6.941   5.549   3.240
 9514TIP3   OH228505   3.010   6.385   0.131
 9514TIP3    H128506   2.928   6.409   0.088
 9514TIP3    H228507   3.060   6.339   0.063
 9515TIP3   OH228508   2.611   1.681   2.125
 9515TIP3    H128509   2.545   1.732   2.171
 9515TIP3    H228510   2.691   1.692   2.176
 9516TIP3   OH228511   3.031   1.890   1.432
 9516TIP3    H128512   3.083   1.859   1.357
 9516TIP3    H228513   3.063   1.979   1.448
 9517TIP3   OH228514   3.405   4.365   0.682
 9517TIP3    H128515   3.333   4.326   0.732
 9517TIP3    H228516   3.455   4.416   0.746
 9518TIP3   OH228517   0.117   0.362   2.468
 9518TIP3    H128518   0.189   0.345   2.407
 9518TIP3    H228519   0.044   0.387   2.412
 9519TIP3   OH228520   2.888   3.055   1.311
 9519TIP3    H128521   2.796   3.033   1.324
 9519TIP3    H228522   2.936   2.982   1.350
 9520TIP3   OH228523   2.656   3.990   5.832
 9520TIP3    H128524   2.687   4.036   5.910
 9520TIP3    H228525   2.719   4.015   5.764
 9521TIP3   OH228526   5.357   6.497   2.021
 9521TIP3    H128527   5.268   6.529   2.026
 9521TIP3    H228528   5.411   6.575   2.012
 9522TIP3   OH228529   1.047   0.920   4.158
 9522TIP3    H128530   1.017   0.841   4.201
 9522TIP3    H228531   1.074   0.978   4.229
 9523TIP3   OH228532   2.862   1.277   2.077
 9523TIP3    H128533   2.899   1.292   2.164
 9523TIP3    H228534   2.902   1.344   2.022
 9524TIP3   OH228535   5.939   1.233   1.291
 9524TIP3    H128536   6.018   1.286   1.299
 9524TIP3    H228537   5.870   1.285   1.332
 9525TIP3   OH228538   0.885   1.861   1.434
 9525TIP3    H128539   0.968   1.845   1.388
 9525TIP3    H228540   0.820   1.870   1.365
 9526TIP3   OH228541   4.875   0.218   5.056
 9526TIP3    H128542   4.793   0.207   5.104
 9526TIP3    H228543   4.853   0.274   4.982
 9527TIP3   OH228544   3.734   3.543   4.491
 9527TIP3    H128545   3.712   3.520   4.581
 9527TIP3    H228546   3.702   3.633   4.481
 9528TIP3   OH228547   3.546   3.699   0.466
 9528TIP3    H128548   3.573   3.656   0.547
 9528TIP3    H228549   3.508   3.782   0.495
 9529TIP3   OH228550   0.990   0.899   0.811
 9529TIP3    H128551   0.931   0.837   0.854
 9529TIP3    H228552   0.947   0.919   0.728
 9530TIP3   OH228553   1.632   6.156   5.585
 9530TIP3    H128554   1.606   6.104   5.509
 9530TIP3    H228555   1.575   6.233   5.582
 9531TIP3   OH228556   3.146   5.055   3.079
 9531TIP3    H128557   3.193   5.073   2.997
 9531TIP3    H228558   3.062   5.100   3.070
 9532TIP3   OH228559   5.934   5.131   2.698
 9532TIP3    H128560   5.847   5.113   2.663
 9532TIP3    H228561   5.981   5.173   2.626
 9533TIP3   OH228562   5.892   4.337   3.231
 9533TIP3    H128563   5.950   4.398   3.277
 9533TIP3    H228564   5.826   4.392   3.191
 9534TIP3   OH228565   4.671   0.409   2.937
 9534TIP3    H128566   4.578   0.398   2.958
 9534TIP3    H228567   4.717   0.386   3.017
 9535TIP3   OH228568   2.717   2.923   4.613
 9535TIP3    H128569   2.733   3.016   4.630
 9535TIP3    H228570   2.791   2.878   4.653
 9536TIP3   OH228571   5.867   4.712   0.343
 9536TIP3    H128572   5.797   4.677   0.398
 9536TIP3    H228573   5.937   4.647   0.349
 9537TIP3   OH228574   5.124   2.400   5.603
 9537TIP3    H128575   5.039   2.390   5.647
 9537TIP3    H228576   5.188   2.379   5.671
 9538TIP3   OH228577   3.948   1.182   2.800
 9538TIP3    H128578   3.978   1.163   2.711
 9538TIP3    H228579   3.888   1.255   2.789
 9539TIP3   OH228580   4.372   4.002   1.582
 9539TIP3    H128581   4.288   4.003   1.626
 9539TIP3    H228582   4.353   4.031   1.493
 9540TIP3   OH228583   6.779   5.487   2.807
 9540TIP3    H128584   6.863   5.461   2.844
 9540TIP3    H228585   6.748   5.409   2.761
 9541TIP3   OH228586   3.135   1.764   3.261
 9541TIP3    H128587   3.040   1.762   3.261
 9541TIP3    H228588   3.157   1.848   3.220
 9542TIP3   OH228589   5.739   4.121   3.364
 9542TIP3    H128590   5.718   4.142   3.455
 9542TIP3    H228591   5.777   4.202   3.329
 9543TIP3   OH228592   2.979   5.030   4.522
 9543TIP3    H128593   2.969   5.122   4.497
 9543TIP3    H228594   3.010   5.033   4.613
 9544TIP3   OH228595   2.650   3.169   5.719
 9544TIP3    H128596   2.692   3.085   5.739
 9544TIP3    H228597   2.660   3.220   5.799
 9545TIP3   OH228598   4.497   5.902   3.523
 9545TIP3    H128599   4.429   5.967   3.543
 9545TIP3    H228600   4.549   5.943   3.454
 9546TIP3   OH228601   2.872   6.429   4.966
 9546TIP3    H128602   2.785   6.449   5.000
 9546TIP3    H228603   2.888   6.338   4.990
 9547TIP3   OH228604   2.115   1.518   1.964
 9547TIP3    H128605   2.084   1.516   1.873
 9547TIP3    H228606   2.206   1.547   1.957
 9548TIP3   OH228607   1.425   4.088   4.849
 9548TIP3    H128608   1.353   4.136   4.888
 9548TIP3    H228609   1.418   4.105   4.755
 9549TIP3   OH228610   6.543   3.209   1.353
 9549TIP3    H128611   6.487   3.139   1.383
 9549TIP3    H228612   6.578   3.178   1.269
 9550TIP3   OH228613   3.651   2.164   5.863
 9550TIP3    H128614   3.639   2.141   5.955
 9550TIP3    H228615   3.615   2.089   5.815
 9551TIP3   OH228616   4.380   1.841   4.585
 9551TIP3    H128617   4.452   1.781   4.602
 9551TIP3    H228618   4.301   1.788   4.601
 9552TIP3   OH228619   1.782   5.737   4.793
 9552TIP3    H128620   1.738   5.796   4.855
 9552TIP3    H228621   1.759   5.649   4.822
 9553TIP3   OH228622   6.260   3.049   0.688
 9553TIP3    H128623   6.350   3.028   0.714
 9553TIP3    H228624   6.253   3.015   0.599
 9554TIP3   OH228625   4.641   2.889   2.220
 9554TIP3    H128626   4.585   2.960   2.188
 9554TIP3    H228627   4.639   2.824   2.150
 9555TIP3   OH228628   0.279   4.100   5.456
 9555TIP3    H128629   0.268   4.008   5.482
 9555TIP3    H228630   0.372   4.108   5.434
 9556TIP3   OH228631   2.432   5.617   4.464
 9556TIP3    H128632   2.387   5.694   4.498
 9556TIP3    H228633   2.363   5.564   4.424
 9557TIP3   OH228634   0.490   3.725   0.449
 9557TIP3    H128635   0.432   3.722   0.372
 9557TIP3    H228636   0.433   3.707   0.523
 9558TIP3   OH228637   3.293   4.819   2.403
 9558TIP3    H128638   3.369   4.819   2.462
 9558TIP3    H228639   3.280   4.727   2.380
 9559TIP3   OH228640   1.616   5.766   2.634
 9559TIP3    H128641   1.661   5.689   2.600
 9559TIP3    H228642   1.596   5.819   2.557
 9560TIP3   OH228643   2.028   6.555   2.111
 9560TIP3    H128644   2.041   6.460   2.116
 9560TIP3    H228645   2.066   6.589   2.192
 9561TIP3   OH228646   0.169   3.953   3.463
 9561TIP3    H128647   0.191   4.047   3.464
 9561TIP3    H228648   0.242   3.910   3.506
 9562TIP3   OH228649   5.625   0.226   5.164
 9562TIP3    H128650   5.641   0.318   5.184
 9562TIP3    H228651   5.575   0.227   5.082
 9563TIP3   OH228652   7.069   5.829   3.031
 9563TIP3    H128653   6.984   5.802   2.996
 9563TIP3    H228654   7.057   5.921   3.053
 9564TIP3   OH228655   1.495   1.015   0.327
 9564TIP3    H128656   1.434   0.964   0.380
 9564TIP3    H228657   1.544   1.068   0.391
 9565TIP3   OH228658   3.572   0.925   4.833
 9565TIP3    H128659   3.593   1.018   4.846
 9565TIP3    H228660   3.539   0.921   4.743
 9566TIP3   OH228661   0.862   3.876   5.692
 9566TIP3    H128662   0.837   3.815   5.762
 9566TIP3    H228663   0.778   3.912   5.661
 9567TIP3   OH228664   1.916   3.892   0.254
 9567TIP3    H128665   2.008   3.883   0.279
 9567TIP3    H228666   1.884   3.802   0.249
 9568TIP3   OH228667   0.827   1.571   4.212
 9568TIP3    H128668   0.765   1.583   4.141
 9568TIP3    H228669   0.890   1.642   4.201
 9569TIP3   OH228670   1.056   3.556   2.946
 9569TIP3    H128671   1.067   3.589   3.035
 9569TIP3    H228672   1.131   3.590   2.897
 9570TIP3   OH228673   0.137   4.177   3.731
 9570TIP3    H128674   0.185   4.096   3.711
 9570TIP3    H228675   0.193   4.247   3.697
 9571TIP3   OH228676   4.994   5.083   2.375
 9571TIP3    H128677   5.005   5.008   2.317
 9571TIP3    H228678   5.083   5.117   2.386
 9572TIP3   OH228679   2.249   5.684   3.002
 9572TIP3    H128680   2.222   5.671   2.911
 9572TIP3    H228681   2.279   5.775   3.005
 9573TIP3   OH228682   3.729   4.104   0.536
 9573TIP3    H128683   3.655   4.117   0.477
 9573TIP3    H228684   3.696   4.043   0.602
 9574TIP3   OH228685   5.636   0.760   3.332
 9574TIP3    H128686   5.560   0.767   3.275
 9574TIP3    H228687   5.607   0.797   3.415
 9575TIP3   OH228688   0.786   0.942   5.890
 9575TIP3    H128689   0.818   1.014   5.836
 9575TIP3    H228690   0.789   0.865   5.833
 9576TIP3   OH228691   4.781   4.984   2.194
 9576TIP3    H128692   4.757   4.892   2.209
 9576TIP3    H228693   4.742   5.032   2.266
 9577TIP3   OH228694   4.756   5.471   1.659
 9577TIP3    H128695   4.822   5.516   1.607
 9577TIP3    H228696   4.701   5.542   1.694
 9578TIP3   OH228697   4.618   6.210   2.960
 9578TIP3    H128698   4.683   6.140   2.957
 9578TIP3    H228699   4.669   6.289   2.979
 9579TIP3   OH228700   6.706   6.766   0.733
 9579TIP3    H128701   6.697   6.777   0.638
 9579TIP3    H228702   6.793   6.800   0.753
 9580TIP3   OH228703   6.937   5.935   5.368
 9580TIP3    H128704   6.897   6.022   5.360
 9580TIP3    H228705   6.892   5.882   5.301
 9581TIP3   OH228706   3.734   2.859   3.558
 9581TIP3    H128707   3.700   2.771   3.574
 9581TIP3    H228708   3.735   2.867   3.462
 9582TIP3   OH228709   5.975   0.941   0.468
 9582TIP3    H128710   5.996   0.855   0.502
 9582TIP3    H228711   5.898   0.927   0.413
 9583TIP3   OH228712   1.308   1.863   3.345
 9583TIP3    H128713   1.236   1.805   3.368
 9583TIP3    H228714   1.381   1.834   3.399
 9584TIP3   OH228715   2.052   1.374   3.839
 9584TIP3    H128716   2.101   1.315   3.897
 9584TIP3    H228717   2.118   1.432   3.802
 9585TIP3   OH228718   4.861   4.530   2.792
 9585TIP3    H128719   4.925   4.479   2.743
 9585TIP3    H228720   4.855   4.487   2.877
 9586TIP3   OH228721   5.732   4.076   2.232
 9586TIP3    H128722   5.639   4.098   2.235
 9586TIP3    H228723   5.748   4.029   2.314
 9587TIP3   OH228724   1.709   5.857   1.075
 9587TIP3    H128725   1.680   5.915   1.004
 9587TIP3    H228726   1.800   5.835   1.052
 9588TIP3   OH228727   0.446   0.679   1.687
 9588TIP3    H128728   0.479   0.589   1.690
 9588TIP3    H228729   0.482   0.719   1.767
 9589TIP3   OH228730   4.382   1.769   2.758
 9589TIP3    H128731   4.289   1.763   2.778
 9589TIP3    H228732   4.421   1.804   2.839
 9590TIP3   OH228733   5.449   1.324   4.580
 9590TIP3    H128734   5.508   1.267   4.530
 9590TIP3    H228735   5.507   1.373   4.638
 9591TIP3   OH228736   3.592   4.302   3.362
 9591TIP3    H128737   3.569   4.224   3.412
 9591TIP3    H228738   3.538   4.296   3.283
 9592TIP3   OH228739   7.149   4.853   5.691
 9592TIP3    H128740   7.151   4.760   5.715
 9592TIP3    H228741   7.062   4.866   5.653
 9593TIP3   OH228742   1.223   4.088   2.712
 9593TIP3    H128743   1.296   4.117   2.766
 9593TIP3    H228744   1.165   4.163   2.706
 9594TIP3   OH228745   5.239   3.117   3.661
 9594TIP3    H128746   5.297   3.165   3.602
 9594TIP3    H228747   5.228   3.031   3.619
 9595TIP3   OH228748   6.325   0.553   0.197
 9595TIP3    H128749   6.408   0.570   0.242
 9595TIP3    H228750   6.258   0.570   0.263
 9596TIP3   OH228751   1.576   6.404   0.245
 9596TIP3    H128752   1.591   6.493   0.213
 9596TIP3    H228753   1.642   6.351   0.201
 9597TIP3   OH228754   4.015   2.712   0.498
 9597TIP3    H128755   4.008   2.665   0.415
 9597TIP3    H228756   3.925   2.735   0.520
 9598TIP3   OH228757   6.725   1.461   3.156
 9598TIP3    H128758   6.747   1.438   3.247
 9598TIP3    H228759   6.713   1.556   3.158
 9599TIP3   OH228760   2.160   6.180   0.077
 9599TIP3    H128761   2.126   6.104   0.031
 9599TIP3    H228762   2.239   6.205   0.028
 9600TIP3   OH228763   7.128   3.087   4.978
 9600TIP3    H128764   7.184   3.012   4.998
 9600TIP3    H228765   7.101   3.119   5.064
 9601TIP3   OH228766   4.467   1.860   3.016
 9601TIP3    H128767   4.394   1.808   3.049
 9601TIP3    H228768   4.455   1.946   3.055
 9602TIP3   OH228769   1.126   5.667   4.392
 9602TIP3    H128770   1.157   5.720   4.466
 9602TIP3    H228771   1.078   5.729   4.337
 9603TIP3   OH228772   3.752   2.198   0.805
 9603TIP3    H128773   3.689   2.133   0.835
 9603TIP3    H228774   3.788   2.162   0.724
 9604TIP3   OH228775   2.885   5.943   2.601
 9604TIP3    H128776   2.925   5.860   2.574
 9604TIP3    H228777   2.906   6.004   2.530
 9605TIP3   OH228778   2.314   6.814   3.571
 9605TIP3    H128779   2.279   6.728   3.550
 9605TIP3    H228780   2.239   6.863   3.605
 9606TIP3   OH228781   7.155   2.500   3.382
 9606TIP3    H128782   7.137   2.581   3.334
 9606TIP3    H228783   7.072   2.479   3.425
 9607TIP3   OH228784   6.670   0.263   1.644
 9607TIP3    H128785   6.736   0.288   1.579
 9607TIP3    H228786   6.711   0.282   1.728
 9608TIP3   OH228787   0.648   5.147   5.468
 9608TIP3    H128788   0.620   5.066   5.511
 9608TIP3    H228789   0.570   5.202   5.469
 9609TIP3   OH228790   2.269   4.638   4.999
 9609TIP3    H128791   2.316   4.691   4.936
 9609TIP3    H228792   2.338   4.596   5.051
 9610TIP3   OH228793   2.388   3.339   4.839
 9610TIP3    H128794   2.333   3.415   4.823
 9610TIP3    H228795   2.465   3.375   4.885
 9611TIP3   OH228796   2.550   4.878   5.022
 9611TIP3    H128797   2.564   4.891   5.116
 9611TIP3    H228798   2.566   4.784   5.009
 9612TIP3   OH228799   0.392   0.833   4.394
 9612TIP3    H128800   0.350   0.752   4.422
 9612TIP3    H228801   0.482   0.807   4.373
 9613TIP3   OH228802   1.884   2.845   2.731
 9613TIP3    H128803   1.828   2.906   2.684
 9613TIP3    H228804   1.824   2.778   2.764
 9614TIP3   OH228805   2.020   6.410   5.855
 9614TIP3    H128806   1.931   6.401   5.822
 9614TIP3    H228807   2.067   6.334   5.820
 9615TIP3   OH228808   5.763   5.217   1.987
 9615TIP3    H128809   5.675   5.244   1.961
 9615TIP3    H228810   5.820   5.287   1.955
 9616TIP3   OH228811   6.027   5.289   2.454
 9616TIP3    H128812   5.976   5.269   2.376
 9616TIP3    H228813   6.117   5.298   2.424
 9617TIP3   OH228814   4.114   5.392   5.365
 9617TIP3    H128815   4.034   5.350   5.393
 9617TIP3    H228816   4.087   5.479   5.335
 9618TIP3   OH228817  -0.010   6.589   5.189
 9618TIP3    H128818   0.062   6.527   5.174
 9618TIP3    H228819   0.018   6.668   5.143
 9619TIP3   OH228820   2.959   2.122   0.885
 9619TIP3    H128821   2.937   2.160   0.800
 9619TIP3    H228822   2.874   2.096   0.922
 9620TIP3   OH228823   7.071   3.861   4.453
 9620TIP3    H128824   7.000   3.924   4.441
 9620TIP3    H228825   7.107   3.882   4.539
 9621TIP3   OH228826   6.214   6.423   5.453
 9621TIP3    H128827   6.187   6.332   5.464
 9621TIP3    H228828   6.287   6.419   5.392
 9622TIP3   OH228829   0.478   0.418   5.378
 9622TIP3    H128830   0.445   0.492   5.430
 9622TIP3    H228831   0.563   0.398   5.417
 9623TIP3   OH228832   6.840   2.420   3.825
 9623TIP3    H128833   6.872   2.353   3.886
 9623TIP3    H228834   6.877   2.502   3.857
 9624TIP3   OH228835   3.007   2.375   4.900
 9624TIP3    H128836   3.039   2.365   4.810
 9624TIP3    H228837   2.930   2.319   4.904
 9625TIP3   OH228838   3.907   1.811   3.289
 9625TIP3    H128839   3.894   1.868   3.214
 9625TIP3    H228840   3.947   1.867   3.356
 9626TIP3   OH228841   1.888   6.801   0.253
 9626TIP3    H128842   1.942   6.876   0.226
 9626TIP3    H228843   1.837   6.779   0.176
 9627TIP3   OH228844   1.165   0.029   2.947
 9627TIP3    H128845   1.230  -0.027   2.907
 9627TIP3    H228846   1.191   0.118   2.923
 9628TIP3   OH228847   2.183   3.217   4.165
 9628TIP3    H128848   2.122   3.160   4.118
 9628TIP3    H228849   2.269   3.180   4.146
 9629TIP3   OH228850   3.867   1.177   5.407
 9629TIP3    H128851   3.802   1.241   5.434
 9629TIP3    H228852   3.923   1.224   5.345
 9630TIP3   OH228853   5.019   5.175   4.347
 9630TIP3    H128854   4.982   5.133   4.270
 9630TIP3    H228855   4.980   5.128   4.421
 9631TIP3   OH228856   3.831   5.929   4.389
 9631TIP3    H128857   3.831   5.834   4.379
 9631TIP3    H228858   3.860   5.944   4.479
 9632TIP3   OH228859   5.953   3.027   1.559
 9632TIP3    H128860   6.036   3.041   1.513
 9632TIP3    H228861   5.887   3.067   1.503
 9633TIP3   OH228862   1.283   5.196   2.757
 9633TIP3    H128863   1.360   5.224   2.807
 9633TIP3    H228864   1.251   5.276   2.716
 9634TIP3   OH228865   1.151   1.206   0.497
 9634TIP3    H128866   1.170   1.126   0.546
 9634TIP3    H228867   1.165   1.277   0.560
 9635TIP3   OH228868   4.511   1.638   3.519
 9635TIP3    H128869   4.514   1.562   3.461
 9635TIP3    H228870   4.598   1.641   3.559
 9636TIP3   OH228871   6.579   1.883   5.699
 9636TIP3    H128872   6.602   1.872   5.791
 9636TIP3    H228873   6.572   1.978   5.687
 9637TIP3   OH228874   1.959   1.341   4.835
 9637TIP3    H128875   1.921   1.378   4.915
 9637TIP3    H228876   1.895   1.361   4.767
 9638TIP3   OH228877   1.656   0.415   2.018
 9638TIP3    H128878   1.598   0.427   1.943
 9638TIP3    H228879   1.652   0.321   2.036
 9639TIP3   OH228880   1.083   4.171   1.791
 9639TIP3    H128881   1.115   4.219   1.715
 9639TIP3    H228882   1.044   4.091   1.754
 9640TIP3   OH228883   2.846   2.453   2.887
 9640TIP3    H128884   2.941   2.447   2.896
 9640TIP3    H228885   2.816   2.484   2.973
 9641TIP3   OH228886   3.035   4.522   4.551
 9641TIP3    H128887   3.016   4.603   4.504
 9641TIP3    H228888   2.973   4.458   4.515
 9642TIP3   OH228889   0.799   3.720   4.318
 9642TIP3    H128890   0.831   3.802   4.355
 9642TIP3    H228891   0.814   3.656   4.388
 9643TIP3   OH228892   6.685   3.353   0.732
 9643TIP3    H128893   6.673   3.409   0.810
 9643TIP3    H228894   6.598   3.316   0.716
 9644TIP3   OH228895   6.590   5.860   5.457
 9644TIP3    H128896   6.581   5.819   5.371
 9644TIP3    H228897   6.670   5.822   5.494
 9645TIP3   OH228898   3.996   3.798   0.204
 9645TIP3    H128899   3.939   3.772   0.276
 9645TIP3    H228900   3.951   3.766   0.125
 9646TIP3   OH228901   3.931   5.069   5.011
 9646TIP3    H128902   3.995   4.998   5.011
 9646TIP3    H228903   3.975   5.143   5.051
 9647TIP3   OH228904   6.193   0.959   3.354
 9647TIP3    H128905   6.241   0.889   3.310
 9647TIP3    H228906   6.146   0.915   3.426
 9648TIP3   OH228907   0.050   2.314   2.004
 9648TIP3    H128908   0.066   2.408   1.997
 9648TIP3    H228909   0.086   2.290   2.089
 9649TIP3   OH228910   3.750   2.759   3.900
 9649TIP3    H128911   3.654   2.764   3.895
 9649TIP3    H228912   3.781   2.823   3.836
 9650TIP3   OH228913   6.789   1.559   3.930
 9650TIP3    H128914   6.845   1.549   4.006
 9650TIP3    H228915   6.741   1.640   3.946
 9651TIP3   OH228916   2.515   3.374   4.556
 9651TIP3    H128917   2.583   3.314   4.587
 9651TIP3    H228918   2.500   3.433   4.630
 9652TIP3   OH228919   1.409   2.300   0.506
 9652TIP3    H128920   1.354   2.324   0.581
 9652TIP3    H228921   1.373   2.350   0.433
 9653TIP3   OH228922   0.592   0.109   3.201
 9653TIP3    H128923   0.514   0.156   3.231
 9653TIP3    H228924   0.662   0.141   3.257
 9654TIP3   OH228925   5.793   4.819   5.163
 9654TIP3    H128926   5.790   4.873   5.084
 9654TIP3    H228927   5.702   4.793   5.177
 9655TIP3   OH228928   3.156   6.617   4.612
 9655TIP3    H128929   3.139   6.581   4.699
 9655TIP3    H228930   3.113   6.702   4.613
 9656TIP3   OH228931   2.377   1.208   2.978
 9656TIP3    H128932   2.390   1.131   2.922
 9656TIP3    H228933   2.323   1.176   3.050
 9657TIP3   OH228934   4.236   1.802   4.012
 9657TIP3    H128935   4.156   1.750   4.009
 9657TIP3    H228936   4.206   1.890   4.034
 9658TIP3   OH228937   4.702   4.352   4.848
 9658TIP3    H128938   4.789   4.349   4.889
 9658TIP3    H228939   4.703   4.279   4.786
 9659TIP3   OH228940   1.596   1.351   3.877
 9659TIP3    H128941   1.643   1.431   3.852
 9659TIP3    H228942   1.651   1.312   3.945
 9660TIP3   OH228943   4.046   1.671   1.016
 9660TIP3    H128944   4.031   1.756   0.974
 9660TIP3    H228945   3.961   1.645   1.049
 9661TIP3   OH228946   1.131   5.823   0.932
 9661TIP3    H128947   1.064   5.891   0.946
 9661TIP3    H228948   1.192   5.834   1.005
 9662TIP3   OH228949   3.022   3.531   5.312
 9662TIP3    H128950   3.091   3.536   5.377
 9662TIP3    H228951   3.042   3.452   5.262
 9663TIP3   OH228952   2.094   3.914  -0.056
 9663TIP3    H128953   2.053   3.910  -0.142
 9663TIP3    H228954   2.087   3.825  -0.021
 9664TIP3   OH228955   4.019   0.324   4.366
 9664TIP3    H128956   3.929   0.292   4.368
 9664TIP3    H228957   4.014   0.408   4.320
 9665TIP3   OH228958   5.405   2.581   4.389
 9665TIP3    H128959   5.422   2.526   4.465
 9665TIP3    H228960   5.436   2.529   4.314
 9666TIP3   OH228961   0.252   1.254   3.805
 9666TIP3    H128962   0.267   1.321   3.738
 9666TIP3    H228963   0.230   1.303   3.884
 9667TIP3   OH228964   1.291   0.290   3.529
 9667TIP3    H128965   1.203   0.265   3.555
 9667TIP3    H228966   1.327   0.211   3.488
 9668TIP3   OH228967   2.946   2.706   2.600
 9668TIP3    H128968   3.002   2.784   2.594
 9668TIP3    H228969   2.914   2.693   2.511
 9669TIP3   OH228970   1.688   2.081   1.780
 9669TIP3    H128971   1.593   2.081   1.790
 9669TIP3    H228972   1.715   1.992   1.802
 9670TIP3   OH228973   3.895   0.879   2.298
 9670TIP3    H128974   3.968   0.837   2.252
 9670TIP3    H228975   3.874   0.955   2.245
 9671TIP3   OH228976   0.151   5.757   2.361
 9671TIP3    H128977   0.160   5.665   2.337
 9671TIP3    H228978   0.212   5.768   2.435
 9672TIP3   OH228979   3.617   4.426   4.045
 9672TIP3    H128980   3.576   4.487   4.106
 9672TIP3    H228981   3.658   4.360   4.100
 9673TIP3   OH228982   4.772   3.799   3.756
 9673TIP3    H128983   4.817   3.862   3.813
 9673TIP3    H228984   4.841   3.739   3.728
 9674TIP3   OH228985   4.785   6.459   4.708
 9674TIP3    H128986   4.695   6.433   4.688
 9674TIP3    H228987   4.787   6.553   4.693
 9675TIP3   OH228988   5.921   3.072   5.314
 9675TIP3    H128989   5.840   3.021   5.311
 9675TIP3    H228990   5.943   3.085   5.222
 9676TIP3   OH228991   0.538   6.088   1.206
 9676TIP3    H128992   0.494   6.076   1.290
 9676TIP3    H228993   0.469   6.075   1.141
 9677TIP3   OH228994   6.129   2.050   0.727
 9677TIP3    H128995   6.097   2.084   0.810
 9677TIP3    H228996   6.130   2.126   0.669
 9678TIP3   OH228997   6.212   6.102   4.089
 9678TIP3    H128998   6.298   6.070   4.116
 9678TIP3    H228999   6.189   6.169   4.154
 9679TIP3   OH229000   0.509   3.890   0.926
 9679TIP3    H129001   0.602   3.873   0.940
 9679TIP3    H229002   0.478   3.813   0.878
 9680TIP3   OH229003   6.318   1.536   3.986
 9680TIP3    H129004   6.382   1.573   4.046
 9680TIP3    H229005   6.272   1.470   4.038
 9681TIP3   OH229006   0.760   2.679   1.247
 9681TIP3    H129007   0.730   2.766   1.272
 9681TIP3    H229008   0.696   2.619   1.286
 9682TIP3   OH229009   2.878   6.692   3.813
 9682TIP3    H129010   2.913   6.759   3.872
 9682TIP3    H229011   2.911   6.717   3.727
 9683TIP3   OH229012   1.686   2.687   2.823
 9683TIP3    H129013   1.676   2.653   2.912
 9683TIP3    H229014   1.665   2.612   2.766
 9684TIP3   OH229015   1.518   3.389   4.943
 9684TIP3    H129016   1.448   3.442   4.982
 9684TIP3    H229017   1.524   3.420   4.853
 9685TIP3   OH229018   5.542   1.418   5.782
 9685TIP3    H129019   5.512   1.499   5.742
 9685TIP3    H229020   5.592   1.446   5.859
 9686TIP3   OH229021   7.134   5.227   5.865
 9686TIP3    H129022   7.085   5.246   5.945
 9686TIP3    H229023   7.139   5.131   5.862
 9687TIP3   OH229024   5.676   1.452   5.081
 9687TIP3    H129025   5.744   1.446   5.148
 9687TIP3    H229026   5.646   1.543   5.085
 9688TIP3   OH229027   0.531   0.544   0.108
 9688TIP3    H129028   0.439   0.547   0.133
 9688TIP3    H229029   0.578   0.531   0.190
 9689TIP3   OH229030   6.292   2.338   2.343
 9689TIP3    H129031   6.224   2.371   2.284
 9689TIP3    H229032   6.371   2.385   2.317
 9690TIP3   OH229033   2.111   6.016   0.671
 9690TIP3    H129034   2.114   5.983   0.582
 9690TIP3    H229035   2.017   6.026   0.690
 9691TIP3   OH229036   5.975   5.606   4.705
 9691TIP3    H129037   6.054   5.573   4.663
 9691TIP3    H229038   5.910   5.538   4.689
 9692TIP3   OH229039   2.048   0.000   2.336
 9692TIP3    H129040   1.984   0.037   2.276
 9692TIP3    H229041   2.072   0.074   2.393
 9693TIP3   OH229042   6.066   1.635   5.835
 9693TIP3    H129043   6.116   1.690   5.775
 9693TIP3    H229044   6.130   1.608   5.900
 9694TIP3   OH229045   3.216   2.317   4.362
 9694TIP3    H129046   3.227   2.377   4.435
 9694TIP3    H229047   3.204   2.231   4.403
 9695TIP3   OH229048   1.517   0.281   5.272
 9695TIP3    H129049   1.468   0.260   5.192
 9695TIP3    H229050   1.501   0.207   5.330
 9696TIP3   OH229051   2.052   6.784   0.472
 9696TIP3    H129052   2.135   6.806   0.431
 9696TIP3    H229053   1.990   6.779   0.400
 9697TIP3   OH229054   4.833   0.725   1.867
 9697TIP3    H129055   4.757   0.691   1.915
 9697TIP3    H229056   4.860   0.652   1.811
 9698TIP3   OH229057   0.428   2.603   0.248
 9698TIP3    H129058   0.394   2.674   0.303
 9698TIP3    H229059   0.520   2.595   0.274
 9699TIP3   OH229060   0.788   4.499   4.472
 9699TIP3    H129061   0.796   4.595   4.474
 9699TIP3    H229062   0.830   4.470   4.553
 9700TIP3   OH229063   0.443   4.805   3.559
 9700TIP3    H129064   0.524   4.777   3.517
 9700TIP3    H229065   0.440   4.900   3.546
 9701TIP3   OH229066   2.539   1.160   4.558
 9701TIP3    H129067   2.571   1.190   4.643
 9701TIP3    H229068   2.488   1.233   4.524
 9702TIP3   OH229069   0.983   5.537   4.094
 9702TIP3    H129070   0.936   5.518   4.013
 9702TIP3    H229071   1.055   5.594   4.066
 9703TIP3   OH229072   6.309   6.695   5.327
 9703TIP3    H129073   6.342   6.623   5.381
 9703TIP3    H229074   6.284   6.762   5.391
 9704TIP3   OH229075   3.735   2.860   2.719
 9704TIP3    H129076   3.695   2.945   2.705
 9704TIP3    H229077   3.784   2.842   2.639
 9705TIP3   OH229078   2.352   4.381   2.405
 9705TIP3    H129079   2.317   4.403   2.318
 9705TIP3    H229080   2.280   4.334   2.448
 9706TIP3   OH229081   4.998   6.213   4.296
 9706TIP3    H129082   4.958   6.273   4.359
 9706TIP3    H229083   5.019   6.135   4.348
 9707TIP3   OH229084   1.566   4.845   2.598
 9707TIP3    H129085   1.486   4.896   2.611
 9707TIP3    H229086   1.628   4.881   2.662
 9708TIP3   OH229087   4.997   5.588   2.030
 9708TIP3    H129088   5.076   5.572   2.082
 9708TIP3    H229089   4.961   5.670   2.065
 9709TIP3   OH229090   7.177   4.338   0.010
 9709TIP3    H129091   7.139   4.408   0.063
 9709TIP3    H229092   7.132   4.344  -0.074
 9710TIP3   OH229093   6.943   4.335   3.904
 9710TIP3    H129094   6.985   4.254   3.933
 9710TIP3    H229095   6.858   4.336   3.949
 9711TIP3   OH229096   4.727   0.129   5.600
 9711TIP3    H129097   4.696   0.160   5.685
 9711TIP3    H229098   4.734   0.034   5.610
 9712TIP3   OH229099   5.080   1.633   4.711
 9712TIP3    H129100   5.049   1.590   4.631
 9712TIP3    H229101   5.049   1.723   4.703
 9713TIP3   OH229102   4.553   3.581   4.331
 9713TIP3    H129103   4.589   3.512   4.276
 9713TIP3    H229104   4.460   3.585   4.308
 9714TIP3   OH229105   2.310   0.326   1.396
 9714TIP3    H129106   2.292   0.233   1.410
 9714TIP3    H229107   2.317   0.336   1.301
 9715TIP3   OH229108   4.377   6.177   0.199
 9715TIP3    H129109   4.284   6.176   0.173
 9715TIP3    H229110   4.422   6.215   0.123
 9716TIP3   OH229111   4.014   3.567   4.513
 9716TIP3    H129112   3.975   3.653   4.500
 9716TIP3    H229113   3.942   3.506   4.500
 9717TIP3   OH229114   1.422   1.990   3.086
 9717TIP3    H129115   1.505   2.026   3.115
 9717TIP3    H229116   1.385   1.948   3.164
 9718TIP3   OH229117   1.119   3.840   4.978
 9718TIP3    H129118   1.203   3.807   4.944
 9718TIP3    H229119   1.141   3.881   5.061
 9719TIP3   OH229120   4.235   0.997   0.492
 9719TIP3    H129121   4.246   1.075   0.547
 9719TIP3    H229122   4.269   0.925   0.546
 9720TIP3   OH229123   3.526   1.886   1.865
 9720TIP3    H129124   3.466   1.960   1.861
 9720TIP3    H229125   3.596   1.908   1.804
 9721TIP3   OH229126   0.749   5.048   4.721
 9721TIP3    H129127   0.790   5.096   4.649
 9721TIP3    H229128   0.666   5.016   4.685
 9722TIP3   OH229129   6.879   3.762   1.988
 9722TIP3    H129130   6.810   3.789   2.050
 9722TIP3    H229131   6.862   3.815   1.910
 9723TIP3   OH229132   0.382   2.668   4.711
 9723TIP3    H129133   0.372   2.680   4.616
 9723TIP3    H229134   0.295   2.641   4.741
 9724TIP3   OH229135   6.606   0.949   2.484
 9724TIP3    H129136   6.597   0.912   2.396
 9724TIP3    H229137   6.668   1.021   2.474
 9725TIP3   OH229138   4.406   1.969   4.356
 9725TIP3    H129139   4.326   2.021   4.351
 9725TIP3    H229140   4.393   1.911   4.431
 9726TIP3   OH229141   3.683   0.537   4.273
 9726TIP3    H129142   3.654   0.628   4.274
 9726TIP3    H229143   3.607   0.488   4.241
 9727TIP3   OH229144   3.962   2.209   4.135
 9727TIP3    H129145   3.920   2.269   4.196
 9727TIP3    H229146   3.987   2.263   4.061
 9728TIP3   OH229147   2.498   0.573   3.619
 9728TIP3    H129148   2.452   0.646   3.577
 9728TIP3    H229149   2.566   0.615   3.671
 9729TIP3   OH229150   4.352   5.100   2.264
 9729TIP3    H129151   4.381   5.142   2.183
 9729TIP3    H229152   4.262   5.131   2.276
 9730TIP3   OH229153   3.059   1.398   3.618
 9730TIP3    H129154   3.040   1.319   3.669
 9730TIP3    H229155   3.003   1.391   3.541
 9731TIP3   OH229156   1.192   0.626   0.417
 9731TIP3    H129157   1.264   0.572   0.385
 9731TIP3    H229158   1.120   0.610   0.356
 9732TIP3   OH229159   1.019   4.056   5.407
 9732TIP3    H129160   1.108   4.089   5.408
 9732TIP3    H229161   1.012   4.002   5.486
 9733TIP3   OH229162   3.161   2.534   1.627
 9733TIP3    H129163   3.172   2.529   1.532
 9733TIP3    H229164   3.084   2.589   1.639
 9734TIP3   OH229165   6.588   2.315   1.710
 9734TIP3    H129166   6.507   2.355   1.741
 9734TIP3    H229167   6.653   2.385   1.718
 9735TIP3   OH229168   2.301   2.271   3.612
 9735TIP3    H129169   2.212   2.290   3.580
 9735TIP3    H229170   2.358   2.325   3.558
 9736TIP3   OH229171   6.301   4.862   5.033
 9736TIP3    H129172   6.215   4.896   5.007
 9736TIP3    H229173   6.289   4.829   5.122
 9737TIP3   OH229174   3.216   5.838   4.440
 9737TIP3    H129175   3.146   5.835   4.506
 9737TIP3    H229176   3.198   5.917   4.390
 9738TIP3   OH229177   0.402   5.492   2.090
 9738TIP3    H129178   0.373   5.525   2.005
 9738TIP3    H229179   0.494   5.516   2.095
 9739TIP3   OH229180   2.171   2.096   3.851
 9739TIP3    H129181   2.228   2.069   3.779
 9739TIP3    H229182   2.224   2.157   3.902
 9740TIP3   OH229183   2.827   6.788   3.013
 9740TIP3    H129184   2.854   6.714   2.959
 9740TIP3    H229185   2.748   6.758   3.058
 9741TIP3   OH229186   1.000   1.373   4.291
 9741TIP3    H129187   1.062   1.325   4.237
 9741TIP3    H229188   0.951   1.427   4.229
 9742TIP3   OH229189   2.986   3.302   1.279
 9742TIP3    H129190   3.031   3.297   1.194
 9742TIP3    H229191   2.946   3.215   1.289
 9743TIP3   OH229192   0.168   0.178   3.170
 9743TIP3    H129193   0.138   0.087   3.178
 9743TIP3    H229194   0.174   0.193   3.075
 9744TIP3   OH229195   4.710   0.704   5.169
 9744TIP3    H129196   4.669   0.763   5.107
 9744TIP3    H229197   4.778   0.756   5.211
 9745TIP3   OH229198   5.696   3.270   2.036
 9745TIP3    H129199   5.749   3.323   2.096
 9745TIP3    H229200   5.607   3.274   2.072
 9746TIP3   OH229201   1.825   0.123   5.822
 9746TIP3    H129202   1.745   0.073   5.807
 9746TIP3    H229203   1.815   0.160   5.909
 9747TIP3   OH229204   6.006   3.922   5.874
 9747TIP3    H129205   5.947   3.859   5.833
 9747TIP3    H229206   6.059   3.956   5.802
 9748TIP3   OH229207   4.708   0.908   0.300
 9748TIP3    H129208   4.765   0.832   0.314
 9748TIP3    H229209   4.769   0.980   0.283
 9749TIP3   OH229210   4.086   3.332   1.510
 9749TIP3    H129211   4.040   3.320   1.426
 9749TIP3    H229212   4.170   3.289   1.497
   7.21974   6.80684   5.89488   0.00000   0.00000  -2.40658   0.00000  -2.40658  -3.40341
