Title
19942
    1ASP      N    1   1.521   2.115   3.520 -0.5543 -0.5125 -0.1283
    1ASP    HT1    2   1.434   2.150   3.475 -0.9615  1.4028  2.0105
    1ASP    HT2    3   1.567   2.197   3.563  1.0651 -1.0191 -0.8242
    1ASP    HT3    4   1.487   2.047   3.591  1.7002 -1.0286  0.5487
    1ASP     CA    5   1.622   2.044   3.440 -0.0102 -0.7950  0.1901
    1ASP     HA    6   1.719   2.083   3.466 -0.6619  1.0354  0.0015
    1ASP     CB    7   1.614   1.893   3.477 -0.5350 -0.0983  0.1791
    1ASP    HB1    8   1.516   1.852   3.446 -0.7270  0.2849  0.2703
    1ASP    HB2    9   1.612   1.886   3.587  1.4349 -2.6447  0.1321
    1ASP     CG   10   1.725   1.808   3.421  0.1770 -0.4331  0.3070
    1ASP    OD1   11   1.712   1.684   3.398  0.3055 -0.3698  0.0777
    1ASP    OD2   12   1.832   1.863   3.407  0.1641 -0.0584  0.5967
    1ASP      C   13   1.592   2.070   3.293 -0.3387 -0.8530  0.1704
    1ASP      O   14   1.482   2.109   3.249 -0.6271  0.0336 -0.2763
    2ALA      N   15   1.697   2.052   3.209  0.0845  0.2267  0.0032
    2ALA     HN   16   1.787   2.024   3.239  0.0275 -2.4756 -2.0173
    2ALA     CA   17   1.683   2.079   3.065 -0.3724  0.1426 -0.1934
    2ALA     HA   18   1.620   2.164   3.045  1.0532  1.7467  1.8158
    2ALA     CB   19   1.818   2.135   3.000  0.0033  0.6209  0.1890
    2ALA    HB1   20   1.896   2.058   3.015 -0.3222  0.4009  0.7802
    2ALA    HB2   21   1.843   2.232   3.047  1.5249  1.0299 -1.3369
    2ALA    HB3   22   1.803   2.152   2.891 -2.1271  1.0502  0.4969
    2ALA      C   23   1.622   1.961   2.985  0.0336 -0.1090 -0.0593
    2ALA      O   24   1.640   1.842   3.016  0.2370  0.1924  0.1826
    3ASP      N   25   1.542   1.989   2.890  0.1608  0.0502  0.6053
    3ASP     HN   26   1.514   2.085   2.893  1.3916  0.4225  0.8731
    3ASP     CA   27   1.462   1.896   2.817  0.2371 -0.4886  0.3341
    3ASP     HA   28   1.401   1.848   2.892 -0.2297  2.5439  2.0768
    3ASP     CB   29   1.364   1.971   2.727  0.7055 -0.2669  0.4345
    3ASP    HB1   30   1.298   1.907   2.665  1.6245 -1.3213  0.5039
    3ASP    HB2   31   1.408   2.037   2.650 -0.3727 -1.0157 -0.8594
    3ASP     CG   32   1.280   2.058   2.812 -0.0575 -0.8656 -0.0664
    3ASP    OD1   33   1.237   2.164   2.765 -0.2000 -0.5611 -0.2494
    3ASP    OD2   34   1.240   2.009   2.918  0.2215  0.7765  0.0551
    3ASP      C   35   1.543   1.787   2.740  0.7347 -0.8651  0.5582
    3ASP      O   36   1.662   1.805   2.710  0.4907 -0.2408  0.1337
    4GLY      N   37   1.490   1.664   2.719  0.2555  0.1580 -0.4817
    4GLY     HN   38   1.396   1.644   2.745  0.5972 -1.3113 -0.2753
    4GLY     CA   39   1.561   1.551   2.652  0.6066 -0.1344 -0.1627
    4GLY    HA1   40   1.490   1.470   2.641  1.2291 -0.4751 -2.0553
    4GLY    HA2   41   1.655   1.528   2.701  1.4808  0.0782 -1.6880
    4GLY      C   42   1.600   1.575   2.509 -0.4191 -0.3625  0.0530
    4GLY      O   43   1.582   1.679   2.451  0.3363  0.1384  0.1666
    5PRO      N   44   1.666   1.481   2.438  1.0539  0.4558  0.2195
    5PRO     CD   45   1.696   1.349   2.491  0.6697 -0.7262 -0.1810
    5PRO    HD1   46   1.598   1.303   2.517  1.3833 -0.5442  3.4099
    5PRO    HD2   47   1.754   1.359   2.585 -1.2894 -1.9331  1.2282
    5PRO     CA   48   1.681   1.480   2.290 -0.8816  0.1088 -0.2098
    5PRO     HA   49   1.774   1.534   2.279 -0.6933  0.0428  0.9961
    5PRO     CB   50   1.708   1.332   2.248  0.1209  0.2837 -0.3770
    5PRO    HB1   51   1.767   1.321   2.154  0.8372  1.4399 -0.0875
    5PRO    HB2   52   1.608   1.285   2.236 -0.3954  1.1978  0.2785
    5PRO     CG   53   1.765   1.271   2.382 -0.3612  0.6636 -0.3926
    5PRO    HG1   54   1.750   1.162   2.393  0.1124  0.8142  2.1867
    5PRO    HG2   55   1.874   1.294   2.383  0.5529 -3.0544  0.5321
    5PRO      C   56   1.574   1.539   2.199  0.0298 -0.1961  0.0039
    5PRO      O   57   1.454   1.515   2.223  0.0405 -0.4367  0.7932
    6GLY      N   58   1.616   1.612   2.093  0.4351  0.1222 -0.7807
    6GLY     HN   59   1.715   1.625   2.087  0.5906  0.3334  1.5039
    6GLY     CA   60   1.528   1.665   1.990 -0.3083  0.3140  0.2529
    6GLY    HA1   61   1.554   1.769   1.978 -2.2153  1.2056  2.8832
    6GLY    HA2   62   1.424   1.646   2.011 -0.3784 -0.4908 -0.7647
    6GLY      C   63   1.562   1.590   1.860 -0.5692 -0.0228 -0.3661
    6GLY      O   64   1.483   1.569   1.770 -0.4470  0.0134 -0.0746
    7ASP      N   65   1.689   1.528   1.848 -0.5574 -0.1934  0.7114
    7ASP     HN   66   1.756   1.540   1.921 -2.0956  2.6418  1.8414
    7ASP     CA   67   1.734   1.465   1.725  0.4896  0.2501  0.3902
    7ASP     HA   68   1.722   1.545   1.654  0.7799  0.2679  0.3589
    7ASP     CB   69   1.881   1.405   1.733 -0.0148 -0.6091 -0.3782
    7ASP    HB1   70   1.902   1.337   1.648  0.1343  2.0094 -2.5664
    7ASP    HB2   71   1.892   1.363   1.835 -0.5286 -0.5414 -0.2937
    7ASP     CG   72   1.983   1.513   1.724  0.1877 -0.5623  0.2275
    7ASP    OD1   73   1.948   1.631   1.699 -0.0788 -0.6049 -0.5148
    7ASP    OD2   74   2.106   1.478   1.735 -0.0482 -0.3320  0.4248
    7ASP      C   75   1.650   1.346   1.683 -0.3692  0.0846  0.3736
    7ASP      O   76   1.588   1.284   1.770 -0.0290  0.2737  0.4622
    8PRO      N   77   1.633   1.308   1.555  0.0138 -1.1292  0.8729
    8PRO     CD   78   1.710   1.372   1.449  0.0318  0.2932 -0.1248
    8PRO    HD1   79   1.806   1.316   1.451 -1.1604 -1.8398  0.1806
    8PRO    HD2   80   1.710   1.481   1.470  1.0030  0.0024  1.5394
    8PRO     CA   81   1.545   1.197   1.506 -0.1475  0.2244  0.1442
    8PRO     HA   82   1.444   1.233   1.521  0.0305  0.2366  1.4783
    8PRO     CB   83   1.593   1.189   1.356  0.0780  0.2255 -0.0923
    8PRO    HB1   84   1.514   1.149   1.289 -1.2649  2.8808 -0.1809
    8PRO    HB2   85   1.680   1.120   1.343  1.1476  1.6891 -0.9488
    8PRO     CG   86   1.649   1.333   1.321 -0.4341  0.4373  0.2472
    8PRO    HG1   87   1.708   1.323   1.227 -0.0089  2.4455  0.2410
    8PRO    HG2   88   1.566   1.406   1.308  0.4281  2.0308  2.8302
    8PRO      C   89   1.562   1.057   1.568 -0.3527 -1.0683  0.3182
    8PRO      O   90   1.461   1.003   1.608 -0.5465 -0.2593  0.2666
    9ASP      N   91   1.680   0.998   1.564 -0.2355  0.6401 -0.1072
    9ASP     HN   92   1.764   1.048   1.542 -0.7405  1.7767  0.5013
    9ASP     CA   93   1.691   0.859   1.605 -0.0798  0.1779 -0.0966
    9ASP     HA   94   1.600   0.802   1.600 -0.0335 -0.0426  1.1199
    9ASP     CB   95   1.794   0.788   1.514 -0.1615 -0.1996  0.6150
    9ASP    HB1   96   1.803   0.680   1.535  1.6922 -0.4346 -1.0398
    9ASP    HB2   97   1.887   0.848   1.527 -0.1372 -0.0148 -0.3404
    9ASP     CG   98   1.751   0.798   1.372  0.1479  0.3936 -0.3618
    9ASP    OD1   99   1.848   0.816   1.290 -0.1386  0.4581 -0.0402
    9ASP    OD2  100   1.635   0.782   1.334  0.0419  0.3134 -0.1621
    9ASP      C  101   1.741   0.846   1.752  0.0014 -0.1504  0.1829
    9ASP      O  102   1.749   0.742   1.814 -0.5815  0.4791 -0.4803
   10ALA      N  103   1.770   0.963   1.818 -0.2627  0.2371 -0.1071
   10ALA     HN  104   1.757   1.052   1.776 -1.0390  2.2639  3.8583
   10ALA     CA  105   1.789   0.974   1.964  0.6305 -0.5140  0.6107
   10ALA     HA  106   1.873   0.910   1.987  0.7037 -1.0748 -1.0830
   10ALA     CB  107   1.843   1.107   1.998  0.5041 -0.4641 -0.0304
   10ALA    HB1  108   1.932   1.121   1.933  2.2486 -2.7462  1.6790
   10ALA    HB2  109   1.867   1.121   2.105  0.8265  0.5229 -0.2220
   10ALA    HB3  110   1.769   1.186   1.973  1.2922  0.0814 -0.7036
   10ALA      C  111   1.660   0.952   2.047  0.2795  0.1722  0.2630
   10ALA      O  112   1.555   1.006   2.024 -0.2946 -0.0238 -0.5678
   11GLY      N  113   1.677   0.870   2.149  0.2793 -0.3887 -0.1127
   11GLY     HN  114   1.774   0.852   2.164 -0.2003 -1.3105  2.2931
   11GLY     CA  115   1.579   0.851   2.256 -0.7904  0.6852  0.6877
   11GLY    HA1  116   1.476   0.862   2.224 -1.3818  0.0588  2.2713
   11GLY    HA2  117   1.598   0.910   2.344 -0.8286  1.7887 -0.0242
   11GLY      C  118   1.605   0.711   2.318  0.1563 -0.4536 -0.0695
   11GLY    OT1  119   1.650   0.617   2.257  0.2095  0.5988  0.6891
   11GLY    OT2  120   1.565   0.696   2.441  0.4566 -0.7578 -0.0585
   12LIT    LIT  121   4.989   5.549   1.801  0.4259  0.0807  0.0906
   13LIT    LIT  122   2.968   5.130   4.801  0.4996 -0.1957 -0.9716
   14LIT    LIT  123   2.880   5.604   4.161 -0.3962  0.7408  0.2779
   15LIT    LIT  124   3.384   5.757   4.004  0.1548  0.6080  0.3990
   16LIT    LIT  125   4.763   5.131   4.429  0.3360  0.8073 -0.1115
   17LIT    LIT  126   4.823   0.534   2.705  0.1754  0.0498 -0.1824
   18LIT    LIT  127   2.113   2.441   4.212  0.0160  0.0232 -0.4396
   19LIT    LIT  128   5.267   4.774   2.347 -0.1049 -0.6627 -0.0507
   20LIT    LIT  129   2.420   1.589   4.182  0.0373  1.0981 -0.3011
   21LIT    LIT  130   4.093   3.943   1.206  0.5096  0.7433 -1.0708
   22LIT    LIT  131   5.385   4.909   3.443 -0.0503  1.2462 -0.7484
   23LIT    LIT  132   0.282   3.105   2.080 -0.2774 -0.3161 -1.6942
   24LIT    LIT  133   0.272   3.744   4.977 -0.6360 -0.1542 -0.0460
   25LIT    LIT  134   0.190   4.924   2.512 -0.3398  0.4844  0.3354
   26LIT    LIT  135   3.663   1.564   4.902  0.3254 -0.3481 -0.5915
   27LIT    LIT  136   1.525   0.711   4.216  0.3409 -0.8327 -0.2187
   28LIT    LIT  137   1.877   1.678   3.294  0.4562  0.0679  0.7184
   29LIT    LIT  138   2.145   5.671   3.902 -0.0174 -0.1326 -1.3174
   30LIT    LIT  139   4.994   3.664   0.917  0.4641 -0.0353  0.1885
   31LIT    LIT  140   4.911   2.771   3.687 -0.1789  0.0897 -0.9943
   32LIT    LIT  141   3.956   5.379   1.780 -0.3557  0.1169 -0.6769
   33LIT    LIT  142   4.954   3.451   4.984 -1.1266 -0.1384  0.5682
   34CLA    CLA  143   1.042   3.721   2.629  0.0846  0.2977  0.0666
   35CLA    CLA  144   5.334   4.835   2.133  0.2642  0.3777  0.0009
   36CLA    CLA  145   4.961   3.060   2.487 -0.4888 -0.3355  0.2878
   37CLA    CLA  146   4.969   0.467   3.763 -0.0470 -0.2122 -0.2527
   38CLA    CLA  147   2.555   1.779   4.189 -0.1161  0.2162 -0.2167
   39CLA    CLA  148   2.230   0.759   2.375  0.2262 -0.0937 -0.4681
   40CLA    CLA  149   5.874   0.201   4.904  0.0956  0.0561 -0.2152
   41CLA    CLA  150   3.059   5.802   4.565  0.2398 -0.0841  0.2172
   42CLA    CLA  151   3.341   2.854   4.516  0.0538 -0.1167 -0.0609
   43CLA    CLA  152   1.881   1.768   4.439 -0.2335 -0.1869  0.4021
   44CLA    CLA  153   1.138   5.458   0.161  0.1940  0.2551  0.3004
   45CLA    CLA  154   2.216   2.085   3.539 -0.2140  0.0024  0.0439
   46CLA    CLA  155   5.261   0.705   2.896 -0.1462 -0.4367 -0.1876
   47CLA    CLA  156   0.112   4.705   0.204  0.1527  0.0086  0.1022
   48CLA    CLA  157   4.819   5.345   0.632  0.1773  0.4342 -0.2014
   49CLA    CLA  158   3.140   0.293   3.357 -0.2528  0.1020 -0.0569
   50CLA    CLA  159   3.194   5.907   1.016 -0.4032 -0.3947 -0.1123
   51CLA    CLA  160   2.399   3.230   4.989  0.1038 -0.0852  0.1989
   52TIP3   OH2  161   3.097   2.859   4.717 -0.0447  0.0772 -0.4966
   52TIP3    H1  162   3.162   2.867   4.648 -0.2553  0.2580 -0.6728
   52TIP3    H2  163   3.148   2.834   4.794  0.3300  0.8938 -0.4646
   53TIP3   OH2  164   0.120   5.831   0.516 -0.3851  0.2222  0.2870
   53TIP3    H1  165   0.209   5.798   0.532 -0.2824 -0.7231 -1.8930
   53TIP3    H2  166   0.110   5.827   0.421 -2.9139 -0.0801  0.5016
   54TIP3   OH2  167   0.581   1.597   2.811 -0.4495 -0.3801 -0.4151
   54TIP3    H1  168   0.619   1.521   2.766 -0.7414 -0.6573 -0.1979
   54TIP3    H2  169   0.647   1.666   2.802  0.2066 -0.9227  0.1711
   55TIP3   OH2  170   1.129   0.782   1.814 -0.6198 -0.3513 -0.6875
   55TIP3    H1  171   1.202   0.793   1.875 -0.3769  1.0546 -1.1975
   55TIP3    H2  172   1.097   0.693   1.832 -0.2536 -0.1707  1.1383
   56TIP3   OH2  173   4.692   0.529   0.736 -0.0469  0.2976 -0.2518
   56TIP3    H1  174   4.627   0.466   0.707 -1.2146  0.7887  1.1416
   56TIP3    H2  175   4.719   0.575   0.657 -0.0728 -1.1015 -1.1024
   57TIP3   OH2  176   6.185   5.965   4.014 -0.4790 -0.0238  0.0257
   57TIP3    H1  177   6.152   5.890   4.064 -0.8804 -0.7448 -1.2906
   57TIP3    H2  178   6.148   5.955   3.927 -0.2391  1.5195 -0.2910
   58TIP3   OH2  179   0.941   4.043   1.606 -0.1886 -0.3227 -0.7981
   58TIP3    H1  180   0.908   4.037   1.696  0.2709  0.7456 -0.5440
   58TIP3    H2  181   0.935   3.954   1.573 -0.3715 -0.7377  0.2943
   59TIP3   OH2  182   1.474   3.007   0.794  0.1943 -0.2278  0.2229
   59TIP3    H1  183   1.420   2.937   0.829  0.3700 -0.4549  0.0393
   59TIP3    H2  184   1.530   2.965   0.729 -0.0064  0.1570 -0.2109
   60TIP3   OH2  185   4.682   3.361   1.351 -0.6253  0.3926 -0.7869
   60TIP3    H1  186   4.644   3.304   1.284  0.9436 -1.0384 -0.5562
   60TIP3    H2  187   4.774   3.371   1.324 -0.0901  0.2059  0.8265
   61TIP3   OH2  188   0.268   1.098   1.128  0.3937 -0.1193  0.0705
   61TIP3    H1  189   0.361   1.114   1.147  0.0609  2.1610  0.0791
   61TIP3    H2  190   0.222   1.165   1.178 -1.3122 -1.4164  0.3191
   62TIP3   OH2  191   3.990   2.681   0.837 -0.1703  0.0289 -0.0078
   62TIP3    H1  192   4.057   2.680   0.905  0.4642 -1.8054 -0.5896
   62TIP3    H2  193   3.919   2.733   0.874  0.6650  0.1457  1.5245
   63TIP3   OH2  194   4.845   1.540   0.336  0.0409 -0.0984 -0.0068
   63TIP3    H1  195   4.935   1.510   0.329  0.1637  0.2232  0.1964
   63TIP3    H2  196   4.816   1.508   0.422  0.8659  2.1909  1.1939
   64TIP3   OH2  197   3.677   1.284   3.901 -0.4358 -0.0143 -0.0193
   64TIP3    H1  198   3.683   1.207   3.844 -0.0857 -0.3520  0.4702
   64TIP3    H2  199   3.700   1.357   3.843  1.3217 -0.4977 -0.0100
   65TIP3   OH2  200   2.218   2.006   2.142  0.1670  0.1885  0.4324
   65TIP3    H1  201   2.296   1.954   2.121  0.3207  0.3324  0.6368
   65TIP3    H2  202   2.144   1.949   2.122  0.3217  0.0952  0.1130
   66TIP3   OH2  203   6.253   1.421   0.287 -0.0480  0.2738  0.0303
   66TIP3    H1  204   6.252   1.367   0.208  1.4558 -1.6451  1.2379
   66TIP3    H2  205   6.230   1.361   0.358  0.3817  1.5237  1.2812
   67TIP3   OH2  206   2.894   3.332   3.754 -0.5086 -0.1144  0.3134
   67TIP3    H1  207   2.813   3.305   3.796 -0.4569  0.8780  1.0919
   67TIP3    H2  208   2.869   3.353   3.663 -1.4104  1.4411  0.8775
   68TIP3   OH2  209   4.151   2.720   4.783 -0.2901 -0.4278 -0.2636
   68TIP3    H1  210   4.173   2.697   4.873 -1.4869  1.7228  0.6516
   68TIP3    H2  211   4.215   2.672   4.730 -0.1452 -2.5031  1.6225
   69TIP3   OH2  212   4.509   1.968   4.657 -0.0786  0.0535  0.1050
   69TIP3    H1  213   4.602   1.985   4.675  0.3781 -0.2407 -1.7291
   69TIP3    H2  214   4.481   2.046   4.608 -1.0309  0.4790  1.2817
   70TIP3   OH2  215   5.048   1.391   2.654 -0.3750  0.1068  0.1326
   70TIP3    H1  216   5.008   1.477   2.660  0.7713  0.6118  0.8485
   70TIP3    H2  217   5.019   1.344   2.732  1.4317  0.9503  1.3888
   71TIP3   OH2  218   4.761   1.110   1.549 -0.3526  0.2634 -0.4607
   71TIP3    H1  219   4.666   1.100   1.545 -0.3614 -0.0283  0.2339
   71TIP3    H2  220   4.779   1.119   1.643  0.4801 -1.5820 -0.4134
   72TIP3   OH2  221   3.302   2.072   4.931 -0.0004  0.8045  0.6918
   72TIP3    H1  222   3.305   1.976   4.926  3.4727  0.8368 -0.1453
   72TIP3    H2  223   3.302   2.101   4.840 -2.1999  1.6790  0.9163
   73TIP3   OH2  224   1.394   2.044   0.228  0.2971  0.3513 -0.7870
   73TIP3    H1  225   1.398   1.998   0.312  0.2381  1.2369 -0.2881
   73TIP3    H2  226   1.459   2.114   0.235 -0.1410  0.8151 -1.2447
   74TIP3   OH2  227   5.303   3.280   3.176 -0.0512 -0.1105  0.0376
   74TIP3    H1  228   5.323   3.222   3.103  0.2025 -0.1909  0.1732
   74TIP3    H2  229   5.253   3.226   3.237  0.4727 -0.2816  0.3189
   75TIP3   OH2  230   3.901   2.261   0.841 -0.2125  0.3787  0.1623
   75TIP3    H1  231   3.819   2.212   0.834 -0.9323  1.3528  1.3510
   75TIP3    H2  232   3.912   2.277   0.935  2.0921 -0.9320  0.1838
   76TIP3   OH2  233   4.875   5.682   0.405 -1.0723 -0.0982 -0.5787
   76TIP3    H1  234   4.864   5.776   0.415  1.4978  0.3306 -1.1994
   76TIP3    H2  235   4.918   5.654   0.485  2.0116  0.0616 -2.0412
   77TIP3   OH2  236   2.481   2.142   4.596  0.5939 -0.4625  0.8822
   77TIP3    H1  237   2.452   2.167   4.508 -0.6338 -1.5337  0.9548
   77TIP3    H2  238   2.528   2.060   4.583  0.3562 -0.6566  1.2254
   78TIP3   OH2  239   1.281   1.246   4.546 -0.7983 -0.1009 -0.0577
   78TIP3    H1  240   1.264   1.228   4.454 -1.4199 -0.1429  0.0564
   78TIP3    H2  241   1.219   1.315   4.569  0.7766  1.4084 -0.1857
   79TIP3   OH2  242   4.628   1.717   5.021  0.4884 -0.4048 -0.0019
   79TIP3    H1  243   4.625   1.653   5.092  0.4784  0.3777  0.7170
   79TIP3    H2  244   4.720   1.741   5.014  0.1729  1.5590  1.6459
   80TIP3   OH2  245   5.386   2.074   3.723  0.1178 -0.5783  0.6846
   80TIP3    H1  246   5.314   2.136   3.737 -1.0798 -1.6569 -0.4655
   80TIP3    H2  247   5.357   1.994   3.768  1.0940 -0.7032  1.1151
   81TIP3   OH2  248   4.097   1.510   0.131  0.2982 -0.2120 -0.9036
   81TIP3    H1  249   4.019   1.553   0.167  0.5667 -0.1657 -0.3812
   81TIP3    H2  250   4.082   1.511   0.036 -0.3670 -0.2598 -0.8033
   82TIP3   OH2  251   1.496   0.612   3.427 -0.0731  0.0340 -0.0457
   82TIP3    H1  252   1.462   0.622   3.338 -2.3417  0.1873  0.7751
   82TIP3    H2  253   1.481   0.696   3.469 -0.0788 -0.3798  0.8201
   83TIP3   OH2  254   0.100   3.740   1.896 -0.1862 -0.1273  0.3306
   83TIP3    H1  255   0.163   3.720   1.827 -0.1872 -0.0105  0.2961
   83TIP3    H2  256   0.051   3.815   1.864 -1.3989 -1.1470 -0.3317
   84TIP3   OH2  257   3.382   1.235   1.502 -0.1716  0.2470 -0.1133
   84TIP3    H1  258   3.433   1.159   1.474  1.2852  0.1176  2.5704
   84TIP3    H2  259   3.343   1.209   1.585 -2.1006  1.4641 -0.5621
   85TIP3   OH2  260   6.296   0.959   2.171  0.6166 -0.5751  0.7353
   85TIP3    H1  261   6.382   0.966   2.130 -0.6334 -0.1018 -2.0168
   85TIP3    H2  262   6.301   0.879   2.225  1.9647 -2.1275 -1.5231
   86TIP3   OH2  263   3.815   4.826   2.043 -0.2406  0.6787  0.0986
   86TIP3    H1  264   3.814   4.920   2.062  0.5862  0.4926  1.1487
   86TIP3    H2  265   3.732   4.809   2.000  0.2036  2.1549 -1.4454
   87TIP3   OH2  266   4.904   3.998   1.564  0.3656 -0.1536  0.3013
   87TIP3    H1  267   4.922   3.985   1.657 -0.5868 -0.0307  0.5157
   87TIP3    H2  268   4.880   3.911   1.532  2.9444 -0.6964 -0.3956
   88TIP3   OH2  269   2.306   1.163   0.262  0.0905 -0.0481  0.2989
   88TIP3    H1  270   2.356   1.228   0.213  0.7449  0.0646  1.0903
   88TIP3    H2  271   2.216   1.174   0.231  0.2441  1.0176  0.1850
   89TIP3   OH2  272   0.685   0.115   2.610 -0.1699  0.4704  0.2005
   89TIP3    H1  273   0.610   0.171   2.587 -0.6569  0.2842  1.2821
   89TIP3    H2  274   0.708   0.140   2.699  0.0647 -0.5486  0.4415
   90TIP3   OH2  275   0.947   0.334   2.802  1.3047 -0.1479 -0.4484
   90TIP3    H1  276   0.962   0.303   2.713  1.9540  1.6056 -0.9951
   90TIP3    H2  277   1.035   0.352   2.836  1.0986 -1.2220  0.7360
   91TIP3   OH2  278   1.978   5.818   2.449  0.4935  0.1824  0.3686
   91TIP3    H1  279   1.921   5.806   2.373 -0.6137  0.4840  1.1172
   91TIP3    H2  280   2.060   5.776   2.424  0.4734  1.0586 -1.3385
   92TIP3   OH2  281   2.775   2.743   0.943  0.4261  0.2740 -0.5723
   92TIP3    H1  282   2.764   2.827   0.898 -1.3703 -0.6047 -1.8935
   92TIP3    H2  283   2.785   2.679   0.873 -1.3212 -0.9901  0.2398
   93TIP3   OH2  284   2.264   3.386   3.471 -0.4582  0.2908  0.0522
   93TIP3    H1  285   2.320   3.329   3.419 -0.0363  0.7297  0.0093
   93TIP3    H2  286   2.300   3.381   3.560  0.5723  1.6801 -0.2518
   94TIP3   OH2  287   5.261   5.610   3.998  0.2189 -0.3404  0.2828
   94TIP3    H1  288   5.182   5.617   4.050 -1.4192 -0.7133 -1.9834
   94TIP3    H2  289   5.266   5.694   3.951  0.8387 -0.5448 -0.0322
   95TIP3   OH2  290   2.874   4.918   1.356 -0.3343 -0.2228 -0.1433
   95TIP3    H1  291   2.829   4.910   1.272  0.3529 -0.2878 -0.5102
   95TIP3    H2  292   2.899   5.010   1.361 -1.4869  0.0754  0.5810
   96TIP3   OH2  293   2.543  -0.016   0.077  1.0133  0.1044 -0.4030
   96TIP3    H1  294   2.481   0.032   0.132  0.8658 -0.4596 -0.0642
   96TIP3    H2  295   2.531   0.020  -0.011  3.1211  2.9406  0.3081
   97TIP3   OH2  296   4.727   1.547   4.750 -0.1760 -0.1887  0.4302
   97TIP3    H1  297   4.684   1.614   4.803  0.9717  0.9142  0.0228
   97TIP3    H2  298   4.706   1.571   4.660  1.3091  0.4319  0.2154
   98TIP3   OH2  299   2.212   0.245   0.635 -0.5190 -0.5129  0.2001
   98TIP3    H1  300   2.163   0.173   0.595  0.7147 -0.7807 -0.8983
   98TIP3    H2  301   2.283   0.262   0.574 -1.7384  2.8602 -0.5230
   99TIP3   OH2  302   2.842   1.970   3.579  0.4191 -0.4375  0.5076
   99TIP3    H1  303   2.840   2.037   3.646 -0.6800 -0.9951  1.0585
   99TIP3    H2  304   2.792   1.897   3.616 -0.4725 -0.6480 -1.0083
  100TIP3   OH2  305   6.334   4.764   4.607  0.3037 -0.4658 -0.1339
  100TIP3    H1  306   6.251   4.807   4.624 -0.4106 -0.4205 -3.2791
  100TIP3    H2  307   6.312   4.671   4.601  0.3288 -0.3961 -1.5727
  101TIP3   OH2  308   0.999   0.874   0.675  0.4904 -0.5368 -0.1217
  101TIP3    H1  309   0.955   0.918   0.603 -0.4438  1.2640  1.4605
  101TIP3    H2  310   1.085   0.850   0.640 -0.4906 -1.1286 -2.2575
  102TIP3   OH2  311   4.341   3.357   4.618  0.2406  0.0057  0.0828
  102TIP3    H1  312   4.395   3.434   4.635  1.1089 -0.8793  1.6522
  102TIP3    H2  313   4.402   3.283   4.622 -0.3713 -0.7276 -2.4799
  103TIP3   OH2  314   1.770   5.116   3.028  0.5085 -0.1917  0.2360
  103TIP3    H1  315   1.819   5.035   3.040  1.1357  0.3446  1.5112
  103TIP3    H2  316   1.749   5.145   3.117 -2.5194 -0.5900 -0.2308
  104TIP3   OH2  317   2.379   5.577   3.387 -0.6859 -0.4728 -0.1933
  104TIP3    H1  318   2.309   5.592   3.323 -2.9608  0.1781  2.2742
  104TIP3    H2  319   2.398   5.484   3.380 -0.3266 -0.3046 -2.2576
  105TIP3   OH2  320   3.878   1.402   1.973 -0.2931  0.1145 -0.1833
  105TIP3    H1  321   3.890   1.435   1.884 -1.1196  0.7644 -0.0657
  105TIP3    H2  322   3.947   1.445   2.023 -0.1832  0.1924 -0.3959
  106TIP3   OH2  323   0.037   4.803   1.461 -0.0451 -0.4481 -0.6811
  106TIP3    H1  324   0.033   4.822   1.555  2.2485  0.7156 -0.7364
  106TIP3    H2  325  -0.002   4.880   1.420 -0.7853 -0.8307 -0.7147
  107TIP3   OH2  326   5.596   1.630   4.306  0.0717 -0.5438 -0.1474
  107TIP3    H1  327   5.589   1.576   4.384  0.0419 -0.1159  0.1499
  107TIP3    H2  328   5.689   1.646   4.295  0.1935 -1.7611 -1.0056
  108TIP3   OH2  329   4.315   2.121   1.910 -0.1199 -0.6825 -0.5189
  108TIP3    H1  330   4.225   2.087   1.914  0.3041 -1.8712 -0.8055
  108TIP3    H2  331   4.341   2.130   2.001  0.0954 -2.0846 -0.4202
  109TIP3   OH2  332   3.519   5.367   1.772 -0.1860 -0.0539 -0.2233
  109TIP3    H1  333   3.443   5.352   1.716 -0.7281 -0.2850  0.5640
  109TIP3    H2  334   3.558   5.281   1.784 -0.1099 -0.0150 -0.1905
  110TIP3   OH2  335   0.614   3.377   0.430  0.0050 -0.0189 -0.3063
  110TIP3    H1  336   0.700   3.347   0.460  0.8368  2.2673 -0.2191
  110TIP3    H2  337   0.554   3.345   0.497  0.9748 -0.4708  0.3841
  111TIP3   OH2  338   1.127   3.999   1.332 -0.3081 -0.4248  0.2004
  111TIP3    H1  339   1.056   3.943   1.362 -1.7846  1.5776  0.6563
  111TIP3    H2  340   1.088   4.055   1.265  0.3989  1.5721  1.3351
  112TIP3   OH2  341   2.887   4.265   4.729 -0.1468  0.5550 -0.0683
  112TIP3    H1  342   2.821   4.323   4.690  0.8797  2.1845  0.5112
  112TIP3    H2  343   2.966   4.319   4.735  0.1816 -0.0677  2.8363
  113TIP3   OH2  344   1.429   0.098   1.465  0.0606  0.4152  0.1814
  113TIP3    H1  345   1.448   0.180   1.512  3.0966  0.4241 -0.8325
  113TIP3    H2  346   1.400   0.126   1.378  0.4106  0.4285  0.0669
  114TIP3   OH2  347   3.669   0.755   1.215  0.1062 -0.4162  0.3654
  114TIP3    H1  348   3.600   0.699   1.250  0.1668 -0.4788  0.3840
  114TIP3    H2  349   3.648   0.843   1.248  1.4628 -0.8376  2.5259
  115TIP3   OH2  350   4.943   3.767   4.124  0.1194  0.3088 -0.2831
  115TIP3    H1  351   4.983   3.769   4.037 -0.6555  0.9931 -0.6383
  115TIP3    H2  352   4.849   3.770   4.107 -0.0386  0.4849  0.5803
  116TIP3   OH2  353   2.496   5.596   0.316  0.0288 -0.5500  0.2153
  116TIP3    H1  354   2.552   5.662   0.358 -0.5249 -0.2527  0.4881
  116TIP3    H2  355   2.461   5.546   0.389 -2.6808  1.3258  0.3368
  117TIP3   OH2  356   6.085   1.388   0.926 -0.8837 -0.3630 -0.1606
  117TIP3    H1  357   6.047   1.325   0.864 -0.9310 -1.8632  1.3084
  117TIP3    H2  358   6.166   1.416   0.885  0.1915 -2.9842 -0.0419
  118TIP3   OH2  359   2.646   0.995   4.195  0.2154  0.2757  0.0370
  118TIP3    H1  360   2.580   0.955   4.251  0.6353 -1.0084 -0.3440
  118TIP3    H2  361   2.729   0.964   4.230  0.5971  1.3276  0.0945
  119TIP3   OH2  362   6.359   5.615   3.196  0.5095 -0.3715  0.0864
  119TIP3    H1  363   6.293   5.679   3.169  1.2708  0.9023  1.1244
  119TIP3    H2  364   6.330   5.586   3.282  1.2162  0.1200  0.5052
  120TIP3   OH2  365   6.376   2.815   2.722  0.1232 -0.2647 -0.0813
  120TIP3    H1  366   6.300   2.758   2.732 -0.6393  0.8294  0.5213
  120TIP3    H2  367   6.346   2.885   2.664  0.6682  0.1887  0.1770
  121TIP3   OH2  368   0.205   0.842   2.173 -0.5231  0.3705  0.0355
  121TIP3    H1  369   0.287   0.880   2.202 -0.8340  0.7230  0.4690
  121TIP3    H2  370   0.215   0.748   2.189  0.2268  0.2657 -1.0009
  122TIP3   OH2  371   5.158   5.351   1.223  0.2958 -0.6164  0.4019
  122TIP3    H1  372   5.076   5.396   1.204 -0.2240 -0.6553  2.3292
  122TIP3    H2  373   5.140   5.259   1.202 -0.8133 -0.9355  2.4883
  123TIP3   OH2  374   1.953   2.720   4.996  0.2105 -0.4895  0.2477
  123TIP3    H1  375   1.927   2.721   5.088  1.6284 -0.1306  0.6772
  123TIP3    H2  376   1.976   2.811   4.976 -1.8382 -0.1809 -1.0421
  124TIP3   OH2  377   6.209   4.863   1.160  0.2094  1.0822  0.2658
  124TIP3    H1  378   6.157   4.866   1.240  1.4319 -0.9033  1.1986
  124TIP3    H2  379   6.203   4.952   1.124 -2.4771  1.3301  1.1498
  125TIP3   OH2  380   3.896   4.537   1.755 -0.0653  0.5798  0.7488
  125TIP3    H1  381   3.855   4.499   1.833  0.0581 -0.7588  0.1853
  125TIP3    H2  382   3.980   4.492   1.747  1.1632  2.6157  1.3435
  126TIP3   OH2  383   1.841   0.408   4.084 -0.0993  0.3271 -0.1081
  126TIP3    H1  384   1.800   0.321   4.084 -0.9351  0.7126 -0.2153
  126TIP3    H2  385   1.800   0.453   4.010  0.7684  0.6190 -0.4282
  127TIP3   OH2  386   6.279   4.445   4.582 -0.1790  0.1850 -0.1740
  127TIP3    H1  387   6.218   4.432   4.654  0.6529  0.4274  0.5845
  127TIP3    H2  388   6.228   4.493   4.516 -0.7043  0.6752  0.5803
  128TIP3   OH2  389   2.101   1.745   0.673  0.0899  0.3125 -0.0845
  128TIP3    H1  390   2.021   1.694   0.663 -1.0988  1.3477  2.8336
  128TIP3    H2  391   2.072   1.836   0.665  0.9550  0.6968  0.9497
  129TIP3   OH2  392   1.185   5.192   2.815 -0.0723  0.3533  0.3714
  129TIP3    H1  393   1.236   5.117   2.785 -0.1546 -0.5530  2.3765
  129TIP3    H2  394   1.097   5.177   2.780  0.3663  0.5437 -0.8517
  130TIP3   OH2  395   5.650   1.753   3.526  0.3992 -0.1988 -0.3391
  130TIP3    H1  396   5.654   1.676   3.583  2.5987 -0.2912 -0.5389
  130TIP3    H2  397   5.686   1.824   3.580 -1.8155  0.8095 -0.0731
  131TIP3   OH2  398   0.240   4.280   4.266  0.2877 -0.8566  0.1980
  131TIP3    H1  399   0.246   4.374   4.246  0.7699 -1.3268 -2.0546
  131TIP3    H2  400   0.231   4.238   4.181 -1.8067 -2.7662  1.2736
  132TIP3   OH2  401   0.660   5.016   5.187  0.2700  0.3511 -0.2602
  132TIP3    H1  402   0.661   4.980   5.099 -0.3532 -0.1847 -0.0536
  132TIP3    H2  403   0.611   5.098   5.179  0.6744  0.5705 -0.5075
  133TIP3   OH2  404   1.365   1.839   2.286  0.2067  0.4065  0.7147
  133TIP3    H1  405   1.405   1.762   2.328  0.6839  0.2067 -0.0773
  133TIP3    H2  406   1.439   1.897   2.268 -0.0175  0.5836  0.3580
  134TIP3   OH2  407   5.694   0.242   1.979  0.2573 -0.1080 -0.3121
  134TIP3    H1  408   5.750   0.305   2.023 -0.4239  0.2737  0.0262
  134TIP3    H2  409   5.712   0.256   1.886  0.8982 -0.1657 -0.2020
  135TIP3   OH2  410   0.191   5.247   2.825 -0.2610  0.2732  0.0288
  135TIP3    H1  411   0.137   5.291   2.759 -0.7274  0.5247  0.5752
  135TIP3    H2  412   0.157   5.158   2.829  1.2748 -0.4822 -1.7520
  136TIP3   OH2  413   0.046   2.188   4.680  0.0414  0.2808  0.6179
  136TIP3    H1  414   0.042   2.171   4.774  0.4974 -0.1244  0.5710
  136TIP3    H2  415   0.140   2.194   4.661 -0.0617  3.0658  0.6500
  137TIP3   OH2  416   2.293   2.760   2.832 -0.0832  0.2192 -0.0351
  137TIP3    H1  417   2.308   2.694   2.900 -0.3886  0.3362  0.1462
  137TIP3    H2  418   2.212   2.732   2.790 -0.5134  0.7898  0.4081
  138TIP3   OH2  419   1.166   1.555   5.204 -0.0137 -0.2915  0.4368
  138TIP3    H1  420   1.227   1.580   5.135  1.2503  0.1592  1.6653
  138TIP3    H2  421   1.100   1.625   5.204  1.3890  1.1098  1.3133
  139TIP3   OH2  422   0.068   0.391   2.462 -0.1567  0.8256 -0.3679
  139TIP3    H1  423   0.026   0.329   2.402  1.3082  0.1046 -0.6826
  139TIP3    H2  424   0.098   0.463   2.406  1.2371  0.1387 -0.5289
  140TIP3   OH2  425   2.382   0.182   0.125  0.1337  0.4332  0.1089
  140TIP3    H1  426   2.332   0.242   0.180 -1.3406 -0.1195 -0.5630
  140TIP3    H2  427   2.392   0.228   0.042 -3.4933 -1.1662 -1.4340
  141TIP3   OH2  428   5.043   5.293   2.570 -0.0919  0.3991  0.5178
  141TIP3    H1  429   5.023   5.276   2.478  1.4433  0.7963  0.0791
  141TIP3    H2  430   5.027   5.386   2.581  0.4579  0.5053  0.4424
  142TIP3   OH2  431   4.087   0.879   0.107  0.3244 -0.3772  0.2034
  142TIP3    H1  432   4.057   0.968   0.089 -0.4052 -0.3382  1.4544
  142TIP3    H2  433   4.027   0.847   0.175  1.2855 -1.4042  0.6058
  143TIP3   OH2  434   3.246   5.581   1.095 -0.1753 -0.2325 -0.0612
  143TIP3    H1  435   3.224   5.664   1.052 -1.4072  0.1770  1.2762
  143TIP3    H2  436   3.327   5.599   1.142  2.2792 -1.2140 -3.5438
  144TIP3   OH2  437   6.116   5.381   4.329 -0.0956  0.1847 -0.0042
  144TIP3    H1  438   6.059   5.380   4.252 -0.1112  2.3460 -0.0952
  144TIP3    H2  439   6.201   5.351   4.298 -0.3642  0.0643 -0.6287
  145TIP3   OH2  440   4.399   0.749   4.441 -0.2474  0.1442  0.7482
  145TIP3    H1  441   4.439   0.726   4.525  0.6214 -0.2611  0.2305
  145TIP3    H2  442   4.456   0.709   4.375 -1.6364 -0.6681 -0.0051
  146TIP3   OH2  443   4.261   4.471   0.956  0.3170  0.4438  0.6674
  146TIP3    H1  444   4.183   4.418   0.938  0.4405  0.4952 -0.0543
  146TIP3    H2  445   4.309   4.422   1.023  0.6359 -0.5601 -0.2811
  147TIP3   OH2  446   0.027   2.501   4.196  0.2073 -0.0758 -0.2789
  147TIP3    H1  447   0.048   2.463   4.111  0.0876 -0.7791  0.0019
  147TIP3    H2  448   0.097   2.473   4.254 -0.5275 -0.9242  0.2284
  148TIP3   OH2  449   0.213   5.100   2.067 -0.0775 -0.1325  0.3970
  148TIP3    H1  450   0.244   5.128   1.981 -0.2560  1.7066  0.8882
  148TIP3    H2  451   0.126   5.063   2.051  0.4065 -0.9726 -0.3584
  149TIP3   OH2  452   5.049   2.294   4.055 -0.6927 -0.2276 -0.0851
  149TIP3    H1  453   5.087   2.382   4.055  0.2161 -0.5215 -2.4875
  149TIP3    H2  454   4.955   2.308   4.065 -0.4233  0.8872  1.1023
  150TIP3   OH2  455   6.251   4.948   4.117 -0.6235  0.3760 -0.3033
  150TIP3    H1  456   6.344   4.959   4.096 -0.5941  2.5198  0.6418
  150TIP3    H2  457   6.244   4.858   4.149  1.0378  0.0438 -0.7738
  151TIP3   OH2  458   3.885   0.624   2.158 -0.0947 -0.0071 -0.3158
  151TIP3    H1  459   3.846   0.712   2.158 -0.1089 -0.0134 -0.3668
  151TIP3    H2  460   3.878   0.595   2.249  0.2328  0.1864 -0.2275
  152TIP3   OH2  461   0.496   1.468   0.661 -0.4318  0.2684  0.2862
  152TIP3    H1  462   0.578   1.418   0.671 -0.6776 -0.4305 -0.9708
  152TIP3    H2  463   0.434   1.423   0.718 -1.3742 -2.6465 -2.6984
  153TIP3   OH2  464   0.668   5.156   0.741 -0.3396  0.6958 -0.3734
  153TIP3    H1  465   0.583   5.118   0.762  0.1855 -0.9943 -1.1092
  153TIP3    H2  466   0.726   5.126   0.812 -0.1579  1.0528 -0.3701
  154TIP3   OH2  467   3.114   0.089   5.206 -0.2237  0.5842 -0.3035
  154TIP3    H1  468   3.190   0.132   5.167 -0.4372  0.1549 -1.2029
  154TIP3    H2  469   3.082   0.030   5.139  0.5512 -1.6168  1.1628
  155TIP3   OH2  470   1.884   1.130   4.838  0.2197  0.3838 -0.2823
  155TIP3    H1  471   1.879   1.035   4.849  0.1757  0.2842 -1.1079
  155TIP3    H2  472   1.977   1.148   4.824  0.0245  0.2066 -2.1226
  156TIP3   OH2  473   0.123   4.935   2.320 -0.1336  0.2388  0.3079
  156TIP3    H1  474   0.150   5.008   2.264 -1.7461  1.6860  1.2825
  156TIP3    H2  475   0.089   4.869   2.260  1.9282 -0.0160 -0.6443
  157TIP3   OH2  476   1.554   2.714   1.859 -0.9292  0.2990 -0.0167
  157TIP3    H1  477   1.598   2.666   1.788 -0.2499 -1.3767  1.4601
  157TIP3    H2  478   1.601   2.796   1.866 -0.6740  0.2717 -1.1386
  158TIP3   OH2  479   4.432   3.438   1.520  0.2932 -0.1368 -0.1778
  158TIP3    H1  480   4.519   3.412   1.489  0.7118  0.7773  0.2106
  158TIP3    H2  481   4.444   3.526   1.554 -0.9125  0.2189 -0.6312
  159TIP3   OH2  482   5.300   1.485   2.911 -0.4231  0.2808 -0.1866
  159TIP3    H1  483   5.211   1.452   2.923 -0.8653  1.5371  0.1778
  159TIP3    H2  484   5.325   1.521   2.997  0.0378  0.8316 -0.5379
  160TIP3   OH2  485   5.996   3.747   0.344  0.2207  0.3293  0.2312
  160TIP3    H1  486   6.080   3.765   0.387  1.0305 -1.0961 -0.6966
  160TIP3    H2  487   5.959   3.834   0.329  1.7991  1.0271  0.1279
  161TIP3   OH2  488   2.100   0.289   3.137 -0.5798  0.6128  0.2408
  161TIP3    H1  489   2.033   0.221   3.147  0.3143 -0.1520  1.2155
  161TIP3    H2  490   2.068   0.363   3.188 -0.2730 -0.0796  1.4778
  162TIP3   OH2  491   0.690   1.383   3.438 -0.0577  0.2105  0.4925
  162TIP3    H1  492   0.622   1.404   3.374  0.4568  0.7368  0.1105
  162TIP3    H2  493   0.716   1.293   3.417  0.4097  0.5259 -0.3260
  163TIP3   OH2  494   3.039   1.817   2.978  0.6275 -0.4838 -0.8184
  163TIP3    H1  495   3.059   1.798   3.070  0.9041 -0.2514 -0.8301
  163TIP3    H2  496   2.954   1.775   2.963  0.7880 -0.9045 -0.5810
  164TIP3   OH2  497   2.104   1.245   3.720  0.1540  0.9273 -0.1764
  164TIP3    H1  498   2.125   1.152   3.710 -1.3135  0.4688  0.7382
  164TIP3    H2  499   2.049   1.266   3.645  1.0842  1.2769 -0.7837
  165TIP3   OH2  500   0.888   4.793   2.566 -0.4576 -0.3041 -1.0417
  165TIP3    H1  501   0.946   4.832   2.501  1.1265 -0.0367  0.4596
  165TIP3    H2  502   0.941   4.725   2.609 -1.6229 -0.8354 -0.3804
  166TIP3   OH2  503   4.770   0.126   4.721 -0.0455 -0.0737  0.2135
  166TIP3    H1  504   4.759   0.220   4.715  1.1714  0.0614 -0.2578
  166TIP3    H2  505   4.682   0.091   4.732 -0.6425  1.0155 -0.9421
  167TIP3   OH2  506   4.588   0.841   1.718 -0.3803 -0.1151  0.0608
  167TIP3    H1  507   4.631   0.926   1.732 -1.5365  0.3734  0.8511
  167TIP3    H2  508   4.650   0.792   1.665  0.5846  1.0119  0.0769
  168TIP3   OH2  509   4.344   2.333   5.095  0.3946 -0.0294  0.3906
  168TIP3    H1  510   4.268   2.285   5.060  0.3604 -0.8184  1.4786
  168TIP3    H2  511   4.402   2.344   5.021 -0.8943  0.8345 -0.5421
  169TIP3   OH2  512   3.611   5.933   2.720  0.6483  0.3658  0.1799
  169TIP3    H1  513   3.517   5.949   2.717  0.9139  2.0336 -0.4443
  169TIP3    H2  514   3.625   5.860   2.659 -0.1303  0.8120 -0.5577
  170TIP3   OH2  515   0.196   4.458   4.602 -0.1376 -0.3256 -0.0531
  170TIP3    H1  516   0.101   4.461   4.588  0.2016  2.4325 -3.0868
  170TIP3    H2  517   0.225   4.380   4.555 -0.5799  1.3162 -3.3612
  171TIP3   OH2  518   2.761   4.454   0.606 -0.0150 -0.2050  0.2894
  171TIP3    H1  519   2.812   4.373   0.612 -0.2709 -0.2645  2.9147
  171TIP3    H2  520   2.826   4.520   0.580  0.4353 -1.0107 -0.7442
  172TIP3   OH2  521   3.723   4.988   2.812 -0.1145  0.1183  0.2385
  172TIP3    H1  522   3.753   4.908   2.769 -0.5247 -0.2384  0.6011
  172TIP3    H2  523   3.704   4.961   2.902  0.5721  0.8150  0.6089
  173TIP3   OH2  524   4.993   3.772   4.750  0.2935 -0.1370 -0.0110
  173TIP3    H1  525   4.981   3.829   4.674 -0.7724 -0.6238 -0.2245
  173TIP3    H2  526   5.087   3.770   4.763  0.3552  2.3319  0.5013
  174TIP3   OH2  527   4.870   4.159   5.087  0.2570 -0.5477 -0.5488
  174TIP3    H1  528   4.865   4.110   5.004 -0.8658 -2.1631  0.4234
  174TIP3    H2  529   4.779   4.179   5.108  0.5853  0.4107 -0.0168
  175TIP3   OH2  530   3.772   2.487   3.133 -0.2149  0.2491 -0.0748
  175TIP3    H1  531   3.840   2.511   3.197 -1.1647  0.4160  0.9069
  175TIP3    H2  532   3.747   2.398   3.158  1.7810 -1.0643 -2.3677
  176TIP3   OH2  533   4.341   3.188   0.576 -0.0933 -0.4393  0.2892
  176TIP3    H1  534   4.424   3.150   0.606  0.8326  0.9466 -0.4171
  176TIP3    H2  535   4.345   3.181   0.480  0.1683  1.4985  0.1319
  177TIP3   OH2  536   3.968   4.370   1.313  0.5807  0.1421  0.3676
  177TIP3    H1  537   3.888   4.378   1.262  0.7141 -2.0003 -0.2667
  177TIP3    H2  538   4.023   4.443   1.284 -1.6968  2.6623  2.0083
  178TIP3   OH2  539   3.852   5.307   0.473  0.3049 -0.2214  0.0224
  178TIP3    H1  540   3.837   5.329   0.565 -1.5624 -0.3842 -0.1985
  178TIP3    H2  541   3.912   5.233   0.476 -0.0293 -0.4743  1.1260
  179TIP3   OH2  542   6.317   4.976   2.070 -0.0177 -0.0233 -0.1106
  179TIP3    H1  543   6.301   4.889   2.105 -0.2950  0.4327  0.9575
  179TIP3    H2  544   6.273   4.978   1.986 -1.3942 -0.3941  0.5838
  180TIP3   OH2  545   4.515   2.180   3.937 -0.0108 -0.4951  0.0767
  180TIP3    H1  546   4.611   2.183   3.941 -0.0272  0.3189  0.1327
  180TIP3    H2  547   4.495   2.157   3.847  0.2414  0.8523 -0.3534
  181TIP3   OH2  548   4.216   5.229   2.294 -0.3890  0.6928  0.2649
  181TIP3    H1  549   4.185   5.176   2.367  0.2474 -0.1472 -0.0572
  181TIP3    H2  550   4.280   5.288   2.333 -0.7665  0.9153  0.5500
  182TIP3   OH2  551   3.908   1.851   4.224 -0.4498 -0.3845  0.0238
  182TIP3    H1  552   3.950   1.803   4.295 -0.4436  2.1306  1.8427
  182TIP3    H2  553   3.822   1.876   4.259 -1.0551 -0.3154 -1.4193
  183TIP3   OH2  554   3.298   2.541   4.536 -0.6787  0.6385 -0.0609
  183TIP3    H1  555   3.317   2.635   4.535  1.5299  0.3009  1.8793
  183TIP3    H2  556   3.243   2.528   4.614 -0.3528  0.2466  0.1112
  184TIP3   OH2  557   4.859   0.449   5.094  0.6027 -0.1307 -0.6358
  184TIP3    H1  558   4.795   0.395   5.048  0.8641  0.5387 -1.8181
  184TIP3    H2  559   4.860   0.414   5.183 -1.2529 -0.2924 -0.6358
  185TIP3   OH2  560   3.988   5.625   1.114 -0.2627  0.2147  0.7998
  185TIP3    H1  561   4.081   5.631   1.090 -0.7144 -0.6700 -1.4176
  185TIP3    H2  562   3.948   5.701   1.073 -1.1794 -1.7154 -2.2370
  186TIP3   OH2  563   2.962   5.584   2.396  0.2462 -0.5502  0.1681
  186TIP3    H1  564   3.006   5.649   2.341 -0.6749 -0.8070 -0.9126
  186TIP3    H2  565   2.983   5.610   2.486  1.4495  0.1196 -0.2862
  187TIP3   OH2  566   0.871   3.228   4.972  0.4179  0.3413 -0.1493
  187TIP3    H1  567   0.844   3.269   5.054  0.5079  0.1996 -0.0491
  187TIP3    H2  568   0.948   3.278   4.945 -0.7396  1.6582 -1.1585
  188TIP3   OH2  569   1.825   3.711   2.979 -0.1652  0.2156  0.7420
  188TIP3    H1  570   1.875   3.689   3.057 -1.8634 -0.5364  1.6730
  188TIP3    H2  571   1.821   3.629   2.929 -1.1833  0.0258  1.1125
  189TIP3   OH2  572   1.149   2.349   1.460 -0.4268 -0.0161 -0.0804
  189TIP3    H1  573   1.099   2.367   1.540 -0.4774  0.6402 -0.2529
  189TIP3    H2  574   1.229   2.307   1.490 -1.5486 -2.1513  0.1313
  190TIP3   OH2  575   0.379   2.495   5.087 -0.4484 -0.0535  0.3699
  190TIP3    H1  576   0.429   2.568   5.051  1.3371 -2.2885 -2.1235
  190TIP3    H2  577   0.290   2.509   5.057  0.2092  0.2840 -1.5597
  191TIP3   OH2  578   5.556   1.785   2.893  0.0191 -0.0548  0.5169
  191TIP3    H1  579   5.498   1.856   2.867  1.6778  1.3111  0.3487
  191TIP3    H2  580   5.576   1.738   2.812 -0.0249  0.1224  0.4040
  192TIP3   OH2  581   5.416   0.669   3.678  0.1340 -0.1017 -0.1504
  192TIP3    H1  582   5.427   0.618   3.759  1.2988 -1.3803 -1.0592
  192TIP3    H2  583   5.503   0.671   3.639 -0.1531  1.5787 -0.7754
  193TIP3   OH2  584   6.102   0.738   4.783 -0.3821 -0.2810 -0.1003
  193TIP3    H1  585   6.159   0.795   4.835 -1.7233  1.4134 -0.3896
  193TIP3    H2  586   6.015   0.751   4.820 -1.5601  1.6026 -3.1045
  194TIP3   OH2  587   5.530   1.383   2.765 -0.1479 -0.1205  0.0935
  194TIP3    H1  588   5.615   1.381   2.807  0.0206  0.6308 -0.2018
  194TIP3    H2  589   5.470   1.415   2.832  0.4255  2.8800 -0.6984
  195TIP3   OH2  590   5.077   2.125   0.630 -0.5034  0.5315 -0.4714
  195TIP3    H1  591   4.991   2.115   0.670  0.8983 -1.7560  2.3934
  195TIP3    H2  592   5.123   2.188   0.686  0.1498  0.6952 -1.1622
  196TIP3   OH2  593   5.953   5.926   2.753 -0.1905 -0.0765 -0.5364
  196TIP3    H1  594   5.923   5.880   2.675 -2.0772  0.0431  0.0696
  196TIP3    H2  595   5.876   5.973   2.785  0.2769 -0.8087  1.8983
  197TIP3   OH2  596   3.000   5.137   0.549  0.2166 -1.1186 -0.4357
  197TIP3    H1  597   3.038   5.127   0.636 -0.8906 -0.8427  0.0968
  197TIP3    H2  598   2.973   5.229   0.545 -0.9040 -1.4477 -0.5757
  198TIP3   OH2  599   6.044   1.052   1.385 -0.0151  0.2201 -0.1289
  198TIP3    H1  600   6.058   1.006   1.302  1.3233  0.2422  0.0597
  198TIP3    H2  601   6.108   1.123   1.384 -2.5241  2.6543 -0.7609
  199TIP3   OH2  602   3.154   3.709   3.937  0.0511  0.4705 -0.4305
  199TIP3    H1  603   3.142   3.623   3.977  1.5032  0.3835 -0.1086
  199TIP3    H2  604   3.103   3.706   3.857  0.0583 -0.6834 -0.4089
  200TIP3   OH2  605   5.109   4.264   1.505  0.0216  0.2174 -0.1728
  200TIP3    H1  606   5.150   4.211   1.436  0.7015 -0.3291  0.6368
  200TIP3    H2  607   5.138   4.224   1.587 -0.3754  1.1622  0.4436
  201TIP3   OH2  608   0.373   2.705   3.400 -0.0946 -0.4001 -0.4310
  201TIP3    H1  609   0.421   2.745   3.473 -1.2777  0.5511 -0.1461
  201TIP3    H2  610   0.425   2.726   3.322 -0.7303  1.8680 -0.3101
  202TIP3   OH2  611   4.892   0.396   3.020  0.1238  0.1815 -0.3202
  202TIP3    H1  612   4.812   0.428   3.061 -0.3268 -0.5477 -0.6117
  202TIP3    H2  613   4.961   0.416   3.083 -0.3051  0.6660  0.0071
  203TIP3   OH2  614   2.618   3.875   4.682 -0.1616 -0.1220  0.1109
  203TIP3    H1  615   2.572   3.959   4.687  0.2884  0.0722  3.3600
  203TIP3    H2  616   2.547   3.810   4.682 -0.4845  0.2176 -0.5289
  204TIP3   OH2  617   2.622   0.105   3.677  0.1616 -0.1843 -0.8069
  204TIP3    H1  618   2.546   0.119   3.734 -1.0687 -0.0604 -2.3883
  204TIP3    H2  619   2.672   0.036   3.720  0.6285  1.5737  1.6675
  205TIP3   OH2  620   3.785   1.094   3.034  0.2877  0.4539  0.0196
  205TIP3    H1  621   3.833   1.143   3.101 -0.4507  1.3194 -0.0730
  205TIP3    H2  622   3.712   1.151   3.009  0.2138 -0.0996 -1.1089
  206TIP3   OH2  623   1.963   2.071   3.337 -0.1082  0.5532 -0.4037
  206TIP3    H1  624   2.030   2.075   3.405 -0.1282  0.7041 -0.3932
  206TIP3    H2  625   1.923   1.985   3.348 -0.1921  0.6244 -0.1486
  207TIP3   OH2  626   0.800   2.115   0.413 -0.0434  0.0775 -0.4123
  207TIP3    H1  627   0.824   2.023   0.417  1.4207  0.3576 -1.7268
  207TIP3    H2  628   0.832   2.152   0.495 -1.0331 -0.6460  0.3175
  208TIP3   OH2  629   3.630   1.633   2.097  0.0641 -0.1522 -0.4312
  208TIP3    H1  630   3.590   1.641   2.010  1.8228 -1.2459 -1.3834
  208TIP3    H2  631   3.707   1.579   2.083  0.8389  0.3304  1.6893
  209TIP3   OH2  632   4.372   4.441   4.525  0.5907  0.1563  0.6423
  209TIP3    H1  633   4.289   4.465   4.482  0.3677 -0.1064  0.9261
  209TIP3    H2  634   4.346   4.401   4.608  0.9444 -1.3340  0.0683
  210TIP3   OH2  635   4.735   4.690   3.331  0.2517  0.0008 -0.1401
  210TIP3    H1  636   4.815   4.638   3.324 -0.5346 -1.0593 -1.6559
  210TIP3    H2  637   4.758   4.760   3.393  2.2545 -0.4132 -0.3394
  211TIP3   OH2  638   0.245   1.872   0.485  0.4654  0.5179 -0.4240
  211TIP3    H1  639   0.215   1.859   0.395 -0.3557 -0.5215 -0.0182
  211TIP3    H2  640   0.329   1.827   0.490  0.2449  0.0929 -0.5273
  212TIP3   OH2  641   2.144   3.002   0.031  0.2984 -0.5382  0.6660
  212TIP3    H1  642   2.192   2.925  -0.000  0.2113 -0.7587  1.0661
  212TIP3    H2  643   2.052   2.977   0.026  0.2214 -0.1095 -0.1148
  213TIP3   OH2  644   2.125   1.495   4.580 -0.4169  0.3770  0.0404
  213TIP3    H1  645   2.031   1.499   4.562 -0.0921  0.6942 -1.7992
  213TIP3    H2  646   2.156   1.421   4.528 -0.0116 -1.4515  2.6874
  214TIP3   OH2  647   2.529   2.293   4.098  0.0488 -0.4733  0.4460
  214TIP3    H1  648   2.538   2.325   4.009  1.2027  0.3964  0.8456
  214TIP3    H2  649   2.505   2.201   4.089  2.6055 -1.1203 -0.8237
  215TIP3   OH2  650   1.382   2.786   3.619  0.2405  0.5859 -0.3468
  215TIP3    H1  651   1.323   2.861   3.613 -1.3738 -0.7077 -1.2997
  215TIP3    H2  652   1.407   2.767   3.528  1.3885  0.5134 -0.0429
  216TIP3   OH2  653   0.258   2.329   4.302  0.5619  0.0945 -0.1912
  216TIP3    H1  654   0.232   2.269   4.372 -0.7981  1.0890  0.1984
  216TIP3    H2  655   0.329   2.283   4.257 -0.3880 -1.7833  0.1076
  217TIP3   OH2  656   5.710   2.505   0.686  0.0482  0.3117 -0.2754
  217TIP3    H1  657   5.800   2.488   0.713 -0.4194 -0.8150  0.6423
  217TIP3    H2  658   5.718   2.560   0.608  1.5304 -0.1710 -0.4832
  218TIP3   OH2  659   1.820   3.200   2.482  0.5361  0.2669 -0.1779
  218TIP3    H1  660   1.814   3.232   2.572  0.8572 -1.1914  0.4006
  218TIP3    H2  661   1.737   3.155   2.467 -0.2645  2.0085 -1.2757
  219TIP3   OH2  662   3.710   3.692   2.275 -0.6753  0.2600  0.7479
  219TIP3    H1  663   3.721   3.600   2.250 -0.4082  0.8409 -1.5465
  219TIP3    H2  664   3.783   3.710   2.335  2.3774  0.1461 -2.5582
  220TIP3   OH2  665   5.538   4.038   4.996  0.3863 -0.4860 -0.1463
  220TIP3    H1  666   5.557   4.035   5.090  0.1443 -0.7631 -0.1068
  220TIP3    H2  667   5.487   3.960   4.979  1.3346 -0.9979 -0.7225
  221TIP3   OH2  668   4.452   5.323   1.699 -0.0661  1.3734 -0.3053
  221TIP3    H1  669   4.414   5.277   1.774 -1.1653 -0.1400 -1.7151
  221TIP3    H2  670   4.453   5.415   1.725 -1.2530  0.9892  1.2151
  222TIP3   OH2  671   3.715   1.571   5.115 -0.4496  0.2024 -0.0953
  222TIP3    H1  672   3.725   1.499   5.178 -0.7779 -0.5690 -0.9059
  222TIP3    H2  673   3.769   1.641   5.151  0.9533 -0.8927  0.0533
  223TIP3   OH2  674   1.285   4.556   0.173 -0.0833 -0.4247 -0.4517
  223TIP3    H1  675   1.268   4.463   0.154 -1.4453 -0.2420 -0.2028
  223TIP3    H2  676   1.217   4.581   0.235  1.6178  0.1794  1.2665
  224TIP3   OH2  677   2.788   0.820   0.971 -0.2861  0.6387  0.0756
  224TIP3    H1  678   2.831   0.781   0.895  0.3637  0.6315  0.4455
  224TIP3    H2  679   2.694   0.811   0.952 -0.1362  0.0521 -0.4256
  225TIP3   OH2  680   1.620   0.017   4.787  0.2921  0.3221  0.1513
  225TIP3    H1  681   1.616  -0.008   4.879  1.1982 -0.3392  0.0263
  225TIP3    H2  682   1.630   0.112   4.788  0.3137  0.3139  0.7401
  226TIP3   OH2  683   3.335   3.945   0.267 -0.5004 -0.2678  0.0161
  226TIP3    H1  684   3.343   4.036   0.294 -1.7742 -0.7332  2.2674
  226TIP3    H2  685   3.262   3.944   0.205  0.4539  0.3972 -1.1619
  227TIP3   OH2  686   2.174   2.460   2.258  0.0399  0.1042 -0.1301
  227TIP3    H1  687   2.259   2.461   2.214  0.2239 -1.1044  0.1757
  227TIP3    H2  688   2.130   2.382   2.224 -0.2526 -0.2411  1.0031
  228TIP3   OH2  689   4.486   0.115   3.558  0.1132  0.7303 -0.3780
  228TIP3    H1  690   4.393   0.111   3.533  0.2635 -0.4121 -0.7842
  228TIP3    H2  691   4.506   0.027   3.589  0.8868  1.1643  0.3839
  229TIP3   OH2  692   3.016   2.725   1.463 -0.0031  0.0593  0.0412
  229TIP3    H1  693   3.044   2.788   1.396 -0.3896  1.6331  1.2900
  229TIP3    H2  694   2.932   2.760   1.495 -1.6763 -2.5811 -1.0903
  230TIP3   OH2  695   0.340   3.191   1.719 -0.1114  0.7977  0.5008
  230TIP3    H1  696   0.313   3.275   1.756  1.9570  0.7037  2.4144
  230TIP3    H2  697   0.427   3.207   1.684 -0.1499 -0.3048 -0.1511
  231TIP3   OH2  698   1.301   0.274   3.910  0.7467 -0.0315 -0.3452
  231TIP3    H1  699   1.211   0.302   3.894  1.0210  0.4939 -0.9887
  231TIP3    H2  700   1.292   0.186   3.946  0.0511 -0.7850 -2.2572
  232TIP3   OH2  701   3.167   1.235   1.109 -0.2154 -0.0713  0.1694
  232TIP3    H1  702   3.090   1.268   1.061 -1.1779  0.3615  1.9206
  232TIP3    H2  703   3.144   1.144   1.130  0.1368 -0.2120 -0.0550
  233TIP3   OH2  704   4.561   5.013   1.583 -0.0484  0.0271 -0.2236
  233TIP3    H1  705   4.642   4.995   1.534 -0.6786  1.0541 -1.7264
  233TIP3    H2  706   4.589   5.022   1.674  1.7431  1.6515 -0.8727
  234TIP3   OH2  707   0.280   2.110   0.621  0.1521  0.0126 -0.0823
  234TIP3    H1  708   0.260   2.018   0.605  1.0197 -0.2136  0.0756
  234TIP3    H2  709   0.352   2.108   0.683  0.2764  0.7983 -0.1935
  235TIP3   OH2  710   3.869   1.193   0.277 -0.1466 -0.3227  0.4751
  235TIP3    H1  711   3.931   1.235   0.337 -1.0067  0.9261  0.5305
  235TIP3    H2  712   3.806   1.262   0.257 -0.7434 -1.1804 -0.6531
  236TIP3   OH2  713   4.204   0.618   1.316  0.0182  0.1694  0.4043
  236TIP3    H1  714   4.266   0.644   1.384  0.4608  1.5914 -0.4968
  236TIP3    H2  715   4.125   0.669   1.336  0.1831  0.6712 -0.1733
  237TIP3   OH2  716   2.489   5.836   0.705 -0.0345  0.3419 -0.3452
  237TIP3    H1  717   2.399   5.819   0.676 -0.5198  1.1206  0.6160
  237TIP3    H2  718   2.510   5.761   0.761  0.5334 -0.6554 -1.8481
  238TIP3   OH2  719   4.218   4.347   1.939  0.1165 -0.1362  0.3452
  238TIP3    H1  720   4.312   4.365   1.947  0.5820 -0.9456 -2.4665
  238TIP3    H2  721   4.186   4.411   1.875 -1.4861  0.6393  1.8058
  239TIP3   OH2  722   0.368   3.564   3.814  0.3272  0.1232  0.4985
  239TIP3    H1  723   0.299   3.497   3.815  0.7813 -0.3679 -0.1939
  239TIP3    H2  724   0.371   3.595   3.724  3.2030 -2.2448 -0.4083
  240TIP3   OH2  725   2.536   2.350   0.130  0.1543  0.2910 -0.4053
  240TIP3    H1  726   2.601   2.376   0.065 -0.1756  0.6327 -0.6004
  240TIP3    H2  727   2.564   2.395   0.211  0.1072  0.5170 -0.5133
  241TIP3   OH2  728   3.005   3.908   3.498  0.2082  0.4701  0.1454
  241TIP3    H1  729   3.050   3.949   3.423 -2.1821  2.0768 -0.5083
  241TIP3    H2  730   2.917   3.944   3.495 -0.3704 -0.5291  2.9541
  242TIP3   OH2  731   2.584   4.617   2.735  0.1467  0.4164 -0.0780
  242TIP3    H1  732   2.639   4.573   2.670  0.4111  1.2029 -0.4047
  242TIP3    H2  733   2.636   4.618   2.815  0.7468  1.4074 -0.4609
  243TIP3   OH2  734   4.556   5.850   1.765  0.3417  0.4446 -0.3658
  243TIP3    H1  735   4.628   5.884   1.817  0.5693 -1.9898  1.0764
  243TIP3    H2  736   4.481   5.905   1.788  1.0852  1.1962  0.3371
  244TIP3   OH2  737   4.696   3.058   2.715  0.0118 -0.0372 -0.6748
  244TIP3    H1  738   4.656   2.987   2.666 -0.9555 -0.7793  1.0994
  244TIP3    H2  739   4.785   3.064   2.681  0.2915 -2.4569 -0.5395
  245TIP3   OH2  740   4.199   1.404   4.452  0.2770  0.2719  0.5787
  245TIP3    H1  741   4.273   1.379   4.507  0.4219 -1.8104 -0.4547
  245TIP3    H2  742   4.218   1.494   4.426  1.2514  0.5826  2.1837
  246TIP3   OH2  743   4.362   1.510   0.021 -0.2602 -0.3392 -0.2541
  246TIP3    H1  744   4.351   1.582  -0.042  1.8426  2.0627  1.9051
  246TIP3    H2  745   4.278   1.504   0.066 -0.8028 -0.0428 -1.1896
  247TIP3   OH2  746   2.905   3.197   1.119  0.2702 -0.1160  0.3861
  247TIP3    H1  747   2.995   3.198   1.089 -0.2222  1.5383 -1.2135
  247TIP3    H2  748   2.873   3.110   1.097  0.3432  0.5651 -2.8522
  248TIP3   OH2  749   4.289   3.912   1.299 -0.0430 -1.2448  0.6584
  248TIP3    H1  750   4.344   3.957   1.364 -0.6015 -0.8913  0.8947
  248TIP3    H2  751   4.310   3.819   1.310  2.8657 -0.9625 -1.4225
  249TIP3   OH2  752   4.923   0.847   2.525  0.1939  0.2812 -0.0107
  249TIP3    H1  753   4.860   0.882   2.587  2.2829  1.3393  1.6240
  249TIP3    H2  754   4.899   0.885   2.441 -1.1311  0.8906  0.6317
  250TIP3   OH2  755   3.050   4.839   1.038 -0.1119 -0.4133  0.1630
  250TIP3    H1  756   3.095   4.913   1.080 -1.2834  0.5329 -0.2239
  250TIP3    H2  757   2.972   4.825   1.091 -0.8034 -0.2304 -0.7921
  251TIP3   OH2  758   1.025   0.411   1.353  0.3809  0.0521 -0.1527
  251TIP3    H1  759   0.993   0.366   1.275 -0.5017  0.7365 -0.2145
  251TIP3    H2  760   0.998   0.354   1.426 -0.2459  0.1964 -0.2611
  252TIP3   OH2  761   4.107   3.909   2.865 -0.2953 -0.1153 -0.1093
  252TIP3    H1  762   4.067   3.961   2.935 -0.2861  0.1824 -0.3195
  252TIP3    H2  763   4.112   3.970   2.791 -0.5145 -0.4999 -0.4375
  253TIP3   OH2  764   5.091   0.070   4.406  0.4485  0.5191  0.6036
  253TIP3    H1  765   5.028   0.126   4.451  0.1931  0.0454  0.8360
  253TIP3    H2  766   5.108  -0.001   4.467  0.5932  0.2206  0.2166
  254TIP3   OH2  767   1.784   5.178   1.001 -0.0168  0.2543 -0.4136
  254TIP3    H1  768   1.750   5.243   1.062  0.4365  0.7793 -0.7143
  254TIP3    H2  769   1.826   5.113   1.057 -0.9818 -0.0931 -0.0775
  255TIP3   OH2  770   2.965   3.675   2.821  0.2498 -0.1027 -0.1699
  255TIP3    H1  771   2.941   3.609   2.756 -0.0580  0.6251 -0.8105
  255TIP3    H2  772   3.061   3.674   2.823  0.3036  0.6019 -1.4315
  256TIP3   OH2  773   3.066   1.811   4.338 -0.4373 -0.4280 -0.2499
  256TIP3    H1  774   3.084   1.903   4.359  0.5167 -0.4494 -0.8809
  256TIP3    H2  775   2.990   1.814   4.279 -0.8213 -0.1009  0.2533
  257TIP3   OH2  776   6.033   3.055   3.272 -0.2697 -0.1569 -0.2380
  257TIP3    H1  777   6.106   2.993   3.282 -1.0535 -1.0455  0.0739
  257TIP3    H2  778   6.006   3.045   3.181  0.3408  0.5897 -0.5193
  258TIP3   OH2  779   5.272   1.448   1.418 -0.2529 -0.3832 -0.4797
  258TIP3    H1  780   5.190   1.454   1.369 -0.1848  1.6700 -0.4529
  258TIP3    H2  781   5.328   1.515   1.379  0.5465 -0.1325  1.0241
  259TIP3   OH2  782   2.598   5.384   3.473 -0.1969 -0.4816 -0.3560
  259TIP3    H1  783   2.674   5.370   3.417 -0.1381 -2.2077  0.0840
  259TIP3    H2  784   2.551   5.300   3.472 -1.8541  0.3882 -0.2452
  260TIP3   OH2  785   0.909   1.316   4.683  0.5973 -0.2004 -0.4879
  260TIP3    H1  786   0.814   1.324   4.689  0.6280 -0.2223  0.0972
  260TIP3    H2  787   0.934   1.269   4.763  1.1496  0.2564 -0.3862
  261TIP3   OH2  788   1.981   4.835   3.403 -0.4368 -0.5072  1.0038
  261TIP3    H1  789   1.900   4.885   3.391  0.8262  1.5176  0.4566
  261TIP3    H2  790   2.011   4.817   3.314  1.4438  1.8163  1.0739
  262TIP3   OH2  791   5.756   0.065   3.401 -0.3423 -0.7263  0.4292
  262TIP3    H1  792   5.705   0.093   3.325 -1.3471 -0.4462  1.1924
  262TIP3    H2  793   5.745   0.135   3.465 -0.3156 -1.4217  1.2043
  263TIP3   OH2  794   5.460   3.986   3.042  0.3141  0.4141  0.8547
  263TIP3    H1  795   5.520   3.944   2.979 -0.5356  1.4327 -0.6743
  263TIP3    H2  796   5.396   3.918   3.061 -0.4352  0.6165 -0.7767
  264TIP3   OH2  797   0.750   3.576   0.733  0.0001 -0.5127 -0.1753
  264TIP3    H1  798   0.687   3.627   0.683 -0.5481  0.3343  1.3154
  264TIP3    H2  799   0.753   3.491   0.689 -0.8465  0.0174 -1.3014
  265TIP3   OH2  800   4.960   4.937   5.005 -0.1603  0.0131 -1.0362
  265TIP3    H1  801   4.893   4.988   5.051  0.3510  3.6203 -3.8635
  265TIP3    H2  802   4.917   4.909   4.925  0.9512  0.0309 -1.6507
  266TIP3   OH2  803   2.464   4.395   4.820 -0.0271 -0.2501 -0.4520
  266TIP3    H1  804   2.454   4.490   4.812  0.1840 -0.1841 -0.0118
  266TIP3    H2  805   2.543   4.385   4.873  0.4045 -0.6855 -1.1625
  267TIP3   OH2  806   4.726   0.202   0.723 -0.4050 -0.1504  0.0585
  267TIP3    H1  807   4.640   0.240   0.707 -0.5877 -0.4236  0.3607
  267TIP3    H2  808   4.739   0.139   0.652  0.9070  2.0950 -1.7978
  268TIP3   OH2  809   3.580   0.158   4.243  0.0619 -0.3169  0.2357
  268TIP3    H1  810   3.595   0.241   4.290  0.2306 -0.9707  1.3601
  268TIP3    H2  811   3.503   0.175   4.189 -1.1149 -0.0146  1.9396
  269TIP3   OH2  812   2.826   5.378   3.337 -0.4354  0.5860 -0.4210
  269TIP3    H1  813   2.894   5.320   3.304  0.0666  0.8745  0.0888
  269TIP3    H2  814   2.809   5.439   3.265  1.1152  1.6213  0.0446
  270TIP3   OH2  815   4.303   4.612   4.110  0.0876  0.6539  0.2768
  270TIP3    H1  816   4.250   4.692   4.104  0.0104  0.5128 -1.5917
  270TIP3    H2  817   4.258   4.558   4.174 -0.2968  1.7749  0.9892
  271TIP3   OH2  818   2.929   5.542   0.293 -0.1526 -0.3395 -0.1364
  271TIP3    H1  819   2.897   5.494   0.369 -0.1384 -1.9624 -1.1202
  271TIP3    H2  820   2.850   5.568   0.245 -0.1213 -1.2644 -0.7126
  272TIP3   OH2  821   1.457   5.375   4.066  0.3031 -0.0154 -0.1706
  272TIP3    H1  822   1.389   5.309   4.058  1.1591 -0.7628 -1.8073
  272TIP3    H2  823   1.503   5.353   4.147  1.0208 -1.9057 -1.0422
  273TIP3   OH2  824   0.924   1.674   5.132 -0.3408  0.1029  0.3411
  273TIP3    H1  825   0.897   1.738   5.197  3.0769  2.2397 -0.1070
  273TIP3    H2  826   0.931   1.724   5.051  0.9342 -1.1684 -0.3789
  274TIP3   OH2  827   0.576   4.813   4.903 -0.5477 -0.2443  0.1221
  274TIP3    H1  828   0.583   4.759   4.825 -1.1844  1.3712 -1.1094
  274TIP3    H2  829   0.514   4.767   4.959 -0.4499 -1.1790 -0.5138
  275TIP3   OH2  830   3.415   1.144   4.842 -0.0973  0.3065  0.0665
  275TIP3    H1  831   3.407   1.149   4.937 -0.1536  0.0317  0.0793
  275TIP3    H2  832   3.326   1.154   4.810 -0.6701 -3.0204  0.2239
  276TIP3   OH2  833   3.218   4.336   2.482  0.3418  0.3866  0.0108
  276TIP3    H1  834   3.210   4.241   2.472 -0.0621  0.2014  1.7748
  276TIP3    H2  835   3.131   4.364   2.511  0.6553  1.1830  0.1953
  277TIP3   OH2  836   4.293   2.047   0.052 -0.0763 -0.3873  0.1528
  277TIP3    H1  837   4.367   1.985   0.043  0.7179  0.6289 -0.5754
  277TIP3    H2  838   4.306   2.109  -0.020 -1.1079  0.3812  0.6187
  278TIP3   OH2  839   5.818   4.017   0.374  0.0492  0.2259 -0.2077
  278TIP3    H1  840   5.726   4.040   0.362 -0.1110  0.2257  0.9451
  278TIP3    H2  841   5.859   4.039   0.290 -1.2294 -1.0382 -1.1986
  279TIP3   OH2  842   2.119   4.787   3.154  0.5306  0.3372 -0.1044
  279TIP3    H1  843   2.187   4.801   3.088  1.0424  2.0957  0.7585
  279TIP3    H2  844   2.041   4.830   3.117  0.8012  1.2684  0.3793
  280TIP3   OH2  845   0.469   1.786   2.029  0.0322  0.0162 -0.2231
  280TIP3    H1  846   0.555   1.746   2.044  1.0950  0.7282 -3.5833
  280TIP3    H2  847   0.482   1.879   2.046 -0.3614 -0.0101  0.2349
  281TIP3   OH2  848   1.368   1.888   0.478 -0.3318 -0.1180  0.0191
  281TIP3    H1  849   1.312   1.932   0.543 -0.5018 -0.7518  0.3084
  281TIP3    H2  850   1.312   1.820   0.441  0.2951 -0.8552  0.4106
  282TIP3   OH2  851   2.320   3.973   4.906 -0.4774 -0.0229 -0.0456
  282TIP3    H1  852   2.251   3.931   4.854 -0.0023 -1.3987  0.3998
  282TIP3    H2  853   2.297   3.952   4.997 -0.7344  1.4916  0.2667
  283TIP3   OH2  854   5.527   2.548   4.718  0.0668 -0.0663 -0.4295
  283TIP3    H1  855   5.439   2.515   4.733 -0.3614  0.7977 -0.9309
  283TIP3    H2  856   5.561   2.495   4.646 -0.5418  0.4352 -1.1020
  284TIP3   OH2  857   2.579   4.490   5.197  0.0247  0.1070 -0.8519
  284TIP3    H1  858   2.668   4.455   5.194 -0.0837 -0.3158  0.4799
  284TIP3    H2  859   2.526   4.427   5.149  0.2572 -0.2350 -0.6582
  285TIP3   OH2  860   6.056   3.477   3.741 -0.6148 -0.0690 -0.3058
  285TIP3    H1  861   5.962   3.493   3.751 -0.3641  0.6351  1.1776
  285TIP3    H2  862   6.087   3.459   3.829  0.5598 -0.8630 -0.8573
  286TIP3   OH2  863   4.426   2.786   2.769  0.1690  0.3911  0.0062
  286TIP3    H1  864   4.364   2.741   2.827 -1.1400  0.8223 -1.0320
  286TIP3    H2  865   4.498   2.812   2.828 -0.5101 -0.3112  1.1941
  287TIP3   OH2  866   1.855   0.292   3.472 -0.0664  0.1320 -0.3815
  287TIP3    H1  867   1.904   0.371   3.451 -0.3988  0.5074  0.2020
  287TIP3    H2  868   1.868   0.234   3.397  0.5203  0.5781 -0.6295
  288TIP3   OH2  869   4.861   1.900   1.559 -0.2706 -0.1533  0.2051
  288TIP3    H1  870   4.953   1.911   1.536 -0.2418  0.5695  0.6306
  288TIP3    H2  871   4.853   1.941   1.645 -1.2029  0.6955 -0.2717
  289TIP3   OH2  872   4.741   2.602   1.908 -0.0821 -0.0449  0.0380
  289TIP3    H1  873   4.681   2.553   1.964  0.3413  0.1567  0.6723
  289TIP3    H2  874   4.738   2.691   1.942  1.3029 -0.2241  0.7061
  290TIP3   OH2  875   6.184   1.819   3.230  0.3262  0.1082  0.3320
  290TIP3    H1  876   6.156   1.893   3.176 -0.6554 -0.7794 -0.4270
  290TIP3    H2  877   6.215   1.753   3.167  2.3395  0.2983  1.0592
  291TIP3   OH2  878   3.016   2.498   3.049 -0.4703  0.3548  0.2938
  291TIP3    H1  879   2.962   2.573   3.025 -1.2469 -0.7872 -1.8309
  291TIP3    H2  880   3.097   2.536   3.084 -1.2285  2.1406  0.1696
  292TIP3   OH2  881   4.949   4.464   0.794 -0.0804  0.0039 -0.0244
  292TIP3    H1  882   4.989   4.451   0.708  0.8880  2.4122 -0.0293
  292TIP3    H2  883   4.983   4.549   0.823 -2.6376  0.6220  1.4664
  293TIP3   OH2  884   0.712   2.281   4.691  0.1338  0.7037 -0.0101
  293TIP3    H1  885   0.762   2.344   4.743 -0.5558  0.3245  1.1437
  293TIP3    H2  886   0.651   2.242   4.753 -1.0270  0.5514 -1.2166
  294TIP3   OH2  887   4.941   5.727   1.744  0.4779  0.4101 -0.9622
  294TIP3    H1  888   4.976   5.814   1.764 -0.2092  1.1009 -2.5290
  294TIP3    H2  889   4.901   5.738   1.657  0.2261 -1.4350 -1.1048
  295TIP3   OH2  890   1.365   0.673   3.751  0.0865 -0.7664 -0.2605
  295TIP3    H1  891   1.375   0.742   3.817 -1.8433 -0.7076  0.0141
  295TIP3    H2  892   1.420   0.601   3.783  0.0921 -0.3093  0.7866
  296TIP3   OH2  893   0.782   2.678   4.920 -0.2003  0.1484 -0.5552
  296TIP3    H1  894   0.847   2.633   4.974 -1.3096  0.4401  1.1143
  296TIP3    H2  895   0.750   2.612   4.859  0.9207 -0.2601 -0.7112
  297TIP3   OH2  896   1.769   2.537   0.985 -0.3822  0.0990 -0.0506
  297TIP3    H1  897   1.851   2.539   1.034 -0.8597 -1.0316  0.8502
  297TIP3    H2  898   1.772   2.615   0.930  1.5135 -0.1687 -0.4145
  298TIP3   OH2  899   0.894   1.875   0.503 -0.4144 -0.2451 -0.2587
  298TIP3    H1  900   0.878   1.780   0.499 -0.9454 -0.1909  0.3525
  298TIP3    H2  901   0.979   1.883   0.546 -0.7334 -0.4373  0.4338
  299TIP3   OH2  902   2.782   4.657   2.930  0.2610 -0.5527  0.2392
  299TIP3    H1  903   2.824   4.718   2.869 -0.3757  0.0619  0.4008
  299TIP3    H2  904   2.741   4.713   2.996 -0.7700 -1.1299  0.1169
  300TIP3   OH2  905   3.236   4.204   2.044 -0.6356  0.2034 -0.0731
  300TIP3    H1  906   3.180   4.194   1.967 -0.7956  1.3937 -0.1343
  300TIP3    H2  907   3.191   4.268   2.099  0.7388  1.3655 -0.2277
  301TIP3   OH2  908   2.376   4.734   2.066  0.0978 -0.9675 -0.1729
  301TIP3    H1  909   2.460   4.702   2.100 -0.6768 -1.8151  0.9940
  301TIP3    H2  910   2.329   4.766   2.143 -0.6414 -0.4326 -0.8284
  302TIP3   OH2  911   4.546   5.787   0.879 -0.2860 -0.6213  0.1864
  302TIP3    H1  912   4.539   5.809   0.972  1.6102 -0.7580  0.4019
  302TIP3    H2  913   4.625   5.833   0.849 -0.7454 -0.7452 -1.3168
  303TIP3   OH2  914   0.743   4.595   3.774 -0.1288 -0.2241 -0.0098
  303TIP3    H1  915   0.751   4.500   3.772 -0.6111 -0.2772  0.3455
  303TIP3    H2  916   0.827   4.627   3.742 -0.0009 -0.7699 -0.2269
  304TIP3   OH2  917   4.568   0.454   4.141 -0.3027 -0.4422 -0.1348
  304TIP3    H1  918   4.597   0.458   4.049 -0.4246 -1.2372 -0.2125
  304TIP3    H2  919   4.566   0.545   4.169 -0.6051 -0.1639 -1.0323
  305TIP3   OH2  920   3.919   2.791   1.551 -1.0923 -0.3727  0.2196
  305TIP3    H1  921   3.878   2.735   1.617  1.1102  0.2039  2.2096
  305TIP3    H2  922   3.976   2.732   1.502 -0.8149 -0.3810  0.5425
  306TIP3   OH2  923   0.199   5.999   2.425 -0.0862 -0.1049  0.4461
  306TIP3    H1  924   0.282   5.962   2.396  1.3833  1.5045  2.3624
  306TIP3    H2  925   0.141   5.923   2.435  0.8671 -1.1947 -1.5881
  307TIP3   OH2  926   5.436   5.335   0.437 -0.1904  0.0933  0.0921
  307TIP3    H1  927   5.438   5.250   0.482 -0.8381 -0.0271 -0.0938
  307TIP3    H2  928   5.344   5.348   0.416  0.0376  0.3881 -0.7473
  308TIP3   OH2  929   3.233   5.419   3.487 -0.1062  0.7741  0.3643
  308TIP3    H1  930   3.263   5.502   3.524  0.3065  0.9397 -0.3136
  308TIP3    H2  931   3.157   5.395   3.540 -0.6436  1.9189  0.1580
  309TIP3   OH2  932   0.603   0.452   3.954  0.8934 -0.1545 -0.1437
  309TIP3    H1  933   0.612   0.383   4.020  0.4734 -1.6223 -1.5473
  309TIP3    H2  934   0.510   0.473   3.953  1.2460  1.7866  1.5207
  310TIP3   OH2  935   0.834   0.403   4.858 -0.0202  0.1960 -0.3645
  310TIP3    H1  936   0.914   0.432   4.903  0.3395  0.3512 -1.0860
  310TIP3    H2  937   0.802   0.331   4.911  0.5634  0.1822 -0.0157
  311TIP3   OH2  938   6.006   5.891   1.785 -0.4274 -0.0623  0.6805
  311TIP3    H1  939   6.003   5.945   1.706 -1.7345 -0.5298  0.3819
  311TIP3    H2  940   5.927   5.837   1.780  1.6019 -3.1966  0.1526
  312TIP3   OH2  941   1.080   4.931   1.149  0.1076  0.3276 -0.4659
  312TIP3    H1  942   1.145   4.986   1.104  0.1465  0.4952 -0.2064
  312TIP3    H2  943   1.015   4.992   1.182  0.1264  0.2150 -0.2158
  313TIP3   OH2  944   4.350   0.890   3.501  0.0991  0.0229  0.5201
  313TIP3    H1  945   4.281   0.834   3.538  0.2814 -0.6680 -0.1532
  313TIP3    H2  946   4.405   0.830   3.451  0.0811  0.8586 -0.5379
  314TIP3   OH2  947   0.316   0.639   1.676  0.0669  0.3064  0.2431
  314TIP3    H1  948   0.361   0.603   1.752  0.3923  0.0000 -0.0927
  314TIP3    H2  949   0.262   0.710   1.711 -1.1101 -0.9377  1.0151
  315TIP3   OH2  950   3.303   5.301   4.690 -0.4780 -0.2447 -0.2050
  315TIP3    H1  951   3.398   5.316   4.689 -0.3221 -1.1645 -0.3476
  315TIP3    H2  952   3.277   5.318   4.781 -0.1362 -0.1937 -0.1153
  316TIP3   OH2  953   2.070   3.666   0.319  0.0260  0.2739 -0.1675
  316TIP3    H1  954   2.034   3.622   0.242 -0.0033  0.3752 -0.2115
  316TIP3    H2  955   2.078   3.758   0.293  0.3520  0.2470 -0.1733
  317TIP3   OH2  956   4.141   5.544   4.746 -0.3101 -0.6252 -0.2103
  317TIP3    H1  957   4.226   5.502   4.737  0.3556 -0.2757  2.9924
  317TIP3    H2  958   4.080   5.473   4.766  0.0106 -0.5630  1.1093
  318TIP3   OH2  959   2.735   5.621   2.957  0.3539 -0.3924 -0.4914
  318TIP3    H1  960   2.660   5.600   2.902 -0.7288  1.1501  0.3196
  318TIP3    H2  961   2.745   5.716   2.950  3.5656 -0.7318 -2.1707
  319TIP3   OH2  962   4.867   5.321   2.974 -0.2497 -0.1467 -0.2727
  319TIP3    H1  963   4.836   5.412   2.970 -0.3887 -0.1305  0.7898
  319TIP3    H2  964   4.957   5.328   3.007 -0.5245 -0.4320  0.5576
  320TIP3   OH2  965   1.977   2.950   4.220  0.9135 -0.0109  0.2915
  320TIP3    H1  966   2.067   2.950   4.188  0.6074  3.1574 -0.8628
  320TIP3    H2  967   1.972   3.026   4.278 -1.1720  0.1953 -0.0998
  321TIP3   OH2  968   0.593   0.614   3.272  0.8779  0.4040 -0.1352
  321TIP3    H1  969   0.512   0.573   3.241  0.7978 -0.0479  0.6386
  321TIP3    H2  970   0.655   0.603   3.200  0.1231  1.1705 -0.9206
  322TIP3   OH2  971   3.084   0.710   1.024  0.1809 -0.0877  0.1310
  322TIP3    H1  972   3.084   0.797   0.983 -1.8191  0.7286  1.7071
  322TIP3    H2  973   3.029   0.657   0.966 -1.5977  0.7278  0.9902
  323TIP3   OH2  974   1.621   1.310   5.194  0.3106  0.1027  0.6908
  323TIP3    H1  975   1.618   1.313   5.099  1.6598  0.1226  0.6269
  323TIP3    H2  976   1.530   1.316   5.222 -0.0886  0.1616 -0.5935
  324TIP3   OH2  977   5.116   5.175   0.687  0.3389 -0.0386  0.0988
  324TIP3    H1  978   5.111   5.221   0.604 -2.0885 -0.3698 -0.0198
  324TIP3    H2  979   5.108   5.243   0.754  0.6056  0.0609  0.0303
  325TIP3   OH2  980   2.594   0.977   4.695  0.0587 -0.3338  0.3020
  325TIP3    H1  981   2.598   0.978   4.791 -0.0467  0.9440  0.3128
  325TIP3    H2  982   2.676   1.017   4.667  0.2328 -1.0044 -0.1553
  326TIP3   OH2  983   1.679   2.947   4.274  0.0225  0.4706 -0.2097
  326TIP3    H1  984   1.741   2.904   4.332 -0.3996 -0.7088 -0.6042
  326TIP3    H2  985   1.707   2.923   4.186 -0.0342  1.2802 -0.4628
  327TIP3   OH2  986   3.065   3.365   4.402  0.6357 -0.0226 -0.1202
  327TIP3    H1  987   3.019   3.414   4.469  2.0665  1.1918  0.0218
  327TIP3    H2  988   3.136   3.321   4.448 -0.4761 -2.1179 -0.2832
  328TIP3   OH2  989   4.962   0.541   1.117 -0.6587  0.0746  0.7633
  328TIP3    H1  990   4.932   0.488   1.043 -0.1953 -0.5575  1.0179
  328TIP3    H2  991   4.996   0.477   1.180 -0.3300  0.6599  1.1874
  329TIP3   OH2  992   2.055   2.074   1.188  0.3327  0.5056  0.1113
  329TIP3    H1  993   2.104   2.147   1.151 -1.3676  2.3128  1.2291
  329TIP3    H2  994   2.054   2.091   1.282  0.4441 -1.3502  0.4861
  330TIP3   OH2  995   3.374   4.242   4.565 -0.0534 -0.0084  0.0938
  330TIP3    H1  996   3.391   4.161   4.515  0.2909 -0.3561  0.7604
  330TIP3    H2  997   3.446   4.300   4.542  0.5760 -0.4793  0.8147
  331TIP3   OH2  998   2.049   1.541   0.083  0.2595  0.2924  0.2250
  331TIP3    H1  999   2.075   1.618   0.031 -0.0769  0.9838  1.0538
  331TIP3    H2 1000   2.104   1.546   0.161 -0.8601  0.5827  1.0135
  332TIP3   OH2 1001   0.438   1.433   5.083  0.0745  0.1028  0.1163
  332TIP3    H1 1002   0.460   1.340   5.087 -1.1058 -0.2511 -1.0368
  332TIP3    H2 1003   0.348   1.438   5.115 -0.2505  0.6781 -0.8526
  333TIP3   OH2 1004   4.319   0.362   1.322 -0.4113  0.0316  0.0558
  333TIP3    H1 1005   4.317   0.279   1.369  0.3067 -0.5811 -0.9579
  333TIP3    H2 1006   4.265   0.421   1.375 -0.2189 -0.8260  1.2497
  334TIP3   OH2 1007   0.350   3.857   0.481  0.0441 -0.7846  0.4096
  334TIP3    H1 1008   0.404   3.847   0.402 -2.9545 -3.3787 -1.5794
  334TIP3    H2 1009   0.321   3.948   0.478  1.5726 -0.2768 -0.3159
  335TIP3   OH2 1010   6.225   5.527   1.198 -0.3854 -0.5294  0.1022
  335TIP3    H1 1011   6.318   5.528   1.175 -0.0700 -1.3679  1.2730
  335TIP3    H2 1012   6.184   5.582   1.132  0.9213 -0.2680 -0.5262
  336TIP3   OH2 1013   4.422   4.087   2.787 -0.1095 -0.1012 -0.4488
  336TIP3    H1 1014   4.464   4.151   2.844 -0.1376  1.7714 -2.4113
  336TIP3    H2 1015   4.408   4.134   2.705  0.1477 -2.7546 -2.0970
  337TIP3   OH2 1016   2.040   2.746   0.713 -0.4640 -0.0997 -0.4641
  337TIP3    H1 1017   2.084   2.764   0.796  0.9691  1.5647 -1.5004
  337TIP3    H2 1018   2.101   2.688   0.666  0.8742  2.3490 -1.9778
  338TIP3   OH2 1019   5.312   3.767   4.680 -0.2841 -0.1552 -0.3255
  338TIP3    H1 1020   5.345   3.832   4.617  2.3528 -1.8008 -0.8281
  338TIP3    H2 1021   5.265   3.703   4.626 -0.8172  0.1200 -0.1808
  339TIP3   OH2 1022   2.269   4.816   2.304  0.3430  0.3643  0.3176
  339TIP3    H1 1023   2.201   4.880   2.324  0.6571  0.6192  0.5877
  339TIP3    H2 1024   2.264   4.752   2.374  0.4714  0.4591  0.4144
  340TIP3   OH2 1025   4.545   5.790   3.466  0.3316 -0.0611 -0.4848
  340TIP3    H1 1026   4.455   5.810   3.441  1.1810  2.8535 -1.6658
  340TIP3    H2 1027   4.592   5.787   3.383  1.2582 -2.2952  0.0559
  341TIP3   OH2 1028   4.224   1.440   3.097  0.3447 -0.6227 -0.0020
  341TIP3    H1 1029   4.175   1.433   3.015  0.4629 -0.3601 -0.0968
  341TIP3    H2 1030   4.245   1.533   3.105  0.5931 -0.6914  0.1743
  342TIP3   OH2 1031   0.966   0.238   4.305  0.1799 -0.2478 -0.5165
  342TIP3    H1 1032   1.022   0.219   4.380  0.4982 -0.8396 -0.8915
  342TIP3    H2 1033   0.915   0.314   4.332  0.2257 -0.5033  0.3339
  343TIP3   OH2 1034   4.123   0.256   3.645  0.0523  1.0000  0.4469
  343TIP3    H1 1035   4.140   0.227   3.555 -0.4812  1.6944  0.1187
  343TIP3    H2 1036   4.028   0.251   3.655  0.1999 -0.3900  1.4355
  344TIP3   OH2 1037   1.111   2.887   3.024 -0.0256  0.2043  0.3604
  344TIP3    H1 1038   1.150   2.800   3.025 -1.4871 -0.5124 -1.1204
  344TIP3    H2 1039   1.018   2.872   3.044 -0.1113  1.5530  1.1185
  345TIP3   OH2 1040  -0.010   3.371   4.771 -0.0378  0.5056  0.5795
  345TIP3    H1 1041   0.025   3.427   4.840 -0.0105 -0.3552  1.2786
  345TIP3    H2 1042   0.026   3.285   4.789  0.6873  0.4444 -1.0504
  346TIP3   OH2 1043   5.602   3.752   1.344  0.6385  0.0011  0.2612
  346TIP3    H1 1044   5.623   3.672   1.296  1.2968 -0.5674  1.4519
  346TIP3    H2 1045   5.643   3.822   1.294 -0.9757 -0.2252 -1.4729
  347TIP3   OH2 1046   4.965   5.505   3.694 -0.0391 -0.9348  0.3026
  347TIP3    H1 1047   4.946   5.595   3.722  2.3108 -0.5645  0.9029
  347TIP3    H2 1048   5.051   5.510   3.653 -0.6345 -2.6391 -1.2802
  348TIP3   OH2 1049   2.443   5.633   4.200 -0.5775  0.2267 -0.3688
  348TIP3    H1 1050   2.391   5.647   4.280  2.4723  0.8383  1.7067
  348TIP3    H2 1051   2.458   5.539   4.198  2.0390  0.4610  1.8437
  349TIP3   OH2 1052   5.632   4.871   0.071 -0.0467  0.4509 -0.0715
  349TIP3    H1 1053   5.574   4.878   0.147  0.1346 -3.4424  0.6243
  349TIP3    H2 1054   5.576   4.834   0.002  0.9135 -0.6338 -0.2879
  350TIP3   OH2 1055   0.267   5.000   1.714  0.5321  0.1812 -0.6663
  350TIP3    H1 1056   0.320   4.982   1.792  1.5425 -0.1471 -1.4058
  350TIP3    H2 1057   0.328   4.987   1.641 -0.8175 -1.1234 -1.6068
  351TIP3   OH2 1058   3.496   4.383   0.148 -0.5999  0.2582 -0.4467
  351TIP3    H1 1059   3.451   4.314   0.197 -0.6797 -0.0183 -0.9035
  351TIP3    H2 1060   3.425   4.438   0.114 -0.5117  1.4100  1.0860
  352TIP3   OH2 1061   6.265   1.235   0.091 -0.0782  0.1099  0.6669
  352TIP3    H1 1062   6.242   1.235  -0.002 -1.0080 -2.2113  0.8290
  352TIP3    H2 1063   6.358   1.214   0.094 -0.2183 -0.5812  0.2657
  353TIP3   OH2 1064   2.114   5.450   2.811 -0.2507  0.0152 -0.1977
  353TIP3    H1 1065   2.185   5.386   2.801 -0.3714 -0.3025  0.8117
  353TIP3    H2 1066   2.078   5.432   2.898 -0.5554  1.1874 -0.0601
  354TIP3   OH2 1067   4.324   5.651   4.103 -0.5212 -0.6203  0.1291
  354TIP3    H1 1068   4.311   5.745   4.086 -0.7429 -0.4893  0.9864
  354TIP3    H2 1069   4.379   5.622   4.031  1.6808  0.7194  1.1792
  355TIP3   OH2 1070   2.912   4.150   4.300 -0.0104 -0.3227 -0.5390
  355TIP3    H1 1071   2.911   4.242   4.329  1.5399 -0.2410 -0.6464
  355TIP3    H2 1072   2.848   4.107   4.357 -1.3300  0.9414 -0.9831
  356TIP3   OH2 1073   1.102   5.008   3.244  0.0510 -0.2409  0.0609
  356TIP3    H1 1074   1.195   5.014   3.225  0.1959  0.7633  0.9585
  356TIP3    H2 1075   1.072   4.930   3.198  1.1038  0.0401 -1.1424
  357TIP3   OH2 1076   2.506   0.408   1.984 -0.4116 -0.4455 -0.0163
  357TIP3    H1 1077   2.577   0.355   2.020 -1.9828 -1.6285  1.5390
  357TIP3    H2 1078   2.496   0.378   1.894 -0.3511 -1.8257  0.4185
  358TIP3   OH2 1079   3.258   4.083   1.256  0.3256  0.0252 -0.5097
  358TIP3    H1 1080   3.188   4.073   1.191 -1.2803  1.4076  0.9112
  358TIP3    H2 1081   3.303   4.163   1.230  0.8704 -0.4313 -0.9717
  359TIP3   OH2 1082   0.311   1.700   2.699 -0.5887  0.3251 -0.5029
  359TIP3    H1 1083   0.297   1.667   2.611  0.5858 -2.2274  0.1620
  359TIP3    H2 1084   0.404   1.685   2.716 -1.0445 -0.5181  1.6051
  360TIP3   OH2 1085   0.581   5.700   1.106 -0.8252 -0.1199  0.1640
  360TIP3    H1 1086   0.612   5.666   1.190  0.3736 -0.3005 -0.3319
  360TIP3    H2 1087   0.645   5.670   1.042 -0.0661  2.4684 -0.4262
  361TIP3   OH2 1088   3.950   0.796   1.819 -0.0006  0.1829 -0.2617
  361TIP3    H1 1089   3.985   0.768   1.735  1.7722  2.1748 -0.2812
  361TIP3    H2 1090   3.889   0.727   1.844 -0.7889 -0.3543 -3.2687
  362TIP3   OH2 1091   3.586   1.509   0.611  0.1447  0.0984 -0.5498
  362TIP3    H1 1092   3.539   1.428   0.588 -1.6010  0.2272  2.1104
  362TIP3    H2 1093   3.549   1.575   0.553 -1.3222 -0.2721 -0.0767
  363TIP3   OH2 1094   5.499   1.486   5.056  0.1791  0.2998 -0.2468
  363TIP3    H1 1095   5.587   1.517   5.078  0.4290  0.6242 -1.6325
  363TIP3    H2 1096   5.461   1.462   5.141  0.7165  2.4809  0.6923
  364TIP3   OH2 1097   3.190   1.341   3.644  0.5108 -0.3271  0.1342
  364TIP3    H1 1098   3.217   1.433   3.643  1.5137 -0.6115 -0.7331
  364TIP3    H2 1099   3.224   1.305   3.562 -1.1522 -1.1243 -0.2475
  365TIP3   OH2 1100   2.540   5.840   4.628 -0.3757 -0.0121  0.2738
  365TIP3    H1 1101   2.626   5.883   4.628  0.0568 -0.8422  0.0959
  365TIP3    H2 1102   2.541   5.786   4.549 -2.0136  1.7682 -1.0367
  366TIP3   OH2 1103   2.942   3.915   1.124  0.1370 -0.0517  0.7292
  366TIP3    H1 1104   2.937   4.005   1.091 -0.2478 -0.1270  0.5764
  366TIP3    H2 1105   3.001   3.870   1.065 -1.7107 -0.5901 -0.8194
  367TIP3   OH2 1106   1.109   0.857   3.623  0.0285 -0.5506 -0.0660
  367TIP3    H1 1107   1.016   0.837   3.613  0.2944 -1.3966 -1.0466
  367TIP3    H2 1108   1.139   0.872   3.533  0.3335  2.1988  0.4092
  368TIP3   OH2 1109   2.792   2.043   4.390 -0.1382 -0.0309  0.6915
  368TIP3    H1 1110   2.729   2.111   4.414 -0.1497  0.3694 -0.4454
  368TIP3    H2 1111   2.739   1.966   4.372 -0.2627  0.1548  0.2624
  369TIP3   OH2 1112   3.797   2.303   5.126  0.2964  0.3387  0.4444
  369TIP3    H1 1113   3.768   2.220   5.165 -1.8968  0.3254 -1.0615
  369TIP3    H2 1114   3.779   2.294   5.033 -0.9706  2.8756  0.3664
  370TIP3   OH2 1115   5.376   5.283   4.891 -0.2085 -0.1802  0.4042
  370TIP3    H1 1116   5.447   5.348   4.889 -1.2211  0.9573  0.0381
  370TIP3    H2 1117   5.341   5.288   4.980 -0.3022 -0.1972  0.3687
  371TIP3   OH2 1118   2.057   0.602   4.061 -0.2884 -0.3516  0.1208
  371TIP3    H1 1119   2.031   0.684   4.103  0.8717 -0.9303  2.1188
  371TIP3    H2 1120   1.975   0.555   4.046 -0.7636 -0.0498  1.6533
  372TIP3   OH2 1121   5.933   0.657   2.130  0.6049  0.3785  0.1953
  372TIP3    H1 1122   5.868   0.600   2.172  1.5085 -1.2083 -0.4755
  372TIP3    H2 1123   5.925   0.740   2.177 -2.2461  0.4214 -0.2199
  373TIP3   OH2 1124   1.431   0.505   0.225 -0.2700 -0.3977 -0.1981
  373TIP3    H1 1125   1.347   0.500   0.179 -0.0217 -0.6793 -0.6196
  373TIP3    H2 1126   1.471   0.419   0.212  1.7499  0.8130 -3.1885
  374TIP3   OH2 1127   1.159   2.589   1.230 -0.7498  0.0350 -0.3648
  374TIP3    H1 1128   1.218   2.662   1.209  0.4817 -0.3558  1.5393
  374TIP3    H2 1129   1.209   2.534   1.290 -1.6896 -2.3551 -1.6291
  375TIP3   OH2 1130   5.879   1.801   0.390  0.6733 -0.0250 -0.1005
  375TIP3    H1 1131   5.922   1.753   0.460  0.0539 -0.3065  0.1003
  375TIP3    H2 1132   5.878   1.892   0.419  0.8843 -0.0605  0.0155
  376TIP3   OH2 1133   2.397   0.132   3.854 -0.1989  0.2806 -0.3132
  376TIP3    H1 1134   2.362   0.094   3.935 -1.1575  1.3691 -0.1985
  376TIP3    H2 1135   2.395   0.227   3.869 -1.7839  0.6001 -2.1558
  377TIP3   OH2 1136   4.052   1.593   4.968 -0.1406  0.0675 -0.2166
  377TIP3    H1 1137   4.116   1.657   4.999 -0.4520  0.1256  0.3008
  377TIP3    H2 1138   4.015   1.554   5.047  1.1744 -1.9126 -0.4911
  378TIP3   OH2 1139   0.594   3.788   3.687  0.1718 -0.3048  0.1889
  378TIP3    H1 1140   0.502   3.805   3.706 -0.3263  0.0850 -2.2605
  378TIP3    H2 1141   0.641   3.864   3.722 -0.7417  0.7048 -0.7372
  379TIP3   OH2 1142   3.137   0.898   5.078 -0.3911 -0.3151  0.7825
  379TIP3    H1 1143   3.202   0.829   5.064  1.6085  1.3452  1.5128
  379TIP3    H2 1144   3.086   0.900   4.996 -0.5463 -2.6240  0.7560
  380TIP3   OH2 1145   2.328   1.303   0.668 -0.4173  0.1259 -0.7564
  380TIP3    H1 1146   2.280   1.306   0.750  2.9746  0.7817  1.3811
  380TIP3    H2 1147   2.325   1.393   0.635  0.3657  0.4486  0.0297
  381TIP3   OH2 1148   5.226   0.605   0.604 -0.0312 -0.5570 -0.0403
  381TIP3    H1 1149   5.196   0.515   0.618 -3.3455  0.4645  0.2937
  381TIP3    H2 1150   5.181   0.656   0.672  2.6058  1.2834  0.4969
  382TIP3   OH2 1151   3.270   5.418   1.422 -0.0197 -0.1223 -0.0026
  382TIP3    H1 1152   3.283   5.468   1.503 -1.3531  0.4337 -0.1004
  382TIP3    H2 1153   3.220   5.477   1.366  1.7499 -0.1218 -1.6451
  383TIP3   OH2 1154   2.207   1.187   2.394  0.2049  0.1395 -0.1196
  383TIP3    H1 1155   2.139   1.196   2.460 -0.0597 -0.6817 -0.2676
  383TIP3    H2 1156   2.253   1.106   2.417 -1.6666 -1.7708 -2.4507
  384TIP3   OH2 1157   0.938   0.870   2.527 -0.0007  0.0059 -0.4385
  384TIP3    H1 1158   0.890   0.927   2.467  0.9442  0.5873 -0.6594
  384TIP3    H2 1159   0.975   0.802   2.471  0.5549  0.3276 -0.4711
  385TIP3   OH2 1160   4.134   2.779   3.979 -0.7193 -0.1247  0.7336
  385TIP3    H1 1161   4.134   2.689   4.013 -0.4028 -1.1606 -1.7894
  385TIP3    H2 1162   4.054   2.784   3.926  0.0596  0.5268 -0.4165
  386TIP3   OH2 1163   5.066   2.977   1.443  0.5575  0.1145  0.3364
  386TIP3    H1 1164   5.089   2.890   1.474  1.3874 -0.7996 -2.5403
  386TIP3    H2 1165   5.012   2.961   1.365 -3.7316  2.2203  2.5523
  387TIP3   OH2 1166   3.052   4.268   5.128  0.0249  0.3238  0.1214
  387TIP3    H1 1167   3.085   4.298   5.043 -1.1916  5.0219  0.9993
  387TIP3    H2 1168   2.974   4.218   5.107  1.5118 -1.4889 -1.5160
  388TIP3   OH2 1169   1.164   5.181   0.736  0.1831  0.4464  0.1219
  388TIP3    H1 1170   1.103   5.158   0.666 -1.3610  0.1238  1.5048
  388TIP3    H2 1171   1.174   5.100   0.786 -0.8228  1.3034  1.7748
  389TIP3   OH2 1172   2.042   3.876   3.807 -0.5547 -0.1871 -0.4151
  389TIP3    H1 1173   1.958   3.880   3.852  0.8483 -0.2471  2.4455
  389TIP3    H2 1174   2.079   3.964   3.817  0.5390 -0.6835  0.2029
  390TIP3   OH2 1175   5.129   3.608   4.484  0.1726  0.4776  0.1806
  390TIP3    H1 1176   5.048   3.611   4.433  0.1897 -1.7052 -0.0779
  390TIP3    H2 1177   5.199   3.613   4.418  0.2064 -0.1864  0.1552
  391TIP3   OH2 1178   1.583   5.680   1.127  0.0782  0.4673  0.0291
  391TIP3    H1 1179   1.626   5.766   1.128  1.7752 -0.3404 -0.1747
  391TIP3    H2 1180   1.528   5.682   1.049 -0.1693  1.4809  0.2111
  392TIP3   OH2 1181   2.530   4.060   3.037  0.2739  0.3601  0.4571
  392TIP3    H1 1182   2.531   4.103   3.122 -1.6266  1.3498  0.0173
  392TIP3    H2 1183   2.618   4.023   3.028  0.7460  0.8797  2.5042
  393TIP3   OH2 1184   0.739   1.926   1.297  0.2985  0.1802 -0.5409
  393TIP3    H1 1185   0.765   1.852   1.242  2.1380  0.8524 -0.6615
  393TIP3    H2 1186   0.740   1.891   1.386  2.0322  0.2259 -0.5066
  394TIP3   OH2 1187   0.862   2.392   2.600  0.8248  0.3564  0.3196
  394TIP3    H1 1188   0.907   2.447   2.665  1.5741 -0.5206  0.5588
  394TIP3    H2 1189   0.923   2.320   2.584 -0.1833 -0.4488  0.0654
  395TIP3   OH2 1190   4.988   4.014   4.301  0.4530 -0.1526 -0.0645
  395TIP3    H1 1191   4.986   3.928   4.260 -2.3034 -0.1537 -0.0782
  395TIP3    H2 1192   4.903   4.053   4.281  0.9858  1.9387  1.3296
  396TIP3   OH2 1193   1.103   1.355   0.148  0.4870 -0.1344 -0.1212
  396TIP3    H1 1194   1.032   1.335   0.087  0.5800 -1.2653  0.1194
  396TIP3    H2 1195   1.098   1.285   0.214  0.5703  0.8916  1.0077
  397TIP3   OH2 1196   0.495   4.801   3.768 -0.0353  0.3217  0.1513
  397TIP3    H1 1197   0.562   4.736   3.784 -0.5792 -0.8230 -1.9006
  397TIP3    H2 1198   0.541   4.885   3.772  1.3873 -0.3984 -0.5896
  398TIP3   OH2 1199   1.552   1.769   4.054  0.0559  0.7400 -0.0090
  398TIP3    H1 1200   1.641   1.735   4.062 -0.1489  0.0697 -0.4528
  398TIP3    H2 1201   1.563   1.862   4.035  0.6922  0.4979 -0.8922
  399TIP3   OH2 1202   2.205   5.100   4.985 -0.1477  0.7035 -0.3856
  399TIP3    H1 1203   2.209   5.021   5.040  1.5607 -0.4199 -1.9848
  399TIP3    H2 1204   2.140   5.080   4.919  0.0613  0.7550 -0.6092
  400TIP3   OH2 1205   4.263   3.553   1.939 -0.2240 -0.4018  0.2453
  400TIP3    H1 1206   4.183   3.591   1.976  0.6809  1.8392  0.1015
  400TIP3    H2 1207   4.299   3.498   2.009 -0.9884 -0.0025  0.9657
  401TIP3   OH2 1208   2.846   1.453   4.581  0.3724  0.5302 -0.2208
  401TIP3    H1 1209   2.862   1.375   4.634 -0.5189  0.7739  0.4150
  401TIP3    H2 1210   2.832   1.419   4.493 -2.2783 -0.2850  0.4245
  402TIP3   OH2 1211   1.446   5.267   1.261  0.1726  0.0209  0.1098
  402TIP3    H1 1212   1.436   5.361   1.275  0.7819  0.4728 -2.0978
  402TIP3    H2 1213   1.536   5.248   1.286  0.5939  0.3913 -1.0822
  403TIP3   OH2 1214   3.607   0.725   0.786 -0.5509  0.1958  0.2763
  403TIP3    H1 1215   3.531   0.720   0.844  0.0959  1.2796  1.2674
  403TIP3    H2 1216   3.572   0.757   0.703 -1.4739 -1.2705  0.0731
  404TIP3   OH2 1217   1.313   5.299   3.315  0.6293 -1.0453 -0.5519
  404TIP3    H1 1218   1.354   5.308   3.229  0.9086 -0.4794 -0.3680
  404TIP3    H2 1219   1.233   5.249   3.299  0.9670 -1.4359 -1.0489
  405TIP3   OH2 1220   4.562   4.382   4.816 -0.2142  0.8481  0.5192
  405TIP3    H1 1221   4.475   4.375   4.855 -0.0521 -0.1858  0.7310
  405TIP3    H2 1222   4.598   4.463   4.852 -1.7718  2.3040 -1.0163
  406TIP3   OH2 1223   1.162   3.298   4.582 -0.0992  0.4985  0.9543
  406TIP3    H1 1224   1.200   3.342   4.658  1.0629 -0.6736  1.0972
  406TIP3    H2 1225   1.178   3.205   4.598 -0.5544  0.1777 -0.3472
  407TIP3   OH2 1226   5.527   5.768   3.080 -0.0079 -0.3959  0.6455
  407TIP3    H1 1227   5.584   5.708   3.128  0.0782 -1.2036 -0.4173
  407TIP3    H2 1228   5.450   5.778   3.136  0.1147 -1.2625  0.9899
  408TIP3   OH2 1229   2.008   0.805   2.906  0.1453  0.1306 -0.6811
  408TIP3    H1 1230   2.007   0.739   2.837 -0.2182  0.6280 -1.1629
  408TIP3    H2 1231   2.067   0.873   2.873  1.0246 -0.2344  0.0898
  409TIP3   OH2 1232   4.100   4.966   0.054 -0.4252 -0.6661 -0.1327
  409TIP3    H1 1233   4.075   4.989  -0.036  0.5688 -2.5519 -0.9560
  409TIP3    H2 1234   4.109   5.049   0.099 -1.7886  0.2948 -1.5496
  410TIP3   OH2 1235   5.505   2.725   3.422 -0.1069 -0.2053 -0.2484
  410TIP3    H1 1236   5.515   2.731   3.517 -0.2886 -0.8485 -0.1807
  410TIP3    H2 1237   5.594   2.722   3.388  0.0865  3.1175 -0.3624
  411TIP3   OH2 1238   5.591   0.022   2.118 -0.0319  0.2722  0.2041
  411TIP3    H1 1239   5.495   0.025   2.127  0.1256  1.5396  2.2583
  411TIP3    H2 1240   5.612   0.095   2.059 -0.3201  0.0438 -0.1853
  412TIP3   OH2 1241   1.989   4.346   1.183  0.2155 -0.6149  0.2737
  412TIP3    H1 1242   2.004   4.437   1.155  0.8783 -0.5399  0.8200
  412TIP3    H2 1243   1.900   4.346   1.218  0.3113 -0.0970  0.5367
  413TIP3   OH2 1244   1.292   5.466   5.107  0.0630  0.4549 -0.4024
  413TIP3    H1 1245   1.207   5.424   5.120  0.6921 -0.5769  0.5714
  413TIP3    H2 1246   1.294   5.487   5.013  0.0357 -2.5633 -1.2119
  414TIP3   OH2 1247   0.808   0.814   4.052 -0.3212 -0.7076 -0.7122
  414TIP3    H1 1248   0.879   0.761   4.015  0.5643 -0.3444  0.4279
  414TIP3    H2 1249   0.733   0.793   3.997 -0.0879 -3.3734 -0.1393
  415TIP3   OH2 1250   1.545   3.818   0.105 -0.6218 -0.8015  0.2099
  415TIP3    H1 1251   1.608   3.745   0.115 -0.9664 -1.4525 -1.8375
  415TIP3    H2 1252   1.460   3.777   0.118 -0.7413 -0.4044  0.6762
  416TIP3   OH2 1253   4.752   3.158   4.312  0.3873  0.5013 -0.3655
  416TIP3    H1 1254   4.693   3.085   4.293  0.3197 -0.2344  2.2307
  416TIP3    H2 1255   4.824   3.147   4.250 -0.1777 -1.0976 -0.7995
  417TIP3   OH2 1256   3.922   1.465   4.297  0.1899  0.1473 -0.4127
  417TIP3    H1 1257   3.866   1.540   4.276  2.1058  0.8584 -3.7535
  417TIP3    H2 1258   3.982   1.498   4.363 -0.9947  0.5091  0.5149
  418TIP3   OH2 1259   2.574   0.688   4.603 -0.2995  0.2729 -0.2203
  418TIP3    H1 1260   2.608   0.684   4.514  0.5023  1.0403  0.0452
  418TIP3    H2 1261   2.572   0.781   4.625  0.1554  0.0523  0.8094
  419TIP3   OH2 1262   2.965   3.176   3.996  0.6328  0.4585  0.3097
  419TIP3    H1 1263   2.948   3.239   4.065  0.6222 -0.8145  1.5246
  419TIP3    H2 1264   2.957   3.225   3.914  0.2578  1.9061  1.1999
  420TIP3   OH2 1265   1.122   0.982   1.003 -0.3454  0.2521 -0.6394
  420TIP3    H1 1266   1.158   1.024   1.081  2.5120 -0.5749 -1.4159
  420TIP3    H2 1267   1.187   0.917   0.978 -1.5541 -0.0905 -3.2584
  421TIP3   OH2 1268   2.359   0.806   4.783  0.7548 -0.3243  0.8153
  421TIP3    H1 1269   2.375   0.770   4.696  1.1995  0.0923  0.7175
  421TIP3    H2 1270   2.433   0.865   4.798  0.1594  0.3806  1.0566
  422TIP3   OH2 1271   0.311   0.974   1.571  0.2102  0.2068  0.0035
  422TIP3    H1 1272   0.302   0.908   1.503  1.0484 -0.0332  0.1157
  422TIP3    H2 1273   0.275   0.932   1.650  0.6507 -0.0797  0.0521
  423TIP3   OH2 1274   4.686   2.959   1.728  0.2537  0.3039 -0.2704
  423TIP3    H1 1275   4.712   2.889   1.668 -1.1276 -0.2299 -0.3017
  423TIP3    H2 1276   4.646   2.912   1.802 -1.7543  1.0650 -0.8109
  424TIP3   OH2 1277   5.094   4.397   2.120  0.7769 -0.3436 -0.0594
  424TIP3    H1 1278   5.037   4.387   2.196 -0.3173 -1.1331 -0.9556
  424TIP3    H2 1279   5.103   4.492   2.109  1.3053 -0.2164  1.2818
  425TIP3   OH2 1280   2.522   1.331   4.436 -0.4257  0.1667  0.6431
  425TIP3    H1 1281   2.458   1.367   4.375  0.4362 -0.3768 -0.6009
  425TIP3    H2 1282   2.533   1.399   4.503  2.1214  2.9162 -2.2700
  426TIP3   OH2 1283   0.738   0.908   4.319 -0.2448  0.1664  0.3746
  426TIP3    H1 1284   0.743   0.875   4.230  0.1801 -1.1096  0.8473
  426TIP3    H2 1285   0.645   0.923   4.334 -0.3490  0.0685 -0.1677
  427TIP3   OH2 1286   5.067   0.693   3.932  0.0701  0.3846  0.1410
  427TIP3    H1 1287   5.009   0.766   3.911 -1.3977 -0.2958  1.6373
  427TIP3    H2 1288   5.021   0.616   3.898 -0.0151 -0.1864  1.5162
  428TIP3   OH2 1289   0.439   0.401   4.418  0.4917  0.0403  0.3042
  428TIP3    H1 1290   0.500   0.460   4.375  1.1177 -0.8410 -0.0439
  428TIP3    H2 1291   0.419   0.334   4.353 -0.2691 -0.1032  0.6648
  429TIP3   OH2 1292   3.197   2.799   2.589 -0.2067 -0.0363  0.1070
  429TIP3    H1 1293   3.224   2.708   2.578  1.9629  0.8069 -2.7632
  429TIP3    H2 1294   3.204   2.837   2.501 -0.7099  2.9910  1.2509
  430TIP3   OH2 1295   2.858   0.154   0.961 -0.5678 -0.2280 -0.5552
  430TIP3    H1 1296   2.885   0.118   0.876 -1.4516  0.1429 -1.0010
  430TIP3    H2 1297   2.843   0.077   1.015  0.5116 -0.4584 -0.5654
  431TIP3   OH2 1298   2.430   0.909   0.215  0.0324  0.2670 -0.2475
  431TIP3    H1 1299   2.373   0.979   0.185  0.9319  1.0627 -0.1616
  431TIP3    H2 1300   2.467   0.941   0.297  0.3620 -0.3535 -0.1416
  432TIP3   OH2 1301   2.487   3.901   1.193 -0.2520 -0.0650 -0.1976
  432TIP3    H1 1302   2.438   3.957   1.132 -0.2692  2.0893  1.6769
  432TIP3    H2 1303   2.429   3.888   1.267  0.3800 -1.2792  0.1213
  433TIP3   OH2 1304   2.219   0.346   0.283 -0.0308  0.2694 -0.1513
  433TIP3    H1 1305   2.138   0.356   0.333  0.3987 -0.3763  0.7002
  433TIP3    H2 1306   2.249   0.436   0.269  0.5972  0.4808  2.0606
  434TIP3   OH2 1307   2.703   5.788   0.412 -0.2006  0.3436 -0.0197
  434TIP3    H1 1308   2.689   5.877   0.446  0.4792  0.1333  0.8244
  434TIP3    H2 1309   2.781   5.796   0.357  1.2342 -0.1643  1.8518
  435TIP3   OH2 1310   5.839   4.410   0.642 -0.6042  0.7066 -0.1231
  435TIP3    H1 1311   5.776   4.360   0.591 -2.4647  1.6070  1.1855
  435TIP3    H2 1312   5.786   4.466   0.698  1.3299  0.4060  2.1869
  436TIP3   OH2 1313   4.242   3.263   5.119 -0.1334  0.3114  0.0559
  436TIP3    H1 1314   4.240   3.170   5.140  1.1166  0.1041 -0.6614
  436TIP3    H2 1315   4.160   3.279   5.072 -1.1999 -0.0211  1.7191
  437TIP3   OH2 1316   5.228   1.072   4.094 -0.3067 -0.6427  0.3551
  437TIP3    H1 1317   5.253   1.025   4.173  2.9322  1.6041  0.8705
  437TIP3    H2 1318   5.261   1.161   4.107 -1.6385  0.4426 -2.6124
  438TIP3   OH2 1319   1.714   5.330   2.840 -0.0579 -0.7123 -0.7215
  438TIP3    H1 1320   1.620   5.344   2.829  0.0918 -0.8177 -2.3093
  438TIP3    H2 1321   1.719   5.250   2.894 -0.8786 -0.8585 -0.8410
  439TIP3   OH2 1322   1.382   5.527   3.028 -0.2439 -0.5558  0.3124
  439TIP3    H1 1323   1.457   5.546   3.084 -0.6066 -0.7481  0.8741
  439TIP3    H2 1324   1.389   5.590   2.956  0.5016 -0.6326  0.3062
  440TIP3   OH2 1325   1.703   4.456   0.978  0.1206  0.1792 -0.4445
  440TIP3    H1 1326   1.713   4.527   1.043 -0.2169 -1.3191  1.3198
  440TIP3    H2 1327   1.739   4.493   0.898  0.6040  2.1211  0.5887
  441TIP3   OH2 1328   6.334   0.276   1.832 -0.3027  0.1328 -0.6385
  441TIP3    H1 1329   6.315   0.342   1.899  0.7108  0.0514 -0.2518
  441TIP3    H2 1330   6.249   0.257   1.791 -0.5275  2.0936 -1.1614
  442TIP3   OH2 1331   4.355   2.900   2.135  0.3832 -0.6467 -0.4179
  442TIP3    H1 1332   4.365   2.972   2.074 -1.8751  0.3316  0.2657
  442TIP3    H2 1333   4.317   2.829   2.084 -0.7003 -0.1233 -0.3503
  443TIP3   OH2 1334   4.667   0.029   0.496  0.3319 -0.4912 -0.0554
  443TIP3    H1 1335   4.580   0.052   0.464  0.0037 -0.9564  0.4832
  443TIP3    H2 1336   4.651  -0.028   0.571  1.1008 -0.5203  0.0987
  444TIP3   OH2 1337   3.284   3.047   1.617  0.3504  0.4124 -0.1968
  444TIP3    H1 1338   3.196   3.083   1.624  0.2013 -0.2146  2.0340
  444TIP3    H2 1339   3.273   2.960   1.580  0.4224  1.4284 -2.8491
  445TIP3   OH2 1340   4.919   2.590   1.709 -0.1485 -0.1870 -0.1252
  445TIP3    H1 1341   4.865   2.573   1.786  1.5537 -0.1264  1.1275
  445TIP3    H2 1342   4.918   2.507   1.661 -1.2961 -0.1963 -0.1266
  446TIP3   OH2 1343   5.410   4.383   4.876  0.2075  0.1611 -0.1981
  446TIP3    H1 1344   5.344   4.335   4.926 -0.2748  0.5709 -0.4346
  446TIP3    H2 1345   5.381   4.375   4.785 -0.7140  2.1199 -0.1332
  447TIP3   OH2 1346   0.811   5.659   4.406  0.1760 -0.0134 -0.0362
  447TIP3    H1 1347   0.721   5.659   4.439 -0.2880  1.5008 -1.1877
  447TIP3    H2 1348   0.803   5.678   4.313  1.7728  2.0084  0.1730
  448TIP3   OH2 1349   6.250   1.626   5.027 -0.0349 -0.8008  0.4770
  448TIP3    H1 1350   6.222   1.685   5.097  0.3078 -0.3062  0.2109
  448TIP3    H2 1351   6.343   1.644   5.017 -0.2462 -0.2512 -0.6661
  449TIP3   OH2 1352   3.775   0.581   3.514 -0.4561 -0.4941 -0.8088
  449TIP3    H1 1353   3.724   0.560   3.435 -1.1449 -1.2869 -0.1708
  449TIP3    H2 1354   3.716   0.561   3.586  0.7740 -1.4901 -0.0445
  450TIP3   OH2 1355   2.868   5.243   0.274  0.0580  0.4859 -0.1064
  450TIP3    H1 1356   2.954   5.282   0.254 -0.3276  0.5081 -1.8774
  450TIP3    H2 1357   2.882   5.149   0.264  0.4986  0.2379  2.2504
  451TIP3   OH2 1358   3.885   4.673   0.800 -0.0179  0.1295  0.0906
  451TIP3    H1 1359   3.805   4.694   0.752  0.0072 -2.5113 -1.2717
  451TIP3    H2 1360   3.951   4.656   0.732  0.6400 -1.4393  1.0597
  452TIP3   OH2 1361   2.898   4.485   2.474  0.0407  0.2725 -0.0013
  452TIP3    H1 1362   2.852   4.402   2.461  0.5247 -0.0192  0.1388
  452TIP3    H2 1363   2.840   4.550   2.436 -1.0532  0.0476  1.1907
  453TIP3   OH2 1364   2.678   5.018   4.291  0.2363 -0.2513  0.2373
  453TIP3    H1 1365   2.626   5.059   4.360 -0.4990  2.2902 -1.6727
  453TIP3    H2 1366   2.758   5.072   4.286  0.4773 -0.6628 -0.5746
  454TIP3   OH2 1367   5.269   4.960   0.066  0.4998  0.4320 -0.0362
  454TIP3    H1 1368   5.340   5.022   0.081  0.4636  0.2037  1.2196
  454TIP3    H2 1369   5.212   4.969   0.143 -0.7514  0.4923 -0.9441
  455TIP3   OH2 1370   3.627   3.859   0.631  0.3433 -0.4097 -0.7494
  455TIP3    H1 1371   3.582   3.782   0.595  0.2691  0.3017 -2.2869
  455TIP3    H2 1372   3.597   3.865   0.721  0.3363 -2.1644 -0.5972
  456TIP3   OH2 1373   4.441   4.053   1.484  0.0973  0.3643 -0.1252
  456TIP3    H1 1374   4.450   4.148   1.480  0.2291  0.3667  0.2495
  456TIP3    H2 1375   4.410   4.035   1.572  0.0413  0.0595 -0.2061
  457TIP3   OH2 1376   5.730   1.783   1.342  0.2674  0.0317  0.1882
  457TIP3    H1 1377   5.779   1.837   1.404  0.8655 -1.2117  0.8432
  457TIP3    H2 1378   5.796   1.746   1.284  0.2099 -1.8689  1.2357
  458TIP3   OH2 1379   1.869   4.171   2.250 -0.5663  0.4011 -0.5804
  458TIP3    H1 1380   1.885   4.092   2.302  0.5827  0.3307 -0.9994
  458TIP3    H2 1381   1.926   4.238   2.289  0.3901  0.3183 -1.7560
  459TIP3   OH2 1382   3.356   1.106   0.645  0.4690  0.2270 -0.6181
  459TIP3    H1 1383   3.410   1.103   0.724 -2.0318  0.5232  1.2009
  459TIP3    H2 1384   3.297   1.180   0.658 -3.9215 -3.0031  0.0774
  460TIP3   OH2 1385   2.668   3.678   2.058 -0.5745  0.4952 -0.0997
  460TIP3    H1 1386   2.617   3.726   1.992 -0.6623 -0.3980 -0.6933
  460TIP3    H2 1387   2.615   3.601   2.078 -1.4335  1.5996  2.3660
  461TIP3   OH2 1388   0.906   1.132   4.390  0.4796  0.5486 -0.1084
  461TIP3    H1 1389   0.854   1.203   4.352  2.2014  1.0238 -1.6883
  461TIP3    H2 1390   0.849   1.055   4.385 -1.2239  1.6576  1.1466
  462TIP3   OH2 1391   4.867   2.896   4.723  0.5929 -0.2143  0.2901
  462TIP3    H1 1392   4.908   2.923   4.805  3.3825  1.2983 -1.4353
  462TIP3    H2 1393   4.847   2.978   4.677  0.3171 -1.0097 -1.0918
  463TIP3   OH2 1394   4.106   4.788   4.741  0.3763 -0.0019 -0.2222
  463TIP3    H1 1395   4.158   4.865   4.718 -1.6136  1.4775 -0.0857
  463TIP3    H2 1396   4.096   4.793   4.836  1.2492 -1.1623 -0.0452
  464TIP3   OH2 1397   4.142   5.896   3.112 -0.4274  0.9744  0.1173
  464TIP3    H1 1398   4.110   5.891   3.021 -0.1905  1.2494  0.0171
  464TIP3    H2 1399   4.229   5.857   3.109 -0.9138 -0.1822  0.4778
  465TIP3   OH2 1400   5.253   0.124   2.178  0.4264 -0.9359 -0.3581
  465TIP3    H1 1401   5.253   0.103   2.084  0.2198 -0.7651 -0.3969
  465TIP3    H2 1402   5.295   0.210   2.183 -0.9527 -0.2358 -0.4592
  466TIP3   OH2 1403   5.050   0.065   4.697  0.3667 -0.1512 -0.4159
  466TIP3    H1 1404   4.955   0.055   4.704  0.1992 -0.2484 -2.2183
  466TIP3    H2 1405   5.082  -0.022   4.673  0.8068  0.0642 -0.6268
  467TIP3   OH2 1406   1.644   1.087   2.713 -0.7725 -0.5616 -0.0037
  467TIP3    H1 1407   1.567   1.125   2.671  0.1157  0.9599 -0.3021
  467TIP3    H2 1408   1.643   0.995   2.685 -2.0123 -0.3639 -0.6745
  468TIP3   OH2 1409   0.154   2.825   4.798  0.2860 -0.1576 -0.3601
  468TIP3    H1 1410   0.134   2.749   4.853 -0.4667 -0.6001 -1.2349
  468TIP3    H2 1411   0.109   2.809   4.716 -1.5693  2.1368  0.0945
  469TIP3   OH2 1412   1.138   4.583   0.916  0.1651 -0.2652  0.3385
  469TIP3    H1 1413   1.075   4.512   0.903  1.4524 -1.7773  1.8732
  469TIP3    H2 1414   1.214   4.558   0.863  0.2745  0.4935  0.1188
  470TIP3   OH2 1415   1.472   3.914   1.591 -0.2237 -0.3166  0.5505
  470TIP3    H1 1416   1.412   3.987   1.602  0.2557  0.0183  0.9793
  470TIP3    H2 1417   1.431   3.859   1.524 -0.7636  0.1528  0.4905
  471TIP3   OH2 1418   3.083   1.482   1.691 -0.0796 -0.1841 -0.1255
  471TIP3    H1 1419   3.066   1.416   1.624 -0.8574  0.1259 -0.2389
  471TIP3    H2 1420   3.130   1.551   1.645 -1.3239  0.3975 -0.5521
  472TIP3   OH2 1421   1.694   1.008   0.350  0.7683  0.2181  0.0119
  472TIP3    H1 1422   1.700   1.031   0.257 -0.2738 -0.2881 -0.1836
  472TIP3    H2 1423   1.726   0.918   0.355  2.2443  0.7185  0.3879
  473TIP3   OH2 1424   4.175   2.523   4.066 -0.2243 -0.0042 -0.1921
  473TIP3    H1 1425   4.111   2.452   4.067  0.3930 -0.5968 -1.0660
  473TIP3    H2 1426   4.260   2.479   4.072  0.1119  0.8061  1.7597
  474TIP3   OH2 1427   6.090   4.476   3.299 -0.3909  0.0337  0.3163
  474TIP3    H1 1428   6.163   4.538   3.298 -0.4575  0.2046  2.3391
  474TIP3    H2 1429   6.015   4.529   3.271  0.2371 -0.1921 -1.9616
  475TIP3   OH2 1430   2.072   1.933   2.496  0.1818  0.7579 -0.3055
  475TIP3    H1 1431   1.995   1.956   2.547  1.2899  0.8686  1.4172
  475TIP3    H2 1432   2.044   1.860   2.440 -0.5866 -0.8062  1.9828
  476TIP3   OH2 1433   2.300   4.665   5.022 -0.5352 -0.1517 -0.5230
  476TIP3    H1 1434   2.389   4.645   4.992 -0.9353 -1.8663 -0.6555
  476TIP3    H2 1435   2.286   4.606   5.095 -0.9739  1.3174  0.6357
  477TIP3   OH2 1436   4.329   5.404   0.901  0.0538 -0.0831 -0.2904
  477TIP3    H1 1437   4.379   5.378   0.978  0.5158 -0.8107 -0.8145
  477TIP3    H2 1438   4.394   5.440   0.841 -0.4724  1.5801  0.0996
  478TIP3   OH2 1439   1.313   2.333   1.204 -0.3159  0.0972  0.3925
  478TIP3    H1 1440   1.228   2.377   1.210 -1.0876 -1.2648 -0.0743
  478TIP3    H2 1441   1.316   2.278   1.282 -1.0154 -1.7409 -0.8048
  479TIP3   OH2 1442   4.421   0.968   0.051  0.5822  0.0899  0.1368
  479TIP3    H1 1443   4.360   0.971   0.124  0.5866 -0.6901  0.1802
  479TIP3    H2 1444   4.493   1.026   0.077 -0.8616  2.3849 -0.6154
  480TIP3   OH2 1445   0.032   5.630   4.725  0.3695 -0.2971 -0.4852
  480TIP3    H1 1446  -0.054   5.588   4.714  0.1091  0.1732 -0.3015
  480TIP3    H2 1447   0.044   5.683   4.646  0.4180 -0.2432 -0.4424
  481TIP3   OH2 1448   4.355   4.712   2.154 -0.2536 -0.1104 -0.0518
  481TIP3    H1 1449   4.275   4.663   2.135 -0.9189  0.6723  0.7153
  481TIP3    H2 1450   4.415   4.687   2.083 -0.2963 -2.6176  0.6821
  482TIP3   OH2 1451   2.477   1.087   3.789  0.3260 -0.0110  0.0586
  482TIP3    H1 1452   2.522   1.013   3.747 -0.2087 -0.0098 -0.5330
  482TIP3    H2 1453   2.385   1.060   3.793 -0.3407  1.5452 -2.3809
  483TIP3   OH2 1454   3.844   5.373   1.585 -0.0007 -0.3720 -0.2079
  483TIP3    H1 1455   3.803   5.295   1.548 -1.1825 -0.1895  0.6480
  483TIP3    H2 1456   3.859   5.430   1.510 -2.5803  0.0992 -0.4487
  484TIP3   OH2 1457   5.976   1.696   3.521 -0.9782 -0.0031 -0.8286
  484TIP3    H1 1458   5.959   1.784   3.555  3.5614  1.0992 -0.8980
  484TIP3    H2 1459   5.918   1.688   3.446 -2.3859  2.3926 -0.0997
  485TIP3   OH2 1460   1.176   1.130   0.298 -0.2913 -0.4191  0.1238
  485TIP3    H1 1461   1.175   1.038   0.273 -2.2140 -0.4585  0.2130
  485TIP3    H2 1462   1.208   1.130   0.388 -2.7685 -1.3189  1.0736
  486TIP3   OH2 1463   4.749   2.567   1.341 -0.4230 -0.0584 -0.2410
  486TIP3    H1 1464   4.832   2.578   1.294  0.2630 -0.1290  0.9157
  486TIP3    H2 1465   4.768   2.500   1.407 -1.7156 -0.8837 -0.6612
  487TIP3   OH2 1466   0.653   0.570   2.105 -0.0250 -0.4799  0.0320
  487TIP3    H1 1467   0.649   0.598   2.014  1.6572  0.2228  0.1355
  487TIP3    H2 1468   0.601   0.490   2.109 -1.5604  0.4174 -1.1608
  488TIP3   OH2 1469   1.205   3.046   3.276  0.6167 -0.5449 -0.3763
  488TIP3    H1 1470   1.224   3.119   3.216 -1.4556 -0.4849 -1.0651
  488TIP3    H2 1471   1.167   2.979   3.219  0.4288 -1.2673  0.5908
  489TIP3   OH2 1472   1.812   4.132   3.624 -0.1750  0.0446  0.1620
  489TIP3    H1 1473   1.797   4.083   3.705 -3.1197 -0.5034 -0.5953
  489TIP3    H2 1474   1.784   4.221   3.645  0.7172  0.3163  0.2186
  490TIP3   OH2 1475   2.324   3.327   2.526  0.5717  0.8899 -0.0130
  490TIP3    H1 1476   2.285   3.359   2.608 -0.6173  0.6206 -0.4525
  490TIP3    H2 1477   2.405   3.285   2.553 -0.6311 -0.7273  1.2591
  491TIP3   OH2 1478   0.274   4.806   4.226 -0.0509 -0.0346  0.3801
  491TIP3    H1 1479   0.362   4.841   4.239 -0.0130  0.2883 -0.6433
  491TIP3    H2 1480   0.240   4.854   4.150 -0.6724 -0.9591  0.0519
  492TIP3   OH2 1481   5.679   4.668   2.398  0.0538 -0.0922  0.6616
  492TIP3    H1 1482   5.758   4.680   2.451  0.6305  1.2163 -0.4360
  492TIP3    H2 1483   5.686   4.578   2.365  0.9824 -0.0726  0.7751
  493TIP3   OH2 1484   4.057   5.792   4.164  0.0580  0.2851  0.2469
  493TIP3    H1 1485   4.150   5.769   4.165  0.1165  0.3407 -1.0906
  493TIP3    H2 1486   4.027   5.780   4.254  0.6793 -2.5392  0.1614
  494TIP3   OH2 1487   0.539   4.739   2.660  0.7523  0.0941  0.7338
  494TIP3    H1 1488   0.597   4.778   2.725  0.3182  0.6119  0.8120
  494TIP3    H2 1489   0.598   4.712   2.589  1.0196  1.2396  0.5073
  495TIP3   OH2 1490   2.925   4.806   3.998  0.1681 -0.2505  0.3705
  495TIP3    H1 1491   2.989   4.848   3.941  1.3530  0.2801  2.0347
  495TIP3    H2 1492   2.849   4.865   3.996  0.8863  0.7094  0.7471
  496TIP3   OH2 1493   2.879   2.867   0.485  0.1986  0.6165  0.1876
  496TIP3    H1 1494   2.854   2.950   0.443  1.6296  0.7599 -0.4549
  496TIP3    H2 1495   2.814   2.804   0.455 -0.0967  1.2120 -0.4489
  497TIP3   OH2 1496   1.807   1.767   2.319 -0.2998 -0.2609  0.1892
  497TIP3    H1 1497   1.729   1.723   2.352 -0.5296 -1.1915 -1.4519
  497TIP3    H2 1498   1.880   1.714   2.351 -0.5573 -1.6563 -1.3854
  498TIP3   OH2 1499   5.474   1.063   3.645 -0.3034 -0.5934  0.4096
  498TIP3    H1 1500   5.399   1.056   3.587 -0.0476 -0.3958  0.0558
  498TIP3    H2 1501   5.449   1.012   3.723 -0.4486 -1.2684 -0.0717
  499TIP3   OH2 1502   0.492   2.251   1.849  0.1392 -0.3921 -0.6479
  499TIP3    H1 1503   0.467   2.338   1.821 -1.6401 -0.8084 -0.4752
  499TIP3    H2 1504   0.421   2.194   1.819  1.5013 -1.8787 -1.2109
  500TIP3   OH2 1505   3.998   4.660   2.718  0.1814  0.5089  0.2361
  500TIP3    H1 1506   3.916   4.707   2.702 -0.6846 -0.5402  1.3224
  500TIP3    H2 1507   4.039   4.652   2.632  0.1525  2.8012 -0.0428
  501TIP3   OH2 1508   0.110   2.348   3.955 -0.1470 -0.6065  0.2869
  501TIP3    H1 1509   0.105   2.292   3.878 -0.8395  0.4402 -0.4544
  501TIP3    H2 1510   0.137   2.434   3.920  0.2580 -0.3016  1.3069
  502TIP3   OH2 1511   4.441   0.233   4.896 -0.2142  0.6975  0.1809
  502TIP3    H1 1512   4.423   0.322   4.926 -0.7380  1.3605 -1.9286
  502TIP3    H2 1513   4.358   0.202   4.862 -0.0392 -0.6290  0.9144
  503TIP3   OH2 1514   3.191   5.418   0.780  0.9411  0.4538  0.4482
  503TIP3    H1 1515   3.141   5.422   0.862  0.2487 -2.2115  0.2368
  503TIP3    H2 1516   3.278   5.390   0.806  0.1862 -2.4190  0.2011
  504TIP3   OH2 1517   5.800   0.678   0.863 -0.3470 -0.1182  0.2475
  504TIP3    H1 1518   5.884   0.633   0.876 -1.6167 -2.1375  2.1358
  504TIP3    H2 1519   5.746   0.616   0.815 -1.3419  0.4062  0.6512
  505TIP3   OH2 1520   4.390   2.620   0.351  0.3753 -0.4878  0.0771
  505TIP3    H1 1521   4.423   2.573   0.428 -0.1081 -0.7479  0.1271
  505TIP3    H2 1522   4.433   2.578   0.277  1.0758 -0.0431  0.2126
  506TIP3   OH2 1523   0.819   1.702   1.173  0.3185  0.6405  0.2342
  506TIP3    H1 1524   0.858   1.645   1.239 -1.7736 -0.7189  0.4018
  506TIP3    H2 1525   0.757   1.645   1.126  0.2281  2.0865 -1.5057
  507TIP3   OH2 1526   4.149   1.199   1.577 -0.4534 -0.4024  0.5628
  507TIP3    H1 1527   4.146   1.114   1.535  0.2096 -0.8335  1.3578
  507TIP3    H2 1528   4.111   1.184   1.664 -1.7390  0.4531  0.1842
  508TIP3   OH2 1529   5.491   2.923   4.077 -0.2528  0.1128 -0.1257
  508TIP3    H1 1530   5.401   2.932   4.108 -0.8969 -0.8473 -1.6241
  508TIP3    H2 1531   5.526   3.012   4.079 -0.4870  0.2313  2.5176
  509TIP3   OH2 1532   4.012   3.633   2.699 -0.9598 -0.0196 -0.4429
  509TIP3    H1 1533   3.921   3.608   2.687 -0.7470 -1.9222  1.4092
  509TIP3    H2 1534   4.029   3.621   2.792  0.7629  1.9123 -0.4246
  510TIP3   OH2 1535   4.007   5.661   2.707  0.8727 -0.7656  0.0734
  510TIP3    H1 1536   3.999   5.687   2.615 -0.8459 -2.4476 -0.3204
  510TIP3    H2 1537   3.950   5.585   2.715  1.0183 -0.6860  2.5463
  511TIP3   OH2 1538   2.680   4.356   2.261  0.2408  0.3044 -0.5943
  511TIP3    H1 1539   2.653   4.273   2.222  2.2509 -0.4926 -0.3885
  511TIP3    H2 1540   2.734   4.397   2.193  1.0755  0.4069  0.1134
  512TIP3   OH2 1541   0.391   5.002   0.333  0.5523 -0.2415 -0.0817
  512TIP3    H1 1542   0.316   4.963   0.378  0.1740 -2.4254 -2.3714
  512TIP3    H2 1543   0.460   4.936   0.338  1.0098  0.1085 -1.2839
  513TIP3   OH2 1544   1.571   4.748   2.174  0.2244  0.2151  0.2083
  513TIP3    H1 1545   1.490   4.778   2.215  0.1035  0.3315 -0.1072
  513TIP3    H2 1546   1.569   4.787   2.086 -0.0608 -0.9232 -0.3165
  514TIP3   OH2 1547   0.398   2.146   2.467 -0.1775  0.6392 -0.0210
  514TIP3    H1 1548   0.303   2.152   2.460 -0.3762 -1.2816  0.4592
  514TIP3    H2 1549   0.415   2.054   2.486  1.6614  1.2392  1.6002
  515TIP3   OH2 1550   4.360   2.995   1.364 -0.0494  0.5805  0.2979
  515TIP3    H1 1551   4.329   3.048   1.290  0.2884  1.9940  1.1239
  515TIP3    H2 1552   4.455   3.006   1.363  0.2937 -1.8191 -0.8002
  516TIP3   OH2 1553   5.722   3.371   0.226  0.5582  0.0690 -0.5028
  516TIP3    H1 1554   5.757   3.454   0.257  0.0571  0.1242 -0.0589
  516TIP3    H2 1555   5.655   3.396   0.162 -0.7711  0.0900  0.8420
  517TIP3   OH2 1556   1.842   0.733   0.572 -0.4019 -0.2465  0.0821
  517TIP3    H1 1557   1.791   0.814   0.563 -1.3358 -0.9669 -1.8105
  517TIP3    H2 1558   1.830   0.707   0.663 -0.0884  1.7115  0.7406
  518TIP3   OH2 1559   4.786   2.611   0.988 -0.3400  0.1369 -0.8503
  518TIP3    H1 1560   4.755   2.529   1.025  0.0106  0.5163  0.3128
  518TIP3    H2 1561   4.880   2.600   0.980 -0.0230  1.0538  1.0371
  519TIP3   OH2 1562   2.980   1.725   2.408 -0.4669  0.3082  0.1923
  519TIP3    H1 1563   2.895   1.752   2.444  0.0215  0.6383  1.1325
  519TIP3    H2 1564   2.973   1.629   2.401 -0.5555  0.2267  1.2450
  520TIP3   OH2 1565   2.769   1.929   0.380  0.1744 -0.0708 -0.0803
  520TIP3    H1 1566   2.783   1.846   0.334  0.8539  0.0894 -0.1839
  520TIP3    H2 1567   2.720   1.905   0.458 -1.8474 -0.2214 -1.3387
  521TIP3   OH2 1568   5.704   3.300   1.473  0.1453 -0.1094  0.5168
  521TIP3    H1 1569   5.715   3.254   1.390  1.5808  1.0827 -0.0040
  521TIP3    H2 1570   5.611   3.319   1.477 -0.1992 -1.5264 -0.0696
  522TIP3   OH2 1571   0.510   2.300   3.874  0.4278  0.4252  0.0096
  522TIP3    H1 1572   0.474   2.350   3.800  0.1871  1.5198  0.8407
  522TIP3    H2 1573   0.434   2.255   3.911  0.5527 -0.1428 -0.4213
  523TIP3   OH2 1574   2.984   0.617   1.273  0.2713  0.3074  0.1384
  523TIP3    H1 1575   2.996   0.528   1.241 -2.4421 -0.2163  0.3065
  523TIP3    H2 1576   3.030   0.672   1.209  1.1711 -1.1476 -0.4980
  524TIP3   OH2 1577   1.242   5.581   4.354 -0.2794 -0.3165  0.1450
  524TIP3    H1 1578   1.241   5.650   4.420 -1.2826 -0.6019  0.4548
  524TIP3    H2 1579   1.321   5.530   4.373  1.1046  1.3830 -0.8031
  525TIP3   OH2 1580   2.705   3.296   0.971 -0.5887  0.2503 -0.3015
  525TIP3    H1 1581   2.697   3.221   0.912 -1.4040 -0.3493  0.5337
  525TIP3    H2 1582   2.784   3.279   1.022 -1.4965 -0.7750  0.8336
  526TIP3   OH2 1583   5.624   0.960   2.387 -0.0653  0.1412 -0.0718
  526TIP3    H1 1584   5.632   1.049   2.421  0.1454 -0.5905  1.9498
  526TIP3    H2 1585   5.560   0.918   2.445  0.1721 -1.1484 -0.7030
  527TIP3   OH2 1586   1.980   3.475   3.437 -0.5595  0.1187  0.4258
  527TIP3    H1 1587   1.987   3.555   3.489 -1.1324  0.7530 -0.4500
  527TIP3    H2 1588   2.071   3.448   3.424 -0.3877  0.2185  1.3329
  528TIP3   OH2 1589   3.319   1.411   1.279  0.2522  0.8625 -0.5375
  528TIP3    H1 1590   3.346   1.355   1.351 -2.0365  0.0109 -0.2635
  528TIP3    H2 1591   3.248   1.363   1.237 -0.3442  2.6147 -1.6358
  529TIP3   OH2 1592   4.618   3.936   2.641 -0.0569  0.5815 -0.3562
  529TIP3    H1 1593   4.593   3.985   2.719  0.0288 -0.1231  0.1180
  529TIP3    H2 1594   4.681   3.871   2.672  0.8926  1.0645 -1.2150
  530TIP3   OH2 1595   4.426   3.115   4.310  0.2103 -0.0875  0.3753
  530TIP3    H1 1596   4.374   3.167   4.249  3.4874  1.1508 -1.6543
  530TIP3    H2 1597   4.446   3.035   4.262  0.1010 -0.5773  1.1385
  531TIP3   OH2 1598   5.630   5.247   2.972  0.5367  0.2538  0.3073
  531TIP3    H1 1599   5.561   5.194   2.931  0.5355  1.1378 -0.8685
  531TIP3    H2 1600   5.638   5.211   3.060 -2.3432  0.9366  0.9556
  532TIP3   OH2 1601   3.678   2.574   3.828  0.1033 -0.2900  0.5212
  532TIP3    H1 1602   3.588   2.606   3.822 -0.5318 -1.9826  0.5714
  532TIP3    H2 1603   3.690   2.520   3.750  0.4846 -1.4812  1.3798
  533TIP3   OH2 1604   1.317   3.296   3.605  0.1155 -0.6655 -0.8403
  533TIP3    H1 1605   1.247   3.295   3.671  0.2988  0.7645 -0.6065
  533TIP3    H2 1606   1.360   3.381   3.616  0.3718 -0.5361 -2.5755
  534TIP3   OH2 1607   5.345   3.349   2.831 -0.2911  0.5104 -0.2740
  534TIP3    H1 1608   5.334   3.282   2.899  0.2259  1.2059  0.5164
  534TIP3    H2 1609   5.274   3.411   2.846 -1.5235 -0.4671 -1.7824
  535TIP3   OH2 1610   0.913   0.525   3.069 -0.1452 -0.1537  0.1462
  535TIP3    H1 1611   0.952   0.488   3.148  0.7565 -1.6189 -0.9359
  535TIP3    H2 1612   0.977   0.590   3.038 -0.6369  0.6404  0.7536
  536TIP3   OH2 1613   2.478   4.204   5.050 -0.1984 -0.1537  0.6149
  536TIP3    H1 1614   2.569   4.233   5.041 -0.6355  0.9838 -0.3120
  536TIP3    H2 1615   2.433   4.243   4.975 -1.4028 -0.9313  0.9163
  537TIP3   OH2 1616   0.515   4.929   4.209 -0.1056 -0.4935  0.1462
  537TIP3    H1 1617   0.543   5.019   4.194 -2.3792  0.8235  2.7274
  537TIP3    H2 1618   0.587   4.889   4.256 -0.9990  1.8646  4.0021
  538TIP3   OH2 1619   4.222   1.601   0.888  0.1259 -0.1969 -0.0285
  538TIP3    H1 1620   4.258   1.667   0.829 -0.2390 -1.2737 -1.5335
  538TIP3    H2 1621   4.127   1.611   0.879  0.0452  0.1775  1.0603
  539TIP3   OH2 1622   4.866   2.615   2.167 -0.7234 -0.3774  0.1018
  539TIP3    H1 1623   4.871   2.586   2.076 -0.8316  0.5321 -0.1992
  539TIP3    H2 1624   4.859   2.710   2.162 -3.3258 -0.4383  0.9418
  540TIP3   OH2 1625   1.771   1.378   4.844  0.4948  0.8706 -0.0117
  540TIP3    H1 1626   1.778   1.435   4.768  0.6686 -0.0984 -0.7394
  540TIP3    H2 1627   1.825   1.302   4.823 -0.9024 -0.2492  0.2882
  541TIP3   OH2 1628   0.135   5.426   4.519  0.0244  0.7587  0.2975
  541TIP3    H1 1629   0.154   5.518   4.537 -0.1913  1.3801 -2.3013
  541TIP3    H2 1630   0.045   5.414   4.548  0.4499  0.9620  1.8317
  542TIP3   OH2 1631   1.311   0.093   2.414 -0.1492 -0.2019 -0.1028
  542TIP3    H1 1632   1.337   0.125   2.328  2.8801 -0.4422  0.6217
  542TIP3    H2 1633   1.303  -0.002   2.404  1.7448 -0.4154  0.1865
  543TIP3   OH2 1634   3.894   0.904   1.107 -0.1202  0.1428 -0.4532
  543TIP3    H1 1635   3.825   0.839   1.119  0.6215 -0.5090  0.5010
  543TIP3    H2 1636   3.851   0.979   1.067 -1.9599  0.7244  2.3182
  544TIP3   OH2 1637   5.959   3.019   3.993 -0.4564 -0.4274 -0.0420
  544TIP3    H1 1638   5.912   3.048   4.071 -0.6926  0.7825 -0.6107
  544TIP3    H2 1639   5.892   2.982   3.937 -0.6317  0.5945 -0.5278
  545TIP3   OH2 1640   5.797   5.741   2.248 -0.4287  0.0575  0.0397
  545TIP3    H1 1641   5.867   5.676   2.241  0.2406  0.6459  1.1284
  545TIP3    H2 1642   5.834   5.811   2.301 -2.0482  0.1037  1.1662
  546TIP3   OH2 1643   0.584   2.675   0.169 -0.1804  0.2840 -0.1329
  546TIP3    H1 1644   0.596   2.719   0.085 -1.3760  0.3263 -0.3013
  546TIP3    H2 1645   0.641   2.722   0.230  1.0646 -0.0524 -1.0033
  547TIP3   OH2 1646   3.732   2.084   0.360 -0.3657 -0.1427 -0.6669
  547TIP3    H1 1647   3.795   2.155   0.372  0.7219 -0.9898 -1.1729
  547TIP3    H2 1648   3.741   2.059   0.268 -1.3841 -0.3480 -0.7234
  548TIP3   OH2 1649   6.004   0.553   3.803  0.3723 -0.5075  0.7178
  548TIP3    H1 1650   6.079   0.602   3.768  0.8210 -1.2190  0.6617
  548TIP3    H2 1651   5.941   0.620   3.829  0.2893  0.0634 -0.8713
  549TIP3   OH2 1652   5.527   2.970   0.129 -0.3548 -0.3907 -0.7427
  549TIP3    H1 1653   5.488   3.054   0.103 -1.2901 -0.6709 -0.3027
  549TIP3    H2 1654   5.472   2.905   0.086  0.2152 -0.7900 -0.8742
  550TIP3   OH2 1655   2.932   5.736   2.047 -0.1419 -0.1045 -0.3263
  550TIP3    H1 1656   2.929   5.783   2.131 -0.4693 -1.8829  0.7118
  550TIP3    H2 1657   2.853   5.683   2.047  0.6157 -1.2780 -1.0737
  551TIP3   OH2 1658   5.900   4.710   2.556  0.3572  0.2398  0.2368
  551TIP3    H1 1659   5.875   4.681   2.644  1.4605 -1.9180 -0.1144
  551TIP3    H2 1660   5.946   4.793   2.571 -1.0158  0.8269  1.4952
  552TIP3   OH2 1661   2.119   5.725   2.761 -0.3480  0.5093 -0.2373
  552TIP3    H1 1662   2.104   5.631   2.764  0.0486  0.4575  0.5827
  552TIP3    H2 1663   2.061   5.757   2.692  0.2613 -0.4667 -1.2375
  553TIP3   OH2 1664   2.231   2.910   4.763 -0.0939 -0.1504  0.4329
  553TIP3    H1 1665   2.289   2.912   4.839  0.4090  0.6254  0.0469
  553TIP3    H2 1666   2.253   2.989   4.714 -0.3817 -0.6507 -0.5389
  554TIP3   OH2 1667   0.954   3.424   3.157 -0.4478  0.1241  0.4994
  554TIP3    H1 1668   0.882   3.452   3.100 -1.0219  0.6240  1.4468
  554TIP3    H2 1669   0.913   3.412   3.242  0.5482  0.1282  0.9865
  555TIP3   OH2 1670   1.465   5.241   2.842 -0.1581  0.0042  0.0287
  555TIP3    H1 1671   1.443   5.291   2.763 -0.9682 -1.2499 -0.5767
  555TIP3    H2 1672   1.395   5.177   2.849  0.9941 -1.2337  0.6139
  556TIP3   OH2 1673   5.348   1.176   0.183  0.2119 -0.0016  0.5674
  556TIP3    H1 1674   5.441   1.194   0.189  0.0872  0.6136  0.7042
  556TIP3    H2 1675   5.306   1.246   0.234 -0.3955  0.4822 -0.5456
  557TIP3   OH2 1676   1.079   2.690   1.535 -0.1376 -0.9965  0.5412
  557TIP3    H1 1677   1.160   2.692   1.586 -0.9840  0.3724  1.9364
  557TIP3    H2 1678   1.108   2.675   1.445  1.5751 -1.5228  1.1361
  558TIP3   OH2 1679   4.015   5.100   4.654 -0.3102  0.1904  0.0853
  558TIP3    H1 1680   4.048   5.074   4.740  0.2426 -0.6892 -0.3884
  558TIP3    H2 1681   3.920   5.091   4.661 -0.1734 -1.3408  0.1334
  559TIP3   OH2 1682   3.719   0.624   1.531 -0.3716  0.6201 -0.2702
  559TIP3    H1 1683   3.801   0.583   1.559 -0.6657  1.2248  1.7121
  559TIP3    H2 1684   3.735   0.718   1.543 -0.7547  0.8706 -1.6425
  560TIP3   OH2 1685   3.408   3.715   3.807 -0.0037  0.2409  0.0600
  560TIP3    H1 1686   3.385   3.801   3.774 -1.5566 -0.3496 -0.4713
  560TIP3    H2 1687   3.332   3.687   3.857  0.6107 -0.6980  0.5053
  561TIP3   OH2 1688   5.934   1.074   1.765 -0.4005 -0.2234  0.3445
  561TIP3    H1 1689   5.968   1.043   1.849  1.8310  1.4590  0.1457
  561TIP3    H2 1690   5.851   1.116   1.787  0.4183  0.6935  1.8202
  562TIP3   OH2 1691   3.358   2.550   4.893 -0.7816 -0.5778  0.0369
  562TIP3    H1 1692   3.425   2.534   4.960  0.9682 -0.0175 -1.5211
  562TIP3    H2 1693   3.295   2.479   4.906  1.2457 -2.4719  0.1554
  563TIP3   OH2 1694   5.006   5.541   2.647 -0.4635  0.0022  0.2635
  563TIP3    H1 1695   4.914   5.523   2.669 -0.0865 -0.0898  1.8724
  563TIP3    H2 1696   5.033   5.608   2.709  0.7117 -0.3549  0.1673
  564TIP3   OH2 1697   3.350   0.973   0.978  0.5753  0.0355 -0.3953
  564TIP3    H1 1698   3.257   0.976   0.957  0.4897  1.7877  0.0987
  564TIP3    H2 1699   3.370   0.879   0.986 -1.5485 -0.3597  1.2092
  565TIP3   OH2 1700   2.956   3.370   5.180 -0.1128 -1.0984 -0.1461
  565TIP3    H1 1701   3.021   3.417   5.128 -1.9580  0.0931 -1.5170
  565TIP3    H2 1702   2.975   3.278   5.166 -0.9057 -0.8775 -3.5800
  566TIP3   OH2 1703   6.359   2.822   4.017  0.6350 -0.4136  0.3968
  566TIP3    H1 1704   6.300   2.781   3.955  0.4554 -1.1673  1.0440
  566TIP3    H2 1705   6.310   2.898   4.050  1.3023  0.8956 -1.4414
  567TIP3   OH2 1706   4.802   3.288   0.947  0.3114 -0.0147  0.3491
  567TIP3    H1 1707   4.778   3.264   0.858 -0.8930  1.0579  0.3445
  567TIP3    H2 1708   4.722   3.274   0.998  0.7053  0.2764  1.0644
  568TIP3   OH2 1709   6.327   4.009   1.967  0.6248 -0.8703  0.2894
  568TIP3    H1 1710   6.232   4.007   1.975  0.3019 -1.1455 -2.5131
  568TIP3    H2 1711   6.349   4.101   1.952  0.6632 -0.9546 -0.1859
  569TIP3   OH2 1712   6.321   3.941   4.358  0.2892  0.0583  0.2779
  569TIP3    H1 1713   6.371   4.013   4.395  4.4582 -2.9369  1.2648
  569TIP3    H2 1714   6.284   3.896   4.434  2.7200 -1.9619  0.4256
  570TIP3   OH2 1715   5.713   3.178   1.229 -0.0818 -1.0525  0.4549
  570TIP3    H1 1716   5.760   3.098   1.204 -0.7918 -1.3823  0.1233
  570TIP3    H2 1717   5.650   3.191   1.158 -0.7528 -0.8419  1.0813
  571TIP3   OH2 1718   1.160   4.759   2.088 -0.5465  0.3083  0.1237
  571TIP3    H1 1719   1.142   4.838   2.038  0.6153  1.0984  0.9056
  571TIP3    H2 1720   1.108   4.767   2.167  1.3505  1.5089  1.3325
  572TIP3   OH2 1721   2.886   2.449   4.393 -0.0365 -0.3871  0.3082
  572TIP3    H1 1722   2.935   2.384   4.342  1.2956 -1.0514  2.3148
  572TIP3    H2 1723   2.826   2.397   4.447 -0.7502  0.2348  0.1329
  573TIP3   OH2 1724   0.155   0.478   0.222 -0.3317 -0.4510  0.5749
  573TIP3    H1 1725   0.115   0.391   0.225 -1.3421 -0.2522 -3.0508
  573TIP3    H2 1726   0.210   0.477   0.144  0.1593  1.9962  0.8010
  574TIP3   OH2 1727   0.622   0.584   5.103  0.9535 -0.0614  0.3196
  574TIP3    H1 1728   0.580   0.614   5.022  0.1785 -0.4638  0.5636
  574TIP3    H2 1729   0.634   0.490   5.090  0.9739 -0.0989  0.6079
  575TIP3   OH2 1730   4.213   0.864   4.114 -0.3684 -0.1634 -0.8320
  575TIP3    H1 1731   4.290   0.888   4.165  0.0867  1.7538 -2.2891
  575TIP3    H2 1732   4.239   0.785   4.067 -0.5769 -1.5877  1.2965
  576TIP3   OH2 1733   5.677   5.932   2.915  0.6531  0.4787  0.3815
  576TIP3    H1 1734   5.620   5.888   2.978  0.3814 -0.1148 -0.2657
  576TIP3    H2 1735   5.749   5.966   2.968 -0.1769  1.0532  1.1920
  577TIP3   OH2 1736   2.877   5.834   3.549 -0.2406  0.1215 -0.0570
  577TIP3    H1 1737   2.815   5.907   3.556  1.1672  1.2086  3.5655
  577TIP3    H2 1738   2.822   5.756   3.541 -1.9511  1.2877 -0.3111
  578TIP3   OH2 1739   3.468   2.131   2.207 -0.0190  0.2633 -0.0993
  578TIP3    H1 1740   3.498   2.132   2.298 -1.3374  2.1399  0.3620
  578TIP3    H2 1741   3.490   2.043   2.175  2.8289  0.3968  1.1956
  579TIP3   OH2 1742   2.939   3.651   1.904  0.6400  0.0786 -0.5348
  579TIP3    H1 1743   2.925   3.630   1.812  0.4528  1.0274 -0.7367
  579TIP3    H2 1744   2.854   3.636   1.945  0.0230  2.0119 -1.0034
  580TIP3   OH2 1745   3.463   5.098   3.853 -0.0861 -0.1465  0.0784
  580TIP3    H1 1746   3.531   5.162   3.876 -0.1908 -0.2174  0.6135
  580TIP3    H2 1747   3.404   5.145   3.795 -0.6336  0.5282  1.1423
  581TIP3   OH2 1748   1.772   5.315   3.530  0.4169 -0.6398  0.1164
  581TIP3    H1 1749   1.823   5.376   3.582  0.5727 -0.4474 -0.2570
  581TIP3    H2 1750   1.685   5.354   3.523  1.2612  1.0389 -2.5545
  582TIP3   OH2 1751   4.547   1.307   0.063 -0.6250 -0.2411 -0.8983
  582TIP3    H1 1752   4.493   1.375   0.022  0.0876  1.0184  0.1768
  582TIP3    H2 1753   4.531   1.318   0.157  1.7710  0.4634 -0.5006
  583TIP3   OH2 1754   2.387   3.799   1.619 -0.0335 -0.3680 -0.2520
  583TIP3    H1 1755   2.442   3.769   1.691  0.0458 -1.5548 -0.7944
  583TIP3    H2 1756   2.445   3.854   1.566 -0.1023  0.5509  0.5785
  584TIP3   OH2 1757   1.385   2.554   4.937 -0.3661 -0.3274  0.2130
  584TIP3    H1 1758   1.336   2.478   4.969  0.5784 -0.8518  0.4380
  584TIP3    H2 1759   1.387   2.614   5.011  1.6303 -1.4478  1.1526
  585TIP3   OH2 1760   4.787   1.887   2.724  0.2008 -0.6418  0.3149
  585TIP3    H1 1761   4.813   1.910   2.635  1.5714  1.3961  1.1500
  585TIP3    H2 1762   4.828   1.802   2.739  2.7520  0.4155 -0.0067
  586TIP3   OH2 1763   0.834   1.389   0.542 -0.1928 -0.4182  0.0365
  586TIP3    H1 1764   0.842   1.300   0.576  0.9102  0.2764  1.7979
  586TIP3    H2 1765   0.922   1.426   0.553 -0.6994  0.9609 -0.3830
  587TIP3   OH2 1766   1.242   4.044   4.130 -0.0112  0.7160  0.3632
  587TIP3    H1 1767   1.226   3.979   4.061 -0.7480  1.4976 -0.2225
  587TIP3    H2 1768   1.314   4.097   4.097  0.8175  0.0284  0.9889
  588TIP3   OH2 1769   4.998   0.740   3.627  0.6926 -0.2462 -0.1534
  588TIP3    H1 1770   4.905   0.764   3.630  0.9626  0.9469 -0.7669
  588TIP3    H2 1771   4.999   0.648   3.653 -0.6586 -0.2755 -0.0944
  589TIP3   OH2 1772   4.027   1.130   0.058  0.3838  0.3031  0.0548
  589TIP3    H1 1773   4.079   1.196   0.011 -1.5915  1.3784 -0.7240
  589TIP3    H2 1774   3.982   1.179   0.126  1.5347 -0.8914  1.7588
  590TIP3   OH2 1775   1.751   2.169   1.386  0.0762 -0.0551  0.3044
  590TIP3    H1 1776   1.845   2.152   1.396  0.0755  0.2526  0.8259
  590TIP3    H2 1777   1.708   2.090   1.418  0.0599  0.9815  3.0486
  591TIP3   OH2 1778   5.372   5.312   4.175 -0.0453 -0.3113  0.1172
  591TIP3    H1 1779   5.449   5.365   4.197 -0.3331 -0.2310  0.9579
  591TIP3    H2 1780   5.314   5.320   4.251 -1.1740  0.1463 -0.7461
  592TIP3   OH2 1781   4.496   3.926   0.106 -0.0199  0.1965 -0.1484
  592TIP3    H1 1782   4.579   3.966   0.133  0.3474 -0.4588 -0.2670
  592TIP3    H2 1783   4.491   3.845   0.158  0.6324 -1.0367 -1.9096
  593TIP3   OH2 1784   2.921   0.996   4.280 -0.4136  0.2360  0.1802
  593TIP3    H1 1785   2.985   1.042   4.227 -1.1815  0.2066 -0.8175
  593TIP3    H2 1786   2.944   0.903   4.270 -0.7814  0.2068 -0.4134
  594TIP3   OH2 1787   5.902   0.111   3.109 -0.8943  0.4499 -0.8554
  594TIP3    H1 1788   5.901   0.020   3.140 -2.0656 -0.0741 -2.3388
  594TIP3    H2 1789   5.827   0.151   3.154 -0.3510  0.7165 -0.1670
  595TIP3   OH2 1790   4.938   3.949   4.559 -0.0114  0.0298 -0.0561
  595TIP3    H1 1791   4.869   4.015   4.565  1.2521  1.6045 -1.8213
  595TIP3    H2 1792   4.974   3.960   4.471  0.8611 -2.4395 -0.0845
  596TIP3   OH2 1793   4.950   2.047   4.295 -0.2357  0.2849 -0.0788
  596TIP3    H1 1794   4.868   2.003   4.316 -0.3269 -0.2771 -1.5012
  596TIP3    H2 1795   4.957   2.118   4.359 -1.6411  0.1298  0.2728
  597TIP3   OH2 1796   2.059   0.124   2.229 -0.1815  0.0057  0.3392
  597TIP3    H1 1797   2.072   0.216   2.252  2.6607  0.0462 -0.9352
  597TIP3    H2 1798   2.080   0.076   2.308  2.0837  0.3904  0.0361
  598TIP3   OH2 1799   1.102   3.586   2.241 -0.6209  0.5995  0.2729
  598TIP3    H1 1800   1.171   3.603   2.305  0.8663 -2.4621 -0.2996
  598TIP3    H2 1801   1.146   3.590   2.157 -2.3626  3.6583 -0.6233
  599TIP3   OH2 1802   5.884   2.203   1.372 -0.5432 -0.6834 -0.1297
  599TIP3    H1 1803   5.848   2.253   1.299 -0.5283 -0.1991  0.1910
  599TIP3    H2 1804   5.926   2.127   1.330  1.5302  0.7678 -0.8595
  600TIP3   OH2 1805   4.897   1.803   3.156  0.3469 -0.5109 -0.3154
  600TIP3    H1 1806   4.861   1.768   3.075  0.4653  0.0545 -0.6177
  600TIP3    H2 1807   4.854   1.752   3.225  0.1692 -0.9260 -0.7233
  601TIP3   OH2 1808   3.210   3.969   1.509 -0.1092 -0.1661 -0.0285
  601TIP3    H1 1809   3.225   4.013   1.425 -1.2476 -1.0017 -0.6992
  601TIP3    H2 1810   3.116   3.951   1.510  0.1921 -1.9401  0.5167
  602TIP3   OH2 1811   5.251   3.642   0.376 -0.1178  0.2206  0.2086
  602TIP3    H1 1812   5.291   3.608   0.456  0.7958 -0.3111 -0.4447
  602TIP3    H2 1813   5.324   3.677   0.326 -0.8020  1.4202  0.0045
  603TIP3   OH2 1814   4.163   0.557   2.944  0.7968  0.2329  0.4647
  603TIP3    H1 1815   4.071   0.532   2.936  0.8155  0.3788 -0.3049
  603TIP3    H2 1816   4.211   0.477   2.920  0.8560  0.6235 -0.8274
  604TIP3   OH2 1817   2.249   3.327   4.362  0.1979 -0.4797  0.0937
  604TIP3    H1 1818   2.239   3.232   4.357  3.2958 -0.8583 -2.1864
  604TIP3    H2 1819   2.180   3.361   4.306 -1.4279 -1.2368  1.5211
  605TIP3   OH2 1820   0.175   3.398   1.810  0.6254  0.5901  0.6624
  605TIP3    H1 1821   0.219   3.482   1.794  1.0845 -0.0674 -2.0855
  605TIP3    H2 1822   0.082   3.418   1.803  0.7219  0.9234  0.2731
  606TIP3   OH2 1823   5.623   1.637   1.615  0.9220  0.4891 -0.3818
  606TIP3    H1 1824   5.599   1.648   1.707  1.0747 -0.8921 -0.1612
  606TIP3    H2 1825   5.690   1.704   1.600 -0.2586  1.8286  0.0358
  607TIP3   OH2 1826   1.699   2.334   4.412  0.2773  0.0480 -0.3158
  607TIP3    H1 1827   1.693   2.297   4.500  0.3357  1.5465  0.3396
  607TIP3    H2 1828   1.696   2.428   4.425 -0.5641  0.2900 -1.9896
  608TIP3   OH2 1829   3.101   5.482   3.241 -0.3061 -0.3075  0.0601
  608TIP3    H1 1830   3.150   5.564   3.227  0.0593 -0.2381  1.5776
  608TIP3    H2 1831   3.137   5.446   3.322  0.9901 -3.0596 -1.5933
  609TIP3   OH2 1832   0.072   0.646   2.955  0.1340 -0.2870 -0.1511
  609TIP3    H1 1833  -0.003   0.680   2.906 -0.4700 -0.2270  0.7917
  609TIP3    H2 1834   0.034   0.578   3.012  0.8075 -0.3061  0.2838
  610TIP3   OH2 1835   5.935   2.469   1.631  0.2410 -0.4507 -0.3461
  610TIP3    H1 1836   5.974   2.464   1.543  2.3490  0.5655  0.4641
  610TIP3    H2 1837   5.925   2.377   1.658 -1.0150 -0.7976 -1.8404
  611TIP3   OH2 1838   2.034   5.683   4.370 -0.5697  0.0550  0.1375
  611TIP3    H1 1839   1.992   5.756   4.326 -0.7291  0.2179  0.5529
  611TIP3    H2 1840   1.989   5.676   4.454 -1.0295 -0.9676 -0.1769
  612TIP3   OH2 1841   0.989   0.834   2.168 -0.5979  0.1730 -0.3817
  612TIP3    H1 1842   0.897   0.825   2.195 -0.7629  1.2902 -0.5334
  612TIP3    H2 1843   1.015   0.920   2.199  0.1225  0.2516 -1.1578
  613TIP3   OH2 1844   4.389   2.969   3.537 -0.0488 -0.2472  0.2291
  613TIP3    H1 1845   4.460   3.002   3.481 -1.2166  0.6383 -0.7942
  613TIP3    H2 1846   4.430   2.900   3.589  1.1667 -0.9659 -1.5734
  614TIP3   OH2 1847   4.534   2.131   3.146 -0.6355  0.8913 -0.0755
  614TIP3    H1 1848   4.616   2.081   3.145 -1.3071 -0.3238  1.6242
  614TIP3    H2 1849   4.548   2.200   3.210 -1.7244 -0.8490  2.1598
  615TIP3   OH2 1850   4.652   4.744   1.266  0.2888  0.1615  0.7714
  615TIP3    H1 1851   4.626   4.730   1.176  0.0705  2.6295  0.3599
  615TIP3    H2 1852   4.746   4.727   1.267  0.6190  1.6743 -0.3707
  616TIP3   OH2 1853   5.363   0.124   4.778  0.0525  0.2733  0.2429
  616TIP3    H1 1854   5.424   0.123   4.851 -2.3537  3.1207  2.5321
  616TIP3    H2 1855   5.301   0.053   4.797  0.0699  0.2795  0.3209
  617TIP3   OH2 1856   6.200   2.409   5.189  0.9205  0.3884  0.2786
  617TIP3    H1 1857   6.266   2.451   5.134 -1.2498  0.7890 -2.2186
  617TIP3    H2 1858   6.155   2.348   5.130 -1.7622  1.0781  1.4553
  618TIP3   OH2 1859   3.498   4.280   4.154 -0.1963 -0.1536 -0.6199
  618TIP3    H1 1860   3.577   4.323   4.120  1.3039 -0.5505  2.1053
  618TIP3    H2 1861   3.508   4.189   4.126  1.7371 -0.7893  1.7811
  619TIP3   OH2 1862   6.206   1.927   3.819  0.3940 -0.1668  0.2109
  619TIP3    H1 1863   6.292   1.937   3.779 -0.1403 -1.0600 -1.2729
  619TIP3    H2 1864   6.181   2.016   3.845  1.6994  0.1123  0.5548
  620TIP3   OH2 1865   0.502   0.899   4.643 -0.4359 -0.2726  0.1385
  620TIP3    H1 1866   0.504   0.838   4.569  0.6790  2.0199 -1.8712
  620TIP3    H2 1867   0.410   0.905   4.667 -1.0189 -0.2713 -1.8687
  621TIP3   OH2 1868   2.137   0.310   1.525 -0.1344  0.0556 -0.4183
  621TIP3    H1 1869   2.131   0.327   1.431  0.4435 -0.4829 -0.5597
  621TIP3    H2 1870   2.046   0.313   1.556 -0.5467 -1.6454 -1.3376
  622TIP3   OH2 1871   6.022   1.675   2.455 -0.0573 -0.0836 -0.4182
  622TIP3    H1 1872   5.961   1.623   2.508  1.7335 -1.8346  0.0428
  622TIP3    H2 1873   6.018   1.762   2.494 -0.8476 -0.6399  0.8307
  623TIP3   OH2 1874   2.935   2.233   3.217  0.5614 -0.1801  0.3388
  623TIP3    H1 1875   2.865   2.201   3.162 -0.1499 -0.3535  1.3207
  623TIP3    H2 1876   2.976   2.303   3.166 -1.5983  1.3132  0.5155
  624TIP3   OH2 1877   1.489   5.144   3.452  0.1119 -0.6038  0.1368
  624TIP3    H1 1878   1.430   5.196   3.397  0.1519 -0.0565  0.6045
  624TIP3    H2 1879   1.525   5.206   3.514  2.1921 -0.6747 -0.9376
  625TIP3   OH2 1880   0.614   3.909   3.419  0.7432  0.1266 -0.3275
  625TIP3    H1 1881   0.596   3.837   3.479 -0.9422  0.9279  0.1955
  625TIP3    H2 1882   0.613   3.869   3.332 -1.7671 -0.2710 -0.1739
  626TIP3   OH2 1883   5.356   4.376   0.409 -0.1606 -0.2137 -0.0590
  626TIP3    H1 1884   5.414   4.334   0.345 -1.2688 -1.3363 -0.3668
  626TIP3    H2 1885   5.392   4.352   0.494 -0.9721 -2.1616 -0.2179
  627TIP3   OH2 1886   1.815   4.398   2.983 -0.1463  0.1669 -0.1439
  627TIP3    H1 1887   1.816   4.347   2.902  2.6670 -1.7710  0.9855
  627TIP3    H2 1888   1.904   4.431   2.993 -1.0601  2.6425  0.9018
  628TIP3   OH2 1889   5.600   0.475   4.575 -0.2827  0.2931 -0.5101
  628TIP3    H1 1890   5.687   0.465   4.613 -0.7541 -1.7818  0.1196
  628TIP3    H2 1891   5.604   0.426   4.493 -1.4058 -1.6266  0.5109
  629TIP3   OH2 1892   0.388   4.756   1.880  0.5821  0.8161 -0.1606
  629TIP3    H1 1893   0.298   4.724   1.876  0.1516  2.0098 -0.3869
  629TIP3    H2 1894   0.438   4.682   1.916  0.2169 -1.2954 -3.5274
  630TIP3   OH2 1895   5.325   4.094   3.569  0.4318 -0.3334 -0.8103
  630TIP3    H1 1896   5.235   4.124   3.564  0.3505 -0.6044 -1.0312
  630TIP3    H2 1897   5.378   4.173   3.555  0.2519  0.0473  0.6074
  631TIP3   OH2 1898   3.680   1.277   4.343 -0.1311 -0.8065  0.2881
  631TIP3    H1 1899   3.679   1.365   4.305 -2.7917 -1.0639 -0.4826
  631TIP3    H2 1900   3.667   1.219   4.268  0.7807 -1.8084  0.8899
  632TIP3   OH2 1901   3.063   1.776   3.242  0.1308  0.3240  0.3888
  632TIP3    H1 1902   3.066   1.717   3.316 -1.3177 -1.0479 -0.5974
  632TIP3    H2 1903   2.971   1.797   3.230  0.2083 -0.2527 -1.5838
  633TIP3   OH2 1904   2.973   5.361   5.145 -0.3870  0.0064 -0.0794
  633TIP3    H1 1905   2.916   5.284   5.132 -0.3349 -0.2498  1.1232
  633TIP3    H2 1906   3.045   5.329   5.199 -0.1711  0.8153  0.1249
  634TIP3   OH2 1907   4.200   4.974   0.862  0.4392 -0.0444  0.2855
  634TIP3    H1 1908   4.260   4.955   0.789 -0.1896  0.4946 -0.3928
  634TIP3    H2 1909   4.137   5.035   0.825 -0.9130 -1.0836  0.8186
  635TIP3   OH2 1910   0.648   5.588   1.354  0.3396  0.3680 -0.0494
  635TIP3    H1 1911   0.736   5.602   1.391 -0.1907 -0.4096  1.6139
  635TIP3    H2 1912   0.590   5.589   1.430 -1.1912  1.3672 -1.1608
  636TIP3   OH2 1913   3.818   2.813   1.031 -0.4596  0.1306  0.3251
  636TIP3    H1 1914   3.756   2.752   1.071 -1.0308 -0.4311 -1.3049
  636TIP3    H2 1915   3.763   2.877   0.986  0.1452  0.6240  0.2737
  637TIP3   OH2 1916   3.993   3.172   4.593  0.6205  0.0449 -0.2890
  637TIP3    H1 1917   4.049   3.145   4.666  1.0622  0.0205 -0.6342
  637TIP3    H2 1918   3.918   3.112   4.597 -0.3706  1.2946  1.3623
  638TIP3   OH2 1919   6.305   1.540   0.882 -0.0425  0.1139 -0.7369
  638TIP3    H1 1920   6.362   1.614   0.861  0.2181  0.6674  1.6853
  638TIP3    H2 1921   6.327   1.517   0.972 -1.7085 -1.4894 -0.6826
  639TIP3   OH2 1922   3.485   5.844   3.251 -0.8983 -0.3478 -0.0448
  639TIP3    H1 1923   3.564   5.822   3.301 -1.0118  2.0091  1.3432
  639TIP3    H2 1924   3.513   5.843   3.160  0.0809 -1.9382  0.2391
  640TIP3   OH2 1925   6.178   4.740   3.367  0.2088 -0.0788 -0.2262
  640TIP3    H1 1926   6.228   4.744   3.449 -1.6683 -1.2825  1.0384
  640TIP3    H2 1927   6.111   4.807   3.377  0.1662 -0.0027 -0.9577
  641TIP3   OH2 1928   3.940   0.499   1.889 -0.3153 -0.0414 -0.4116
  641TIP3    H1 1929   4.009   0.438   1.862  0.3912  0.7062 -0.3374
  641TIP3    H2 1930   3.975   0.539   1.969 -0.3457  1.1670 -0.9970
  642TIP3   OH2 1931   2.998   2.619   4.837 -0.4757 -0.0691 -0.1810
  642TIP3    H1 1932   3.021   2.706   4.806 -2.9399  1.3679  1.7061
  642TIP3    H2 1933   2.912   2.602   4.798 -0.4453 -1.2668  0.2430
  643TIP3   OH2 1934   1.348   3.717   0.795 -0.2895 -0.5537  0.5281
  643TIP3    H1 1935   1.307   3.677   0.718  0.2121 -0.3930  0.1732
  643TIP3    H2 1936   1.365   3.643   0.853 -0.1664 -0.7487  0.2485
  644TIP3   OH2 1937   4.061   3.189   2.006  0.2598 -0.2687  0.2842
  644TIP3    H1 1938   4.003   3.265   2.002  0.7545  0.0732 -2.2997
  644TIP3    H2 1939   4.009   3.118   1.968  0.6033 -0.6306  0.4945
  645TIP3   OH2 1940   2.452   2.408   3.255  0.0134 -0.1469  0.4106
  645TIP3    H1 1941   2.486   2.444   3.336 -1.9201  1.1800  0.6971
  645TIP3    H2 1942   2.516   2.342   3.229  1.9242  1.0867  1.7097
  646TIP3   OH2 1943   5.522   2.018   0.808 -0.0309 -0.3073 -0.6765
  646TIP3    H1 1944   5.536   2.106   0.774  0.1745 -0.5451 -1.2144
  646TIP3    H2 1945   5.553   1.960   0.738 -0.6607 -0.8121 -0.5410
  647TIP3   OH2 1946   3.140   1.160   4.742 -0.2555 -0.0715  0.3093
  647TIP3    H1 1947   3.133   1.077   4.695 -1.5535  1.2295 -2.0196
  647TIP3    H2 1948   3.050   1.193   4.745  0.4128  2.0380 -0.4892
  648TIP3   OH2 1949   4.386   2.887   4.793  0.6567 -0.2079 -0.2055
  648TIP3    H1 1950   4.325   2.851   4.857  0.9045  1.2381  0.8913
  648TIP3    H2 1951   4.469   2.841   4.811  0.6639  0.0208  0.3662
  649TIP3   OH2 1952   2.048   4.163   1.580  0.1526  0.1309 -0.1539
  649TIP3    H1 1953   2.098   4.111   1.643 -1.4520 -0.3117  0.8205
  649TIP3    H2 1954   1.957   4.149   1.605 -0.6186 -0.7339 -3.1087
  650TIP3   OH2 1955  -0.021   0.778   2.393  0.2250  0.0727  0.5008
  650TIP3    H1 1956  -0.019   0.729   2.475 -0.9112 -0.0092  0.4991
  650TIP3    H2 1957   0.052   0.743   2.342  1.1958  0.4050  1.6176
  651TIP3   OH2 1958   0.510   2.051   2.034 -0.1787 -0.1034  0.1202
  651TIP3    H1 1959   0.532   2.098   1.954  0.9798  0.1420  0.5672
  651TIP3    H2 1960   0.544   2.105   2.105 -0.6999 -0.5884  0.7603
  652TIP3   OH2 1961   0.825   1.913   0.790  0.6606 -0.0118 -0.4169
  652TIP3    H1 1962   0.846   1.970   0.716  1.4901 -1.7325 -1.5643
  652TIP3    H2 1963   0.818   1.973   0.864 -0.4622  1.8211 -1.8767
  653TIP3   OH2 1964   4.266   0.533   2.355  0.5334  0.4252  0.0596
  653TIP3    H1 1965   4.292   0.616   2.395  1.5112 -0.3312  1.0786
  653TIP3    H2 1966   4.256   0.473   2.429 -2.7984  0.2391 -0.3880
  654TIP3   OH2 1967   1.873   3.407   4.849 -0.0214 -0.5453  0.0652
  654TIP3    H1 1968   1.829   3.332   4.889 -0.4881 -0.2817  0.0526
  654TIP3    H2 1969   1.959   3.409   4.891 -0.5510 -0.1958  1.1612
  655TIP3   OH2 1970   1.256   1.092   1.221  0.5715  0.1423  0.8409
  655TIP3    H1 1971   1.174   1.086   1.272  1.6958  0.9144  2.8655
  655TIP3    H2 1972   1.306   1.015   1.250  0.5427 -0.3831 -0.4683
  656TIP3   OH2 1973   3.284   3.249   0.745  0.1988 -0.3234  0.3992
  656TIP3    H1 1974   3.362   3.202   0.717  1.7777  2.5550 -0.4274
  656TIP3    H2 1975   3.316   3.334   0.774 -2.6681  1.2786 -0.7153
  657TIP3   OH2 1976   3.464   1.000   2.142  0.1134  0.7152  0.7696
  657TIP3    H1 1977   3.409   1.073   2.111 -0.4245  0.5613  1.3461
  657TIP3    H2 1978   3.439   0.988   2.233 -0.0235 -0.3990  0.5979
  658TIP3   OH2 1979   0.856   4.112   2.670 -0.7254 -0.7406 -0.3663
  658TIP3    H1 1980   0.919   4.184   2.666 -2.4012  0.8758  0.6691
  658TIP3    H2 1981   0.893   4.044   2.614  1.9096  0.1191  0.1972
  659TIP3   OH2 1982   5.034   3.007   4.945 -0.2071 -0.0005 -0.3204
  659TIP3    H1 1983   4.976   3.018   5.020  0.1545  0.8593 -0.1481
  659TIP3    H2 1984   5.059   2.915   4.947 -2.5791 -0.7459 -1.1762
  660TIP3   OH2 1985   3.637   3.351   0.959  0.6437 -0.0290 -0.2239
  660TIP3    H1 1986   3.690   3.420   0.920  0.7568  0.3857  0.6466
  660TIP3    H2 1987   3.698   3.302   1.014  0.5680 -0.8333 -0.8416
  661TIP3   OH2 1988   0.817   4.707   1.954 -0.2014  0.0728 -0.2143
  661TIP3    H1 1989   0.853   4.624   1.923 -0.0000 -0.1663  0.6206
  661TIP3    H2 1990   0.783   4.750   1.876  2.1276  0.4356 -1.0971
  662TIP3   OH2 1991   0.978   0.588   1.999  0.4576 -0.5901  0.0367
  662TIP3    H1 1992   0.975   0.673   2.042 -1.8921  0.4909 -1.9562
  662TIP3    H2 1993   0.963   0.525   2.069 -2.8775  1.0347  1.0379
  663TIP3   OH2 1994   3.054   5.658   2.931  0.2066 -0.8712  0.2112
  663TIP3    H1 1995   3.063   5.747   2.966  0.5412 -1.1750  0.9175
  663TIP3    H2 1996   3.131   5.611   2.964  0.3153 -1.2787 -0.6122
  664TIP3   OH2 1997   4.347   1.421   3.985  0.1360 -0.4319  0.3189
  664TIP3    H1 1998   4.438   1.417   3.956 -0.0205  0.2258 -0.2812
  664TIP3    H2 1999   4.328   1.333   4.018  1.0696 -0.4931  0.7062
  665TIP3   OH2 2000   1.343   3.790   1.213 -0.0564  0.2355 -0.6537
  665TIP3    H1 2001   1.270   3.844   1.244 -0.1309 -0.3859  0.3218
  665TIP3    H2 2002   1.303   3.725   1.156 -0.1328  0.4502 -0.8478
  666TIP3   OH2 2003   4.534   4.560   2.340 -0.0538  0.5675  0.1735
  666TIP3    H1 2004   4.523   4.466   2.353 -1.7890  0.8373  0.8709
  666TIP3    H2 2005   4.491   4.578   2.256  1.4896  0.5578 -0.6570
  667TIP3   OH2 2006   4.716   3.511   1.694  0.2759  0.0171 -0.1059
  667TIP3    H1 2007   4.811   3.503   1.696  0.3688  0.9838  1.9164
  667TIP3    H2 2008   4.686   3.430   1.653  1.9590 -0.2643 -0.8625
  668TIP3   OH2 2009   3.916   0.428   2.916 -0.0125 -0.1702 -0.5566
  668TIP3    H1 2010   3.926   0.354   2.857 -1.4229 -1.3397  0.5816
  668TIP3    H2 2011   3.822   0.445   2.918  0.0838  0.3395  0.7305
  669TIP3   OH2 2012   3.523   3.253   0.102  0.2016 -0.4581 -0.3844
  669TIP3    H1 2013   3.468   3.303   0.042  1.4174  1.3143 -0.1092
  669TIP3    H2 2014   3.470   3.176   0.125 -0.1914 -1.4693 -3.9803
  670TIP3   OH2 2015   5.073   1.809   4.541  0.4179  0.1735  0.3083
  670TIP3    H1 2016   5.058   1.721   4.507  0.8171  0.1807  0.1099
  670TIP3    H2 2017   5.006   1.820   4.608 -0.2085  0.0538 -0.2789
  671TIP3   OH2 2018   5.095   5.321   0.458 -0.2510 -0.4008  0.2894
  671TIP3    H1 2019   5.094   5.365   0.373 -1.8407 -1.0881 -0.0790
  671TIP3    H2 2020   5.005   5.330   0.491  0.1888 -0.6792  1.6240
  672TIP3   OH2 2021   4.321   4.166   3.673  0.3430 -0.0262  0.2140
  672TIP3    H1 2022   4.299   4.155   3.766 -1.8765  0.9440 -0.1553
  672TIP3    H2 2023   4.355   4.255   3.667  0.1043  0.0492  0.0095
  673TIP3   OH2 2024   1.160   0.503   2.888  0.6615 -0.6935  0.3507
  673TIP3    H1 2025   1.222   0.518   2.960  1.3439  0.6589 -0.4894
  673TIP3    H2 2026   1.101   0.578   2.892  1.4544  0.0566 -1.2292
  674TIP3   OH2 2027   1.361   2.284   4.213  0.4703 -0.2786  0.3638
  674TIP3    H1 2028   1.406   2.365   4.237  0.4498  0.7396 -2.6032
  674TIP3    H2 2029   1.430   2.220   4.202  0.6833 -0.1241  0.7810
  675TIP3   OH2 2030   1.802   1.571   1.046 -0.2661 -0.2986  0.3381
  675TIP3    H1 2031   1.832   1.481   1.033 -0.9429 -0.7843  1.9397
  675TIP3    H2 2032   1.856   1.605   1.117 -0.4306  0.3543  0.1597
  676TIP3   OH2 2033   2.910   2.743   2.926  0.4939  0.4107 -0.2345
  676TIP3    H1 2034   2.950   2.827   2.950 -0.5580 -0.0575  3.6946
  676TIP3    H2 2035   2.817   2.763   2.916  0.3615 -0.1388 -0.1126
  677TIP3   OH2 2036   1.633   5.744   3.989  0.2600 -0.2734  0.2331
  677TIP3    H1 2037   1.627   5.834   4.022 -0.9161 -0.3565  0.3134
  677TIP3    H2 2038   1.662   5.692   4.064 -0.5573 -0.1799  0.6246
  678TIP3   OH2 2039   2.131   0.164   2.887  0.1451 -0.3831  0.3149
  678TIP3    H1 2040   2.124   0.238   2.947 -0.0085 -0.1701  0.0389
  678TIP3    H2 2041   2.181   0.199   2.813 -0.1822 -0.4657  0.0508
  679TIP3   OH2 2042   3.823   3.779   4.056 -0.2374 -0.2818  0.6913
  679TIP3    H1 2043   3.753   3.721   4.026 -0.4257 -0.5357  1.6133
  679TIP3    H2 2044   3.900   3.722   4.061  0.0531 -0.0089 -0.2973
  680TIP3   OH2 2045   5.889   1.591   3.862  0.1741 -0.3531  0.3331
  680TIP3    H1 2046   5.910   1.563   3.773 -1.7397 -0.6138 -0.0827
  680TIP3    H2 2047   5.906   1.514   3.916 -0.8695 -0.9758 -0.1798
  681TIP3   OH2 2048   1.727   2.505   2.843  0.5674 -0.0795 -0.5200
  681TIP3    H1 2049   1.690   2.419   2.864 -0.6582  0.5314 -0.0967
  681TIP3    H2 2050   1.726   2.509   2.748  0.0765 -0.2987 -0.5248
  682TIP3   OH2 2051   0.169   2.092   3.327 -0.5800  0.1032 -0.1436
  682TIP3    H1 2052   0.202   2.012   3.366  1.5165  1.7275  1.6944
  682TIP3    H2 2053   0.124   2.064   3.247  1.1438 -2.7276 -0.2315
  683TIP3   OH2 2054   6.266   3.202   3.992  0.5530 -0.1572 -0.7726
  683TIP3    H1 2055   6.307   3.276   3.949  0.7092 -0.0062 -0.3679
  683TIP3    H2 2056   6.206   3.241   4.055  0.7661 -0.3725 -0.4327
  684TIP3   OH2 2057   4.499   5.431   1.125 -0.2170  0.1643 -0.1680
  684TIP3    H1 2058   4.479   5.480   1.205 -0.0496  0.7756 -0.5025
  684TIP3    H2 2059   4.590   5.453   1.105  0.2353 -1.1504  0.2995
  685TIP3   OH2 2060   0.512   0.107   3.432 -0.4186  0.0649  0.8794
  685TIP3    H1 2061   0.425   0.135   3.404 -1.6168  0.7079  4.7035
  685TIP3    H2 2062   0.573   0.167   3.388 -1.6337 -1.0957 -2.7682
  686TIP3   OH2 2063   2.666   0.683   4.281  0.2868 -0.3693  0.3116
  686TIP3    H1 2064   2.737   0.624   4.306  1.4634  0.1769 -1.5667
  686TIP3    H2 2065   2.677   0.697   4.187 -1.1427  1.2749  0.3237
  687TIP3   OH2 2066   1.253   5.777   4.530 -0.5303  0.1673 -0.3575
  687TIP3    H1 2067   1.318   5.817   4.472  0.3313  0.2217  0.6214
  687TIP3    H2 2068   1.198   5.851   4.557 -0.2861  0.3189 -0.2696
  688TIP3   OH2 2069   2.510   2.829   0.041  0.2737  0.0429  0.1903
  688TIP3    H1 2070   2.502   2.879   0.122 -1.3600 -0.5053  0.4049
  688TIP3    H2 2071   2.469   2.745   0.060  2.0581 -1.0504 -0.4718
  689TIP3   OH2 2072   1.693   3.236   4.294 -0.0892 -0.0439  0.7025
  689TIP3    H1 2073   1.637   3.159   4.298  0.2352 -0.5162 -2.0215
  689TIP3    H2 2074   1.633   3.308   4.271  0.0606 -0.0978  0.1324
  690TIP3   OH2 2075   0.572   5.631   3.988 -0.4862  0.0713 -0.1043
  690TIP3    H1 2076   0.481   5.644   3.961 -0.2548 -2.2651 -2.3714
  690TIP3    H2 2077   0.622   5.635   3.906  1.1083 -1.0789  0.7576
  691TIP3   OH2 2078   2.533   2.636   4.568  0.3610 -0.3524 -0.1523
  691TIP3    H1 2079   2.618   2.661   4.532  0.6756 -1.2597 -0.0675
  691TIP3    H2 2080   2.476   2.627   4.492  0.0947  1.0485 -0.1596
  692TIP3   OH2 2081   3.127   3.318   1.894 -0.5589  0.5684 -0.4688
  692TIP3    H1 2082   3.106   3.390   1.954  1.2725  1.3400 -0.6861
  692TIP3    H2 2083   3.120   3.357   1.807  0.9277  0.6600 -0.5703
  693TIP3   OH2 2084   4.084   5.898   1.322  0.0433 -0.2586 -0.0795
  693TIP3    H1 2085   4.003   5.848   1.318 -0.9024  1.1886  0.2714
  693TIP3    H2 2086   4.060   5.979   1.368  1.8172 -0.0416  0.5332
  694TIP3   OH2 2087   0.671   4.548   1.577 -0.2186 -0.3184  0.1886
  694TIP3    H1 2088   0.642   4.479   1.517  0.9506 -0.6007 -0.0928
  694TIP3    H2 2089   0.591   4.583   1.614 -0.8714 -1.4478 -0.0998
  695TIP3   OH2 2090   0.256   1.232   4.247  0.0069  0.3740  0.1375
  695TIP3    H1 2091   0.291   1.202   4.163 -0.6106  0.9369 -0.3309
  695TIP3    H2 2092   0.187   1.295   4.223 -2.1333 -1.5178  0.9729
  696TIP3   OH2 2093   5.412   2.433   3.668 -0.3374 -0.0986 -0.8253
  696TIP3    H1 2094   5.450   2.377   3.735 -0.4670 -0.3380 -0.9537
  696TIP3    H2 2095   5.355   2.493   3.716  0.9085  0.8803 -0.5119
  697TIP3   OH2 2096   2.075   5.435   0.957  0.0194  0.2029 -0.3343
  697TIP3    H1 2097   2.080   5.528   0.980 -1.6161  0.5186 -1.1235
  697TIP3    H2 2098   2.041   5.434   0.868 -2.2393 -1.1893  0.4695
  698TIP3   OH2 2099   2.207   2.584   3.802  0.2253 -0.1402 -0.2236
  698TIP3    H1 2100   2.299   2.604   3.784  0.0304  0.8026 -0.1914
  698TIP3    H2 2101   2.207   2.491   3.827  0.9533 -0.6029 -1.8008
  699TIP3   OH2 2102   2.830   3.093   4.474  0.1292 -0.4769 -0.0699
  699TIP3    H1 2103   2.829   3.156   4.401  1.1999 -0.6675 -0.2698
  699TIP3    H2 2104   2.793   3.142   4.548  0.8028  0.3553 -0.2640
  700TIP3   OH2 2105   1.207   5.572   1.135 -0.4887  0.0752  0.4652
  700TIP3    H1 2106   1.274   5.582   1.066  0.0963 -2.7638  0.4968
  700TIP3    H2 2107   1.134   5.530   1.091 -0.7213 -0.3529  1.2421
  701TIP3   OH2 2108   5.027   3.728   3.220  0.4047 -0.5251  0.2024
  701TIP3    H1 2109   5.054   3.636   3.222  2.4415  0.0084 -0.4282
  701TIP3    H2 2110   5.065   3.763   3.140  1.3729  1.3332  1.3912
  702TIP3   OH2 2111   3.253   1.502   2.532 -0.1491 -0.0614 -1.2747
  702TIP3    H1 2112   3.214   1.508   2.619  0.4855 -0.2208 -0.9706
  702TIP3    H2 2113   3.267   1.593   2.506  0.2898 -0.0241 -0.9161
  703TIP3   OH2 2114   1.846   0.241   4.848 -0.0839 -0.7704 -0.2350
  703TIP3    H1 2115   1.896   0.159   4.848 -0.0489 -0.9614 -4.3038
  703TIP3    H2 2116   1.909   0.307   4.819 -0.9251 -0.0050 -0.3433
  704TIP3   OH2 2117   3.113   4.287   2.840  0.1745 -0.1280 -0.0238
  704TIP3    H1 2118   3.087   4.351   2.905  0.5076  0.5836 -0.5851
  704TIP3    H2 2119   3.030   4.251   2.808  0.0078 -2.3122  2.5235
  705TIP3   OH2 2120   4.138   3.609   0.217  0.2562 -0.0238  0.6860
  705TIP3    H1 2121   4.155   3.663   0.140 -0.2969  0.2567  0.7577
  705TIP3    H2 2122   4.112   3.524   0.181  0.0391  0.0938  0.5630
  706TIP3   OH2 2123   6.055   2.567   3.615 -0.1059  0.3621  0.0180
  706TIP3    H1 2124   6.027   2.508   3.684  0.0749  0.3585  0.0890
  706TIP3    H2 2125   6.065   2.511   3.538  0.5314  0.2112  0.2023
  707TIP3   OH2 2126   2.941   2.263   4.748  0.2728 -0.4764 -0.0327
  707TIP3    H1 2127   2.909   2.316   4.821  2.5807 -2.1495  2.3741
  707TIP3    H2 2128   3.020   2.308   4.719 -0.3755 -0.0801 -1.2662
  708TIP3   OH2 2129   4.974   0.317   2.511  0.1654  0.2331  0.5268
  708TIP3    H1 2130   4.971   0.388   2.575  1.0950  0.9935 -0.2357
  708TIP3    H2 2131   5.063   0.322   2.475  0.1582 -1.1535  0.2638
  709TIP3   OH2 2132   0.580   3.534   3.355  0.4760  0.0266  0.3340
  709TIP3    H1 2133   0.567   3.548   3.262  2.1098  1.1854  0.2448
  709TIP3    H2 2134   0.536   3.451   3.374  1.4401 -1.0239 -1.7728
  710TIP3   OH2 2135   1.671   1.769   4.779 -0.0099 -0.4176 -1.2393
  710TIP3    H1 2136   1.612   1.703   4.741  1.7818 -1.4812 -2.2807
  710TIP3    H2 2137   1.704   1.728   4.859 -0.8406  0.2882 -0.5110
  711TIP3   OH2 2138   2.374   1.435   1.520 -0.1726 -0.0609  0.0171
  711TIP3    H1 2139   2.364   1.475   1.607  0.8346  0.2612 -0.0023
  711TIP3    H2 2140   2.367   1.341   1.536 -2.2352  0.0549  0.1117
  712TIP3   OH2 2141   1.629   3.834   2.069  0.5653  0.1912 -0.4089
  712TIP3    H1 2142   1.646   3.832   1.974 -0.2977  1.7663 -0.6349
  712TIP3    H2 2143   1.716   3.844   2.108  0.8728  0.2329 -1.0873
  713TIP3   OH2 2144   5.322   1.998   1.217 -0.1889 -0.5909 -0.5668
  713TIP3    H1 2145   5.413   2.013   1.245 -0.8263  0.4516  1.0804
  713TIP3    H2 2146   5.315   2.045   1.134  0.6502 -0.2394 -0.4542
  714TIP3   OH2 2147   1.995   2.432   2.860 -0.3167  0.4899 -0.9434
  714TIP3    H1 2148   1.902   2.437   2.838 -0.3871  0.6434 -0.6303
  714TIP3    H2 2149   2.019   2.342   2.842 -0.9234  0.0043  0.4658
  715TIP3   OH2 2150   4.365   4.085   5.002 -0.0649 -0.5862 -0.1009
  715TIP3    H1 2151   4.311   4.156   5.036 -1.0061 -1.5967  0.5886
  715TIP3    H2 2152   4.305   4.012   4.992  1.2268 -1.8480  0.9685
  716TIP3   OH2 2153   5.769   3.240   4.736  0.1094 -0.0694  0.0084
  716TIP3    H1 2154   5.747   3.284   4.654 -1.1655  0.3657  0.5577
  716TIP3    H2 2155   5.850   3.193   4.717  1.5785  2.4980 -0.6160
  717TIP3   OH2 2156   2.811   2.663   4.104  0.1904 -0.3697 -0.0934
  717TIP3    H1 2157   2.901   2.674   4.134 -0.0096 -1.9732  1.2927
  717TIP3    H2 2158   2.771   2.748   4.118  1.3452  0.2082 -0.1925
  718TIP3   OH2 2159   2.623   1.571   3.455  0.6317 -0.1502 -0.6165
  718TIP3    H1 2160   2.646   1.641   3.516 -0.4623 -0.1644 -0.1673
  718TIP3    H2 2161   2.707   1.535   3.426  1.2287  1.4319 -0.9632
  719TIP3   OH2 2162   2.475   2.016   0.752  0.1252 -0.3309  0.4023
  719TIP3    H1 2163   2.386   2.041   0.778 -0.0592 -0.3201 -0.2291
  719TIP3    H2 2164   2.513   1.977   0.831 -0.2029  0.2861  0.8706
  720TIP3   OH2 2165   3.327   3.945   4.019 -0.2711 -0.3793 -0.2154
  720TIP3    H1 2166   3.249   3.988   4.053 -1.3243 -0.0865 -2.7857
  720TIP3    H2 2167   3.297   3.859   3.989  0.2293 -0.0420 -1.7600
  721TIP3   OH2 2168   3.398   3.426   4.467  0.1806 -0.0629 -0.4740
  721TIP3    H1 2169   3.380   3.335   4.447  0.5892  0.2105 -2.3258
  721TIP3    H2 2170   3.482   3.443   4.423 -0.2614  1.3819 -0.8054
  722TIP3   OH2 2171   2.659   1.890   0.916  0.0661 -0.0489  0.3808
  722TIP3    H1 2172   2.687   1.800   0.930  2.9394  0.6971  0.0162
  722TIP3    H2 2173   2.700   1.940   0.986  1.4638  1.4256 -1.3803
  723TIP3   OH2 2174   2.934   0.588   0.786  0.1444  0.4981  0.0268
  723TIP3    H1 2175   2.978   0.598   0.701  1.4475  1.7882  0.8090
  723TIP3    H2 2176   2.942   0.495   0.806 -0.4398  0.1146 -1.3728
  724TIP3   OH2 2177   0.047   4.367   3.912  0.1483  0.0639 -0.2840
  724TIP3    H1 2178   0.079   4.455   3.931  0.2031  0.0594 -0.3517
  724TIP3    H2 2179   0.103   4.310   3.966 -0.5353  0.1360  0.5169
  725TIP3   OH2 2180   0.257   3.257   3.827  0.0508 -0.4353  0.1668
  725TIP3    H1 2181   0.183   3.209   3.791 -0.2305  0.6197 -0.7189
  725TIP3    H2 2182   0.334   3.213   3.792 -0.0862 -2.0482  1.7389
  726TIP3   OH2 2183   5.956   0.170   5.221  0.8585 -0.0713 -0.1921
  726TIP3    H1 2184   5.935   0.135   5.134 -1.5111 -0.1039  0.3123
  726TIP3    H2 2185   6.027   0.232   5.206  1.3417 -0.9830 -1.9495
  727TIP3   OH2 2186   4.104   1.958   4.477 -0.7022  0.1405 -0.3013
  727TIP3    H1 2187   4.193   1.927   4.463 -0.6137 -0.6984  1.7890
  727TIP3    H2 2188   4.094   2.032   4.417  0.9910 -0.4755 -1.3939
  728TIP3   OH2 2189   5.700   3.689   2.931  0.7926 -0.4121 -0.5561
  728TIP3    H1 2190   5.768   3.757   2.932  0.7398 -0.3590  0.3653
  728TIP3    H2 2191   5.736   3.617   2.982 -0.3546  0.1618  1.1718
  729TIP3   OH2 2192   1.255   1.371   3.107 -0.0859 -0.1873 -0.5829
  729TIP3    H1 2193   1.165   1.345   3.125 -0.1828  0.0635 -0.6979
  729TIP3    H2 2194   1.307   1.322   3.170  0.0699 -3.0825 -2.7698
  730TIP3   OH2 2195   2.025   0.401   2.246  0.5057  0.0544 -0.6181
  730TIP3    H1 2196   2.117   0.415   2.222  1.0398 -0.7766  0.8045
  730TIP3    H2 2197   1.988   0.489   2.250  1.0666  0.3624 -1.8193
  731TIP3   OH2 2198   4.406   4.883   2.762  0.1991 -0.0656  0.1602
  731TIP3    H1 2199   4.438   4.902   2.851 -1.2995  2.2581  0.2719
  731TIP3    H2 2200   4.399   4.968   2.720 -0.6662 -0.9869 -1.6732
  732TIP3   OH2 2201   2.429   3.461   5.185 -0.3243  0.1738  0.2678
  732TIP3    H1 2202   2.408   3.374   5.153 -2.5616  0.8499 -0.2333
  732TIP3    H2 2203   2.445   3.513   5.106  2.7392 -0.0901  0.5827
  733TIP3   OH2 2204   0.070   3.105   2.659 -0.3006 -0.2000 -0.1837
  733TIP3    H1 2205   0.160   3.100   2.690 -0.0210  0.0764 -0.9181
  733TIP3    H2 2206   0.073   3.070   2.570 -1.3143 -2.1678  0.4913
  734TIP3   OH2 2207   5.721   3.845   0.805 -0.5372 -0.0065  0.0711
  734TIP3    H1 2208   5.653   3.905   0.773 -0.4634  0.7598  1.2980
  734TIP3    H2 2209   5.804   3.890   0.785 -0.4676  0.1114  0.6188
  735TIP3   OH2 2210   4.477   1.692   2.158  0.7017  0.2614  0.0503
  735TIP3    H1 2211   4.529   1.661   2.232 -0.3981  1.0970  1.2250
  735TIP3    H2 2212   4.386   1.681   2.186  0.2144 -0.4622 -1.6500
  736TIP3   OH2 2213   1.256   1.221   2.213 -0.3155 -0.1061  0.0704
  736TIP3    H1 2214   1.322   1.224   2.144 -0.1720  1.2905  0.2275
  736TIP3    H2 2215   1.283   1.289   2.275 -2.6443  1.5552 -0.5851
  737TIP3   OH2 2216   2.482   4.232   1.758 -0.1528 -0.2694 -0.0238
  737TIP3    H1 2217   2.563   4.281   1.743 -0.4442  0.0083 -0.7170
  737TIP3    H2 2218   2.438   4.280   1.828  0.0811 -0.1766  0.0610
  738TIP3   OH2 2219   4.377   3.374   0.863  0.0585  0.6684  0.2467
  738TIP3    H1 2220   4.423   3.292   0.846  0.6524  1.0500 -0.0284
  738TIP3    H2 2221   4.362   3.411   0.776 -4.0891 -1.1610 -0.0591
  739TIP3   OH2 2222   1.718   5.026   0.769 -0.4412  0.4700 -0.0046
  739TIP3    H1 2223   1.785   4.975   0.722 -1.2008 -1.4249  0.8934
  739TIP3    H2 2224   1.763   5.107   0.793  1.7139 -0.9228  0.9544
  740TIP3   OH2 2225   3.619   4.441   3.227  0.3037  0.0609 -0.2615
  740TIP3    H1 2226   3.628   4.347   3.212 -0.4514  0.0825 -0.9217
  740TIP3    H2 2227   3.534   4.451   3.269  1.5550  0.2034  2.4011
  741TIP3   OH2 2228   3.613   1.248   2.765  0.0222  0.3966  0.2902
  741TIP3    H1 2229   3.553   1.260   2.691 -1.1380 -1.8786  0.7502
  741TIP3    H2 2230   3.637   1.336   2.791 -0.9123  1.3076 -1.7020
  742TIP3   OH2 2231   3.729   5.866   4.337  0.4090  0.4637  0.0778
  742TIP3    H1 2232   3.776   5.931   4.389 -0.8562  2.2539 -0.9141
  742TIP3    H2 2233   3.664   5.829   4.397  1.3400 -0.1922  0.7319
  743TIP3   OH2 2234   5.678   4.606   0.759 -0.6225  0.4061 -0.0208
  743TIP3    H1 2235   5.698   4.676   0.697 -0.7931  0.2560 -0.2421
  743TIP3    H2 2236   5.631   4.650   0.830 -2.5481  0.1902 -1.1001
  744TIP3   OH2 2237   1.039   4.455   1.552 -0.1155 -0.2392 -0.0465
  744TIP3    H1 2238   1.003   4.458   1.640 -0.9378 -0.1426 -0.3734
  744TIP3    H2 2239   0.994   4.381   1.510  0.8397 -0.7701 -0.1410
  745TIP3   OH2 2240   5.911   1.128   2.623 -0.9617 -0.1484 -0.5070
  745TIP3    H1 2241   5.886   1.104   2.713 -0.7792 -0.6314 -0.5814
  745TIP3    H2 2242   6.006   1.121   2.623 -0.8672  1.0025 -0.4178
  746TIP3   OH2 2243   1.455   3.663   2.817  0.3547  0.1971 -0.2882
  746TIP3    H1 2244   1.418   3.746   2.785  2.8845  1.3215 -0.5325
  746TIP3    H2 2245   1.456   3.606   2.739  0.3366  0.6045 -0.5916
  747TIP3   OH2 2246   2.207   1.853   1.164 -0.3223  0.5103  0.8093
  747TIP3    H1 2247   2.149   1.929   1.172  0.1485  0.9372  0.2595
  747TIP3    H2 2248   2.154   1.787   1.121 -0.2227  1.1077 -0.2644
  748TIP3   OH2 2249   1.968   1.682   3.820  0.0822 -0.7452  0.2847
  748TIP3    H1 2250   2.053   1.639   3.811  1.8087  2.2354  1.0328
  748TIP3    H2 2251   1.952   1.724   3.736 -1.7883 -2.9864 -0.5815
  749TIP3   OH2 2252   2.847   0.821   4.634  0.3470  0.3522 -0.2338
  749TIP3    H1 2253   2.841   0.727   4.615 -0.2261  0.4057 -0.3446
  749TIP3    H2 2254   2.784   0.835   4.704  0.2917  0.6895 -0.3520
  750TIP3   OH2 2255   3.900   3.755   2.446  0.0396 -0.0875 -0.0301
  750TIP3    H1 2256   3.968   3.688   2.458  1.1386  1.0354  0.3278
  750TIP3    H2 2257   3.870   3.775   2.534 -1.1732 -0.9521 -0.2238
  751TIP3   OH2 2258   2.245   5.254   0.555 -0.6726 -0.1076 -0.3500
  751TIP3    H1 2259   2.176   5.263   0.620 -1.3776 -1.5705 -0.8453
  751TIP3    H2 2260   2.283   5.167   0.571  2.5385  1.4306  1.2570
  752TIP3   OH2 2261   4.757   3.616   0.179 -0.5867 -0.4697 -0.3721
  752TIP3    H1 2262   4.819   3.608   0.251 -1.2468  0.6051  0.3279
  752TIP3    H2 2263   4.786   3.549   0.116  0.9843 -0.3212  0.1380
  753TIP3   OH2 2264   4.242   0.078   4.151  0.0676 -0.2777 -0.0256
  753TIP3    H1 2265   4.302   0.039   4.087 -0.1077  0.7005 -0.8121
  753TIP3    H2 2266   4.287   0.156   4.182 -0.5965  0.2171 -0.2841
  754TIP3   OH2 2267   5.344   2.949   1.638 -0.3392 -0.7079  0.3793
  754TIP3    H1 2268   5.311   3.039   1.643 -1.3657 -0.9253 -1.4650
  754TIP3    H2 2269   5.367   2.927   1.728 -2.1110  0.6599  1.2496
  755TIP3   OH2 2270   1.746   4.989   1.492 -0.2112  0.0848 -0.2643
  755TIP3    H1 2271   1.694   4.910   1.500  0.2897 -0.1405  0.9408
  755TIP3    H2 2272   1.684   5.061   1.504  0.0564 -0.1831  3.9558
  756TIP3   OH2 2273   5.635   4.287   0.484  0.0735 -0.1237  0.1148
  756TIP3    H1 2274   5.593   4.201   0.488 -0.0771 -0.0811 -0.4386
  756TIP3    H2 2275   5.630   4.311   0.392  0.2506  0.4147  0.2451
  757TIP3   OH2 2276   3.949   4.046   2.638 -0.0964  0.0052  0.0471
  757TIP3    H1 2277   3.890   3.973   2.656 -1.5692  0.6047 -1.9473
  757TIP3    H2 2278   3.900   4.101   2.576  1.9785  1.3373 -0.4968
  758TIP3   OH2 2279   4.155   4.528   2.117 -0.6508  0.3795 -0.1624
  758TIP3    H1 2280   4.190   4.476   2.045 -0.5241  2.6485 -1.8355
  758TIP3    H2 2281   4.060   4.528   2.103 -0.6340  0.7486 -0.2806
  759TIP3   OH2 2282   0.916   0.025   1.181 -0.2839  1.1268 -0.6423
  759TIP3    H1 2283   0.881  -0.059   1.213  0.4707  0.5078 -1.4002
  759TIP3    H2 2284   0.850   0.089   1.208 -1.3566  0.1690 -0.8707
  760TIP3   OH2 2285   5.816   1.403   1.177 -0.1422 -0.0390  0.2197
  760TIP3    H1 2286   5.822   1.402   1.081 -0.7012  0.5037  0.1692
  760TIP3    H2 2287   5.736   1.354   1.196 -0.4084  0.4470  0.3674
  761TIP3   OH2 2288   1.817   3.233   4.022 -0.0322 -0.3375 -0.3493
  761TIP3    H1 2289   1.816   3.153   3.970 -1.2476 -0.5954  0.0330
  761TIP3    H2 2290   1.804   3.203   4.112 -1.4622  0.3345 -0.3123
  762TIP3   OH2 2291   2.128   5.765   3.730  0.4408  0.2375  0.1934
  762TIP3    H1 2292   2.211   5.755   3.685  1.1169 -0.5528  1.5672
  762TIP3    H2 2293   2.072   5.812   3.668  1.6284  0.0149 -1.0730
  763TIP3   OH2 2294   5.256   3.124   2.978  0.1299 -0.0195  0.0621
  763TIP3    H1 2295   5.227   3.118   2.887  1.0307  1.1522 -0.3271
  763TIP3    H2 2296   5.290   3.037   2.998  1.0902  0.0639 -1.1371
  764TIP3   OH2 2297   6.125   1.455   2.899 -0.6639  0.0121  0.1140
  764TIP3    H1 2298   6.185   1.446   2.824  0.8998  3.2002  0.7960
  764TIP3    H2 2299   6.179   1.435   2.975 -0.6338  1.9781  0.6704
  765TIP3   OH2 2300   4.949   2.896   2.742  0.3196 -0.4460 -0.0762
  765TIP3    H1 2301   4.976   2.969   2.687  1.4276 -1.4010 -0.8531
  765TIP3    H2 2302   4.886   2.848   2.688  1.1455 -1.1908 -0.3959
  766TIP3   OH2 2303   0.392   2.885   2.647  0.1499 -0.4198  0.1205
  766TIP3    H1 2304   0.384   2.860   2.739  1.9734 -0.8038  0.2078
  766TIP3    H2 2305   0.386   2.980   2.647  0.5738 -0.3914  0.6877
  767TIP3   OH2 2306   5.341   3.382   0.864 -0.2380  0.0655  0.2836
  767TIP3    H1 2307   5.429   3.419   0.877 -0.6220  1.2700 -0.4249
  767TIP3    H2 2308   5.320   3.341   0.948 -0.3163  2.6106  1.6214
  768TIP3   OH2 2309   1.592   5.156   4.591  0.3238 -0.1127 -0.3894
  768TIP3    H1 2310   1.496   5.163   4.598  0.2241 -0.0906 -1.5701
  768TIP3    H2 2311   1.621   5.141   4.681 -0.7032  0.9114  0.1526
  769TIP3   OH2 2312   5.227   0.302   4.925 -0.4804 -0.3985 -0.0086
  769TIP3    H1 2313   5.293   0.307   4.994 -0.1253 -0.5399 -0.3315
  769TIP3    H2 2314   5.271   0.256   4.853 -1.3133 -1.5866  0.2180
  770TIP3   OH2 2315   1.546   4.341   1.829 -0.0574 -0.0368 -0.2849
  770TIP3    H1 2316   1.551   4.249   1.855  0.3023 -0.3354 -1.3670
  770TIP3    H2 2317   1.539   4.389   1.912  1.3859 -0.9123  0.3819
  771TIP3   OH2 2318   1.909   1.870   0.475 -0.1188  0.5146  0.0473
  771TIP3    H1 2319   1.820   1.858   0.508 -0.7189 -0.3327 -1.7806
  771TIP3    H2 2320   1.914   1.815   0.397  0.8992  3.1182 -1.8717
  772TIP3   OH2 2321   3.447   0.686   3.574  0.4393  0.2166 -0.1986
  772TIP3    H1 2322   3.492   0.634   3.641  0.6352  1.1572  0.4265
  772TIP3    H2 2323   3.363   0.643   3.564  1.0980 -1.0143 -0.6911
  773TIP3   OH2 2324   4.881   4.915   3.429 -0.3746 -0.3767 -0.2469
  773TIP3    H1 2325   4.902   4.978   3.360  0.9459 -2.4488 -1.8983
  773TIP3    H2 2326   4.806   4.952   3.475  0.7519  2.6576 -0.6689
  774TIP3   OH2 2327   0.919   4.134   0.768 -0.5230  0.4051  0.0054
  774TIP3    H1 2328   0.974   4.186   0.709 -0.3934 -0.1859 -0.4034
  774TIP3    H2 2329   0.829   4.159   0.746 -0.4576  0.5482 -0.0997
  775TIP3   OH2 2330   0.296   2.804   4.046 -0.4347  0.1274  0.3294
  775TIP3    H1 2331   0.201   2.807   4.057 -0.4143 -1.0314  0.9381
  775TIP3    H2 2332   0.320   2.713   4.065  0.4729 -0.3067 -2.3996
  776TIP3   OH2 2333   1.068   4.894   2.393  0.1290 -0.6453  0.5139
  776TIP3    H1 2334   0.999   4.909   2.328 -0.3031 -0.8029  0.9346
  776TIP3    H2 2335   1.082   4.980   2.433  0.4064 -0.5441  0.2139
  777TIP3   OH2 2336   0.021   2.129   0.474  0.1947  0.4132 -0.7094
  777TIP3    H1 2337   0.050   2.207   0.521  0.5395  0.2664 -0.6817
  777TIP3    H2 2338   0.087   2.063   0.493  0.1070  0.2253 -1.0479
  778TIP3   OH2 2339   4.607   3.648   1.071  0.1777 -0.1637  0.1695
  778TIP3    H1 2340   4.533   3.595   1.100  0.3599 -0.8733 -0.6103
  778TIP3    H2 2341   4.633   3.698   1.148  0.5786 -1.8774  1.2053
  779TIP3   OH2 2342   1.199   4.315   0.108  0.0749  0.4068  0.0724
  779TIP3    H1 2343   1.269   4.250   0.109  1.1717  1.5493 -0.4532
  779TIP3    H2 2344   1.126   4.272   0.154  0.7932 -1.1378 -0.1658
  780TIP3   OH2 2345   4.543   5.154   2.776 -0.1805 -0.5372 -0.1550
  780TIP3    H1 2346   4.633   5.177   2.750  0.1263 -1.0823  0.3818
  780TIP3    H2 2347   4.554   5.109   2.860 -1.1537  1.1674  0.9366
  781TIP3   OH2 2348   4.746   1.365   3.545 -0.6116  0.5470  0.3568
  781TIP3    H1 2349   4.761   1.459   3.535 -1.0993  0.4140 -2.3422
  781TIP3    H2 2350   4.651   1.356   3.545 -0.5665 -0.0419 -0.8556
  782TIP3   OH2 2351   5.699   5.013   3.805  0.1115 -0.3263  0.4240
  782TIP3    H1 2352   5.758   5.048   3.738 -0.1648  0.5723  0.6304
  782TIP3    H2 2353   5.746   5.028   3.887 -0.5121  0.6402  0.6120
  783TIP3   OH2 2354   1.270   3.212   0.945  0.0267 -0.3943 -0.3759
  783TIP3    H1 2355   1.341   3.150   0.928  0.6583  0.2401 -0.0861
  783TIP3    H2 2356   1.260   3.211   1.041 -1.0500 -1.2351 -0.4812
  784TIP3   OH2 2357   5.617   5.140   4.188 -0.5990  0.1939 -0.5112
  784TIP3    H1 2358   5.602   5.045   4.191 -1.6441  0.3689  0.1418
  784TIP3    H2 2359   5.691   5.154   4.248  0.4262 -0.3436 -1.6044
  785TIP3   OH2 2360  -0.016   0.026   0.969 -0.3683 -0.3555 -0.2509
  785TIP3    H1 2361  -0.005  -0.066   0.992 -0.2537  0.1467  1.8519
  785TIP3    H2 2362   0.053   0.043   0.905 -0.1291 -1.6196 -0.3443
  786TIP3   OH2 2363   4.171   5.226   3.402  0.9002 -0.2418  0.4523
  786TIP3    H1 2364   4.092   5.226   3.347  0.7743  1.6293  0.5831
  786TIP3    H2 2365   4.186   5.133   3.421 -0.5814 -0.7338 -0.5425
  787TIP3   OH2 2366   2.784   5.095   5.110 -0.1472 -0.4568 -0.1782
  787TIP3    H1 2367   2.797   5.059   5.197  0.1601 -1.4013 -0.6042
  787TIP3    H2 2368   2.768   5.019   5.054 -3.4696  0.2660 -0.4324
  788TIP3   OH2 2369   4.048   5.098   0.366  0.3923 -0.0241  0.2531
  788TIP3    H1 2370   4.046   5.147   0.283 -1.3572  1.8217  1.3018
  788TIP3    H2 2371   3.973   5.040   0.362  0.3329  0.0345  0.5325
  789TIP3   OH2 2372   1.312   3.785   1.882  0.0105  0.4779  0.5771
  789TIP3    H1 2373   1.226   3.766   1.844 -0.1276  1.8871  0.1234
  789TIP3    H2 2374   1.301   3.871   1.923  1.2335  0.7238  0.4157
  790TIP3   OH2 2375   3.285   5.599   1.683 -0.1538  0.2332 -0.1949
  790TIP3    H1 2376   3.214   5.659   1.706  0.0764  0.8921 -1.1563
  790TIP3    H2 2377   3.301   5.549   1.763  0.3486  2.1405  0.9537
  791TIP3   OH2 2378   4.547   3.923   1.033  0.2054  0.2471  0.3005
  791TIP3    H1 2379   4.555   3.831   1.009  1.1418  0.3328  0.2183
  791TIP3    H2 2380   4.538   3.923   1.129 -0.7970  0.0347  0.2172
  792TIP3   OH2 2381   6.336   0.153   3.945 -0.3757 -0.1959 -0.4092
  792TIP3    H1 2382   6.259   0.096   3.941  0.2260 -0.9379 -2.0174
  792TIP3    H2 2383   6.301   0.242   3.943 -1.1953 -0.5227 -0.7958
  793TIP3   OH2 2384   2.844   0.479   4.280  0.3911 -0.0469  0.5713
  793TIP3    H1 2385   2.868   0.396   4.321  2.3971 -0.2054 -0.7868
  793TIP3    H2 2386   2.818   0.455   4.191 -1.3960  0.5486  0.9082
  794TIP3   OH2 2387   4.820   2.159   2.763 -0.3830 -0.1247 -0.6509
  794TIP3    H1 2388   4.913   2.162   2.739  0.1604  0.1547  1.2902
  794TIP3    H2 2389   4.790   2.073   2.733  0.6952 -0.5147 -0.6617
  795TIP3   OH2 2390   2.542   0.496   1.593  0.3099  0.2156 -0.0102
  795TIP3    H1 2391   2.490   0.576   1.584 -2.9325 -1.7487 -0.1680
  795TIP3    H2 2392   2.483   0.433   1.636  1.9045 -2.7825 -1.8632
  796TIP3   OH2 2393   0.809   5.365   2.947 -0.1651  0.2422 -0.4732
  796TIP3    H1 2394   0.775   5.434   2.889 -0.9707 -0.7230 -1.2060
  796TIP3    H2 2395   0.732   5.337   2.997  0.3523  0.4916  0.4667
  797TIP3   OH2 2396   0.039   5.566   3.911 -0.1525 -0.6801 -0.2837
  797TIP3    H1 2397   0.043   5.641   3.970  1.2863 -0.8981 -0.0802
  797TIP3    H2 2398   0.003   5.495   3.964 -1.8428 -0.0828 -0.5685
  798TIP3   OH2 2399   1.291   4.094   3.091 -0.2829  0.5758  0.2918
  798TIP3    H1 2400   1.350   4.166   3.071 -0.9252  0.8746 -0.6341
  798TIP3    H2 2401   1.209   4.117   3.046 -0.9917  0.0098  1.2383
  799TIP3   OH2 2402   4.272   2.294   0.326 -0.1186  0.4606  0.5219
  799TIP3    H1 2403   4.218   2.349   0.384  1.0908  1.9650  0.2924
  799TIP3    H2 2404   4.268   2.207   0.365 -1.9102  0.7337  1.0524
  800TIP3   OH2 2405   3.430   0.911   4.444  0.1662  0.2812  0.1073
  800TIP3    H1 2406   3.395   0.999   4.458  0.6155  0.0640  3.2072
  800TIP3    H2 2407   3.523   0.918   4.462  0.2844 -0.7550 -0.0255
  801TIP3   OH2 2408   6.123   4.192   0.542  0.1403  0.0084  0.5327
  801TIP3    H1 2409   6.213   4.179   0.572 -0.5043 -1.2708  2.0329
  801TIP3    H2 2410   6.092   4.268   0.592 -0.0716 -0.4689  1.1400
  802TIP3   OH2 2411   2.288   4.977   0.576 -0.2233  0.3551  0.0175
  802TIP3    H1 2412   2.243   4.952   0.496  0.9151 -2.1966  0.0847
  802TIP3    H2 2413   2.227   4.954   0.646 -0.0930 -0.0904 -0.0147
  803TIP3   OH2 2414   5.932   3.411   2.276  0.3727 -0.2288  0.0892
  803TIP3    H1 2415   5.913   3.317   2.267  1.5548 -0.4513 -0.2678
  803TIP3    H2 2416   5.846   3.451   2.287 -0.0657 -1.5192  2.0194
  804TIP3   OH2 2417   1.935   1.018   0.547  0.2300 -0.3074  0.1745
  804TIP3    H1 2418   1.947   1.015   0.452  2.0872 -1.3383  0.3803
  804TIP3    H2 2419   2.012   0.972   0.582 -0.5479 -0.1921  2.1702
  805TIP3   OH2 2420   0.508   3.803   0.257 -0.3672  0.0009 -0.1147
  805TIP3    H1 2421   0.527   3.763   0.172 -0.9961  2.3163 -1.4439
  805TIP3    H2 2422   0.593   3.828   0.292 -0.2228  2.1143 -1.7500
  806TIP3   OH2 2423   1.343   2.709   1.633  0.3449 -0.3465  0.0669
  806TIP3    H1 2424   1.399   2.657   1.576 -0.1355 -1.3733  0.5204
  806TIP3    H2 2425   1.388   2.708   1.718  0.0746 -0.4527  0.2093
  807TIP3   OH2 2426   3.926   2.462   3.507  0.2729  0.0349 -0.1332
  807TIP3    H1 2427   3.982   2.390   3.477  1.2158  0.5370  0.3667
  807TIP3    H2 2428   3.940   2.532   3.442 -1.2328 -0.4862 -1.0461
  808TIP3   OH2 2429   5.425   5.781   2.619  0.3000 -0.2684  0.3945
  808TIP3    H1 2430   5.451   5.822   2.536 -0.1107  2.0355  1.3507
  808TIP3    H2 2431   5.368   5.845   2.661  0.5822 -1.3465  2.5463
  809TIP3   OH2 2432   3.128   3.552   3.517  0.0966  0.1167 -0.1306
  809TIP3    H1 2433   3.074   3.599   3.580  0.0820  1.3815 -1.0571
  809TIP3    H2 2434   3.069   3.488   3.477 -0.5342  0.9912 -0.6101
  810TIP3   OH2 2435   3.559   4.114   0.920  0.3609  0.2171 -0.1645
  810TIP3    H1 2436   3.469   4.127   0.893  0.1537  1.0904  0.8675
  810TIP3    H2 2437   3.610   4.174   0.865  0.1283  0.8094  0.2503
  811TIP3   OH2 2438   4.581   1.271   3.999 -0.5225  0.2781  0.2911
  811TIP3    H1 2439   4.674   1.293   3.991 -0.3869  0.2015  1.4752
  811TIP3    H2 2440   4.567   1.202   3.934  0.4322 -0.2527  0.6204
  812TIP3   OH2 2441   3.425   4.422   2.631 -0.8919  0.3210 -0.2667
  812TIP3    H1 2442   3.422   4.358   2.702 -0.6086  0.3180 -0.2529
  812TIP3    H2 2443   3.345   4.409   2.581  0.0775 -1.4271 -1.4723
  813TIP3   OH2 2444   0.600   3.194   2.920 -0.1705 -0.5291  0.2235
  813TIP3    H1 2445   0.615   3.109   2.879 -0.5471 -0.6182  0.2668
  813TIP3    H2 2446   0.599   3.256   2.847 -2.6250 -0.8982 -0.1514
  814TIP3   OH2 2447   4.177   4.308   1.474 -0.1092  0.1147 -0.3409
  814TIP3    H1 2448   4.148   4.248   1.543  1.9560 -1.4705 -0.7459
  814TIP3    H2 2449   4.099   4.322   1.420 -0.9623 -1.2221  0.4771
  815TIP3   OH2 2450   4.636   4.126   1.720 -0.3639 -0.0516  0.1238
  815TIP3    H1 2451   4.658   4.033   1.716 -1.3601 -0.2804 -1.5038
  815TIP3    H2 2452   4.720   4.172   1.722  0.1510 -0.9825  0.1225
  816TIP3   OH2 2453   2.075   1.191   1.236 -0.4367 -0.0876 -0.0939
  816TIP3    H1 2454   2.039   1.186   1.325 -2.1546  1.6758 -0.6278
  816TIP3    H2 2455   2.131   1.269   1.238 -0.8235  0.2113 -0.6452
  817TIP3   OH2 2456   4.831   1.744   0.598 -0.4850 -0.0868  0.0213
  817TIP3    H1 2457   4.917   1.764   0.632 -0.1706 -1.9839  0.4933
  817TIP3    H2 2458   4.841   1.749   0.503 -0.9528  3.6277  0.0477
  818TIP3   OH2 2459   4.963   1.163   4.015  0.3810 -0.0533 -0.0007
  818TIP3    H1 2460   5.035   1.155   4.077 -0.7249  0.6635  1.4462
  818TIP3    H2 2461   4.992   1.229   3.952  0.6478  0.9376  1.1192
  819TIP3   OH2 2462   5.032   4.814   3.643  0.1309 -0.5667  0.6796
  819TIP3    H1 2463   4.982   4.733   3.654  0.9347 -1.2078 -0.2257
  819TIP3    H2 2464   5.001   4.851   3.560  0.0002 -0.1195  0.9251
  820TIP3   OH2 2465   3.876   4.801   0.105  0.0992  0.2631  0.0274
  820TIP3    H1 2466   3.826   4.831   0.181  0.3144  0.5891  0.0455
  820TIP3    H2 2467   3.962   4.841   0.116  0.6368 -0.9380  0.4350
  821TIP3   OH2 2468   5.818   4.302   0.053 -0.6076  0.1882 -0.4145
  821TIP3    H1 2469   5.863   4.236  -0.001  2.1112  1.3276  0.3015
  821TIP3    H2 2470   5.836   4.275   0.143 -2.1217  0.2427 -0.0778
  822TIP3   OH2 2471   1.621   2.608   2.256 -0.0621 -0.0793  0.0563
  822TIP3    H1 2472   1.575   2.571   2.180 -1.2852  1.9951 -0.2765
  822TIP3    H2 2473   1.713   2.606   2.231 -0.2792 -0.9969 -0.7651
  823TIP3   OH2 2474   2.036   3.706   4.109 -0.0461  0.0091  0.5737
  823TIP3    H1 2475   2.131   3.722   4.105  0.2564 -1.6248  0.4241
  823TIP3    H2 2476   2.009   3.699   4.018 -0.0957 -0.6170  0.6341
  824TIP3   OH2 2477   6.042   4.701   2.333 -0.1198 -0.0586  0.4800
  824TIP3    H1 2478   6.007   4.656   2.410 -0.8044  0.3665  0.4237
  824TIP3    H2 2479   6.038   4.794   2.356 -0.8322  0.1010 -0.2711
  825TIP3   OH2 2480   4.623   3.118   0.475 -0.2857 -0.3135 -0.1801
  825TIP3    H1 2481   4.577   3.049   0.428 -0.7158  0.0748 -0.3375
  825TIP3    H2 2482   4.628   3.191   0.413 -0.8848  0.2102  0.3748
  826TIP3   OH2 2483   3.657   4.146   2.560 -0.0275  0.0071 -0.0730
  826TIP3    H1 2484   3.638   4.207   2.631  1.1059 -0.8981  1.0504
  826TIP3    H2 2485   3.573   4.104   2.541 -0.4080  0.4878  0.5142
  827TIP3   OH2 2486   1.019   4.160   2.920  0.1425  0.0516 -0.0802
  827TIP3    H1 2487   1.034   4.200   2.835 -3.4486  1.2168 -0.3246
  827TIP3    H2 2488   1.008   4.067   2.901 -0.7363  0.3151 -0.9644
  828TIP3   OH2 2489   0.367   4.184   4.562 -0.0298 -0.1958  0.5783
  828TIP3    H1 2490   0.379   4.095   4.530 -1.1322  0.1491 -0.8832
  828TIP3    H2 2491   0.455   4.214   4.584  0.5399 -1.1091 -0.3952
  829TIP3   OH2 2492   5.007   1.666   4.225  0.2482 -0.2031 -0.2211
  829TIP3    H1 2493   5.057   1.677   4.306 -0.5671  0.5930  0.1974
  829TIP3    H2 2494   4.959   1.584   4.237  0.6785 -0.4531 -0.2040
  830TIP3   OH2 2495   0.703   5.612   5.117 -0.1683 -0.3853  0.6533
  830TIP3    H1 2496   0.625   5.664   5.130 -0.3336 -0.7147  0.9805
  830TIP3    H2 2497   0.670   5.524   5.097  0.1169 -0.6505  1.3136
  831TIP3   OH2 2498   2.313   3.393   1.854 -0.1713 -0.5244 -0.2166
  831TIP3    H1 2499   2.378   3.343   1.805  0.3741  0.0599 -0.1133
  831TIP3    H2 2500   2.285   3.462   1.793  0.9942  0.6097  0.4684
  832TIP3   OH2 2501   5.648   3.910   1.121 -0.1484 -0.4401  0.3652
  832TIP3    H1 2502   5.554   3.897   1.133 -0.4141 -0.2367 -1.3799
  832TIP3    H2 2503   5.666   3.881   1.032  1.1326  1.1770  0.0405
  833TIP3   OH2 2504   0.985   0.300   3.322 -0.1161 -0.4578 -0.1920
  833TIP3    H1 2505   1.029   0.247   3.388  0.8793  1.5840  0.8761
  833TIP3    H2 2506   1.056   0.348   3.279 -0.7119 -1.7926 -2.9010
  834TIP3   OH2 2507   4.098   5.768   4.946 -0.4523 -0.3929  0.1441
  834TIP3    H1 2508   4.173   5.745   5.001  0.1934 -2.1704 -1.3700
  834TIP3    H2 2509   4.106   5.711   4.869 -0.1371  3.2869 -2.8298
  835TIP3   OH2 2510   5.135   3.780   2.504 -0.0702 -0.0681  0.1965
  835TIP3    H1 2511   5.118   3.872   2.524  0.6578 -0.2343  1.6768
  835TIP3    H2 2512   5.050   3.746   2.476  0.1958  1.7262 -3.4719
  836TIP3   OH2 2513   1.294   3.472   0.161 -0.6468  0.2863 -0.4007
  836TIP3    H1 2514   1.377   3.424   0.165 -0.9676 -0.4069 -1.5569
  836TIP3    H2 2515   1.318   3.563   0.180 -0.0010 -0.2465  1.6778
  837TIP3   OH2 2516   5.532   4.292   1.658  0.0099 -0.2820 -0.2900
  837TIP3    H1 2517   5.626   4.307   1.666 -0.3588  2.0682  0.3961
  837TIP3    H2 2518   5.517   4.285   1.564  0.6039  1.7089 -0.5781
  838TIP3   OH2 2519   3.130   4.832   2.333 -0.1899 -0.1266  0.3887
  838TIP3    H1 2520   3.177   4.809   2.253  0.0113  1.8333 -0.0981
  838TIP3    H2 2521   3.155   4.763   2.396  0.2858 -1.2450 -0.9648
  839TIP3   OH2 2522   0.991   2.149   5.018  0.5719 -0.3542  0.3606
  839TIP3    H1 2523   1.005   2.057   4.998 -1.9611 -0.6011 -0.7275
  839TIP3    H2 2524   1.042   2.165   5.097  0.1077 -3.0031  1.2978
  840TIP3   OH2 2525   2.381   0.873   4.147 -0.4857 -0.4340 -0.2838
  840TIP3    H1 2526   2.331   0.885   4.067 -0.6551  0.5184 -0.0418
  840TIP3    H2 2527   2.326   0.816   4.201 -0.5868 -0.6794 -0.6400
  841TIP3   OH2 2528   1.866   0.140   0.719  1.0673 -0.0714 -0.4726
  841TIP3    H1 2529   1.931   0.154   0.650  0.8706 -1.2675 -0.9309
  841TIP3    H2 2530   1.916   0.145   0.800  1.4327  0.6424 -0.7363
  842TIP3   OH2 2531   0.072   2.266   1.927 -0.2707 -0.1193 -0.1238
  842TIP3    H1 2532   0.130   2.208   1.975 -1.4182 -0.6870  0.6110
  842TIP3    H2 2533   0.023   2.312   1.994  0.7657  1.9303 -0.6658
  843TIP3   OH2 2534   2.542   4.888   2.662 -0.1562  0.4994 -0.4631
  843TIP3    H1 2535   2.526   4.798   2.693 -0.6640  0.6972 -0.1322
  843TIP3    H2 2536   2.512   4.943   2.734  3.5946  0.9194  1.0015
  844TIP3   OH2 2537   2.314   1.942   1.837  0.2434 -0.5409  0.0152
  844TIP3    H1 2538   2.384   1.936   1.901  0.9908  1.7815 -0.5067
  844TIP3    H2 2539   2.253   1.872   1.861  0.6531  0.0185  3.0531
  845TIP3   OH2 2540   3.337   1.232   4.510 -0.1196  0.0431  0.5047
  845TIP3    H1 2541   3.425   1.208   4.539  0.1750  1.5143  0.9492
  845TIP3    H2 2542   3.308   1.296   4.575 -0.2662  1.9260 -1.3003
  846TIP3   OH2 2543   5.531   0.066   0.310  0.1551 -0.3253 -0.1018
  846TIP3    H1 2544   5.621   0.068   0.343 -0.3586 -0.7301  1.4177
  846TIP3    H2 2545   5.507   0.159   0.300 -0.5855  0.0536  3.5226
  847TIP3   OH2 2546   2.737   1.140   4.494 -0.6223 -0.1959  0.0908
  847TIP3    H1 2547   2.686   1.204   4.444  0.3134 -1.0944 -2.1800
  847TIP3    H2 2548   2.809   1.117   4.436 -0.8032 -3.1212  0.8671
  848TIP3   OH2 2549   3.810   5.654   4.150 -0.4348  0.1697 -0.3224
  848TIP3    H1 2550   3.792   5.726   4.210 -0.0517  0.1650 -0.2003
  848TIP3    H2 2551   3.904   5.658   4.134 -0.3899 -0.3630 -0.2358
  849TIP3   OH2 2552   6.028   2.006   1.254  0.1328 -0.5228  0.1787
  849TIP3    H1 2553   6.122   1.986   1.244  0.7352  2.1340 -0.1112
  849TIP3    H2 2554   5.996   2.019   1.165  0.0388  0.7151  0.3758
  850TIP3   OH2 2555   1.221   1.669   0.387 -0.4714 -0.2937  0.1616
  850TIP3    H1 2556   1.271   1.652   0.307 -0.4472  0.5852 -0.0205
  850TIP3    H2 2557   1.176   1.586   0.406  0.4361 -0.8542 -0.1076
  851TIP3   OH2 2558   5.258   2.370   1.183  0.2751  0.0615  0.0420
  851TIP3    H1 2559   5.314   2.348   1.257  3.1628  0.9443 -1.7202
  851TIP3    H2 2560   5.281   2.306   1.116 -0.4303  0.8036 -0.9342
  852TIP3   OH2 2561   0.155   1.336   1.279  0.1474  0.3773 -0.0290
  852TIP3    H1 2562   0.201   1.342   1.363  0.8245 -0.3147 -0.3492
  852TIP3    H2 2563   0.112   1.422   1.270  0.6146  0.7012  0.7047
  853TIP3   OH2 2564   2.849   3.497   1.123  0.3009 -0.0431  0.1484
  853TIP3    H1 2565   2.910   3.428   1.148  1.1185  0.4399 -0.4721
  853TIP3    H2 2566   2.855   3.502   1.028 -1.4850 -0.6841 -0.0346
  854TIP3   OH2 2567   2.214   3.380   0.157  0.0257  0.2250  0.1704
  854TIP3    H1 2568   2.301   3.408   0.186  0.2118 -0.3099  0.1534
  854TIP3    H2 2569   2.221   3.284   0.152 -0.7620  0.1315  0.8007
  855TIP3   OH2 2570   1.678   5.192   0.278 -0.1431  0.5160 -0.2966
  855TIP3    H1 2571   1.656   5.164   0.189 -3.3677  2.5583 -0.3264
  855TIP3    H2 2572   1.614   5.148   0.334  2.1776 -1.1738  1.2008
  856TIP3   OH2 2573   4.106   5.227   0.120 -0.2769 -0.4712 -0.7368
  856TIP3    H1 2574   4.172   5.288   0.089 -0.5153 -0.4683 -1.2474
  856TIP3    H2 2575   4.023   5.270   0.100 -0.4396 -0.4499 -0.0514
  857TIP3   OH2 2576   6.111   3.213   2.865  0.6938  0.3801 -0.5042
  857TIP3    H1 2577   6.138   3.121   2.859  1.9874  0.7957 -1.7514
  857TIP3    H2 2578   6.186   3.262   2.830  0.6670  2.0321  1.5766
  858TIP3   OH2 2579   6.200   5.621   1.902  0.6405  0.1289 -0.4327
  858TIP3    H1 2580   6.131   5.686   1.912  0.6145  0.0112  0.1797
  858TIP3    H2 2581   6.173   5.570   1.826  1.3483  1.6670 -1.7587
  859TIP3   OH2 2582   2.637   0.790   0.077  0.3696 -0.1496  0.2605
  859TIP3    H1 2583   2.561   0.820   0.128 -0.2963  1.2026 -1.4131
  859TIP3    H2 2584   2.599   0.745   0.002  1.2421  0.2609 -0.4400
  860TIP3   OH2 2585   4.533   0.418   0.949  0.1635 -0.0151  0.2951
  860TIP3    H1 2586   4.543   0.491   0.888  1.8510 -0.2767  0.2075
  860TIP3    H2 2587   4.622   0.402   0.981 -0.7378  0.6986  3.5413
  861TIP3   OH2 2588   0.938   1.160   1.714 -0.4434  0.1782 -0.3151
  861TIP3    H1 2589   1.033   1.155   1.704 -0.1890 -0.0034  1.7717
  861TIP3    H2 2590   0.905   1.080   1.673  0.3071  0.1622 -0.9072
  862TIP3   OH2 2591   1.317   5.629   1.827  0.1820 -0.0184 -0.4401
  862TIP3    H1 2592   1.243   5.678   1.791 -0.6440 -1.7720 -1.2398
  862TIP3    H2 2593   1.390   5.651   1.770 -0.3453 -0.2400 -1.2163
  863TIP3   OH2 2594   5.617   0.356  -0.008 -0.2244 -0.1203 -0.3142
  863TIP3    H1 2595   5.682   0.326   0.055 -0.2697 -0.5302 -0.4534
  863TIP3    H2 2596   5.568   0.277  -0.030 -2.0198  0.4959  1.2221
  864TIP3   OH2 2597   0.961   3.924   4.487 -0.7724  0.4343 -0.0366
  864TIP3    H1 2598   0.982   3.834   4.464 -2.7394 -0.0059 -0.2878
  864TIP3    H2 2599   0.989   3.934   4.578 -1.0356 -0.6173  0.1667
  865TIP3   OH2 2600   0.410   0.172   2.931 -0.4205 -0.3606  0.6055
  865TIP3    H1 2601   0.454   0.232   2.870  0.2000 -0.4533  0.9442
  865TIP3    H2 2602   0.480   0.115   2.962 -0.8448 -0.7004  0.9487
  866TIP3   OH2 2603   5.043   1.400   3.088 -0.1964  0.1377 -0.3817
  866TIP3    H1 2604   5.074   1.480   3.131  3.0180 -1.1480 -0.0284
  866TIP3    H2 2605   4.975   1.367   3.147  0.2504  1.2817  0.8466
  867TIP3   OH2 2606   5.260   2.993   4.231  1.1284  0.1096  0.2233
  867TIP3    H1 2607   5.299   3.078   4.247  1.0569  0.0076  0.9393
  867TIP3    H2 2608   5.225   2.965   4.315 -0.9679  0.4254 -0.4598
  868TIP3   OH2 2609   5.819   2.525   3.140 -0.4055  0.5091  0.5606
  868TIP3    H1 2610   5.724   2.539   3.141 -0.2734  3.4837 -3.1938
  868TIP3    H2 2611   5.855   2.606   3.177  0.5575  0.9848 -1.2760
  869TIP3   OH2 2612   1.532   2.913   2.916 -0.2447 -0.1733 -0.1717
  869TIP3    H1 2613   1.532   2.817   2.915 -0.1898 -0.1849  0.7416
  869TIP3    H2 2614   1.485   2.937   2.996 -1.7069  0.5810 -1.1879
  870TIP3   OH2 2615   3.298   4.016   3.428  0.2938 -0.3483  0.0259
  870TIP3    H1 2616   3.299   3.924   3.401 -0.1915 -0.4950  0.4761
  870TIP3    H2 2617   3.387   4.034   3.456  0.7538 -0.2656 -1.3971
  871TIP3   OH2 2618   1.158   0.505   2.592 -0.3509 -0.3635 -0.4179
  871TIP3    H1 2619   1.213   0.574   2.556 -1.3942  0.0906 -1.1926
  871TIP3    H2 2620   1.174   0.509   2.686 -1.2018  1.6986 -0.3052
  872TIP3   OH2 2621   0.996   4.873   4.991  0.6402  0.1254 -0.5026
  872TIP3    H1 2622   1.042   4.790   4.992 -2.5085 -1.7967  0.8725
  872TIP3    H2 2623   1.001   4.906   5.080 -1.8872 -1.0397  0.1788
  873TIP3   OH2 2624   0.139   5.223   3.536  0.5679 -0.5777  0.0482
  873TIP3    H1 2625   0.085   5.178   3.471 -1.7041  0.8702  0.8149
  873TIP3    H2 2626   0.183   5.293   3.486  1.4728 -1.5181 -0.5078
  874TIP3   OH2 2627   4.068   0.402   4.263  0.0997 -0.0760 -0.4558
  874TIP3    H1 2628   3.981   0.426   4.232  0.4740  2.3279  0.1752
  874TIP3    H2 2629   4.124   0.407   4.186  0.0156  0.1626 -0.5000
  875TIP3   OH2 2630   5.330   0.190   3.082  0.9648 -0.1124 -0.3301
  875TIP3    H1 2631   5.311   0.165   3.173  3.0644 -0.7750 -0.0125
  875TIP3    H2 2632   5.366   0.278   3.088  0.6715  0.0278 -0.5868
  876TIP3   OH2 2633   3.869   5.253   2.946  0.0922  0.3135 -0.6642
  876TIP3    H1 2634   3.811   5.319   2.985  0.0568 -0.4264  0.6004
  876TIP3    H2 2635   3.813   5.205   2.886 -0.7932 -0.7336  0.9268
  877TIP3   OH2 2636   1.600   5.540   2.204  0.5663  0.2771  0.0251
  877TIP3    H1 2637   1.655   5.510   2.131 -0.9402 -2.1771 -0.2479
  877TIP3    H2 2638   1.510   5.529   2.172 -0.1105  1.1785  1.5213
  878TIP3   OH2 2639   0.793   1.513   4.218 -0.4014  0.2470  0.1510
  878TIP3    H1 2640   0.798   1.419   4.234 -1.2661 -0.9297 -4.9760
  878TIP3    H2 2641   0.882   1.539   4.194 -0.2580  0.7205  1.1250
  879TIP3   OH2 2642   3.738   0.703   4.726 -0.2775 -0.3932 -0.2082
  879TIP3    H1 2643   3.673   0.773   4.725  0.3208  0.1758 -1.2053
  879TIP3    H2 2644   3.810   0.737   4.779  0.1814 -0.0618 -1.0111
  880TIP3   OH2 2645   3.511   5.152   3.372 -0.1140  0.7279  0.1705
  880TIP3    H1 2646   3.492   5.058   3.368  1.3207  0.4510 -1.0899
  880TIP3    H2 2647   3.602   5.159   3.345  0.1625  2.4000  1.3945
  881TIP3   OH2 2648   5.260   0.366   1.421 -0.1992 -0.2497 -0.1894
  881TIP3    H1 2649   5.273   0.280   1.380  1.2443  0.4181 -1.2011
  881TIP3    H2 2650   5.165   0.380   1.417 -0.3791 -1.4729 -0.6768
  882TIP3   OH2 2651   2.365   2.425   0.403  0.6710 -0.0780  0.1169
  882TIP3    H1 2652   2.292   2.367   0.382  0.0438  0.2593  1.3044
  882TIP3    H2 2653   2.413   2.379   0.472  1.2852 -0.0610 -0.2937
  883TIP3   OH2 2654   5.966   3.358   3.218  0.1466 -0.0989 -0.7227
  883TIP3    H1 2655   5.966   3.263   3.207 -0.8503 -0.1115 -0.6156
  883TIP3    H2 2656   5.941   3.372   3.309  0.7738  0.2614 -0.5974
  884TIP3   OH2 2657   2.811   0.050   0.080 -0.3290  0.3969  0.7272
  884TIP3    H1 2658   2.718   0.034   0.093  0.1085 -0.9743  2.6882
  884TIP3    H2 2659   2.834   0.117   0.144 -0.1362  1.4880 -0.4499
  885TIP3   OH2 2660   5.299   1.201   2.896 -0.7744  0.2833  0.5618
  885TIP3    H1 2661   5.391   1.203   2.870 -0.5503  1.2959  1.3568
  885TIP3    H2 2662   5.296   1.250   2.979 -1.9679 -0.0563  0.7490
  886TIP3   OH2 2663   3.912   5.439   0.103  0.1059 -0.2444 -0.0018
  886TIP3    H1 2664   3.875   5.469   0.020 -0.0985 -0.2714  0.0792
  886TIP3    H2 2665   3.836   5.421   0.158  0.2461  0.9229  0.6050
  887TIP3   OH2 2666   2.053   0.446   4.896  0.1748 -0.1410 -0.6015
  887TIP3    H1 2667   2.028   0.535   4.921  0.2289 -0.1367 -0.5626
  887TIP3    H2 2668   2.131   0.427   4.948  0.5898  0.0613 -1.1448
  888TIP3   OH2 2669   3.486   0.454   0.933  0.2800  0.0187 -0.5491
  888TIP3    H1 2670   3.479   0.465   0.838  1.8006  2.2202 -0.4761
  888TIP3    H2 2671   3.578   0.468   0.952 -0.0448 -0.1003  1.3040
  889TIP3   OH2 2672   2.539   0.081   4.693  0.3424  0.0580 -0.2185
  889TIP3    H1 2673   2.608   0.062   4.756 -0.6949 -0.3074  0.8371
  889TIP3    H2 2674   2.586   0.112   4.615  1.8112 -1.8507 -0.1725
  890TIP3   OH2 2675   2.543   5.225   4.503  0.0422  0.1354 -0.3563
  890TIP3    H1 2676   2.525   5.316   4.529  0.3665  0.4694 -1.2819
  890TIP3    H2 2677   2.580   5.185   4.582 -1.5973  0.3485  0.5659
  891TIP3   OH2 2678   2.133   2.120   4.932 -0.2360  0.6190  0.1229
  891TIP3    H1 2679   2.189   2.151   5.004 -0.6070 -0.2110  0.7899
  891TIP3    H2 2680   2.166   2.166   4.855  2.1628 -0.7265  0.2599
  892TIP3   OH2 2681   5.397   4.478   3.200  0.0959 -0.0267  0.8046
  892TIP3    H1 2682   5.306   4.480   3.230  0.0229 -0.6407  0.6433
  892TIP3    H2 2683   5.428   4.390   3.224  0.5080  0.0236  0.4642
  893TIP3   OH2 2684   3.468   1.238   5.108 -0.2356  0.4976  0.5980
  893TIP3    H1 2685   3.555   1.256   5.144  0.4249  2.3484 -1.6634
  893TIP3    H2 2686   3.437   1.324   5.078 -2.5780 -0.2431  0.7223
  894TIP3   OH2 2687   2.891   2.285   0.194 -0.0170  0.2576  0.6401
  894TIP3    H1 2688   2.813   2.260   0.242  1.0441 -2.0326  1.2889
  894TIP3    H2 2689   2.960   2.227   0.226  1.9742  2.1399  0.0645
  895TIP3   OH2 2690   4.582   0.741   0.287 -0.4074 -0.0622  0.4406
  895TIP3    H1 2691   4.636   0.800   0.234  1.1229 -0.5386  1.4070
  895TIP3    H2 2692   4.523   0.800   0.335 -0.1058  0.5367  0.0955
  896TIP3   OH2 2693   4.739   5.491   3.476  0.3341 -0.5204 -0.0947
  896TIP3    H1 2694   4.670   5.531   3.529  0.6506 -1.4498  1.0942
  896TIP3    H2 2695   4.818   5.498   3.531  1.3876  1.2022 -1.7429
  897TIP3   OH2 2696   5.004   5.591   4.808  0.9062 -0.1812  0.0913
  897TIP3    H1 2697   4.908   5.590   4.814  0.9612 -0.7357  1.0655
  897TIP3    H2 2698   5.027   5.505   4.773  1.0194  0.2162 -0.8296
  898TIP3   OH2 2699   3.525   1.658   1.575  0.4105 -0.0712 -0.9011
  898TIP3    H1 2700   3.540   1.564   1.567 -0.9705 -0.2126 -2.2042
  898TIP3    H2 2701   3.544   1.693   1.488 -2.1398  0.3616 -1.3510
  899TIP3   OH2 2702   4.775   2.754   5.087  0.1947 -0.1341 -0.2778
  899TIP3    H1 2703   4.725   2.769   5.006  0.1081  0.1048 -0.1822
  899TIP3    H2 2704   4.768   2.837   5.134  1.8589  0.3967 -0.9082
  900TIP3   OH2 2705   0.008   0.214   4.970 -0.0398 -0.3576 -0.2461
  900TIP3    H1 2706   0.022   0.133   4.919  0.6676  0.3629 -1.2359
  900TIP3    H2 2707  -0.000   0.184   5.060  2.9584 -1.3550 -0.1882
  901TIP3   OH2 2708   3.066   0.032   1.257  0.2169  0.1342  0.5882
  901TIP3    H1 2709   2.987  -0.005   1.219 -0.2226 -0.0601  1.6559
  901TIP3    H2 2710   3.137  -0.024   1.224 -0.2268 -0.4341  0.5835
  902TIP3   OH2 2711   5.510   3.160   4.812  0.0895  0.6962  0.5174
  902TIP3    H1 2712   5.576   3.154   4.743 -1.4848 -1.8494 -0.9177
  902TIP3    H2 2713   5.513   3.075   4.856 -0.1804  1.6349  2.4834
  903TIP3   OH2 2714   2.633   3.065   4.140 -0.0919  0.1036  0.1290
  903TIP3    H1 2715   2.596   2.991   4.189  0.5015 -1.0452 -1.0767
  903TIP3    H2 2716   2.724   3.069   4.167 -0.2633  0.7928  0.6284
  904TIP3   OH2 2717   6.067   2.066   0.984  0.0212 -0.1847 -0.0990
  904TIP3    H1 2718   6.156   2.044   0.957  0.6764 -0.1290  1.8299
  904TIP3    H2 2719   6.063   2.162   0.976 -0.1657 -0.2598 -0.9861
  905TIP3   OH2 2720   3.994   3.436   0.402 -0.8415  0.7101 -0.4615
  905TIP3    H1 2721   4.038   3.361   0.443 -0.3150  0.8639 -0.7483
  905TIP3    H2 2722   4.064   3.499   0.385 -1.3163  1.3708 -0.0078
  906TIP3   OH2 2723   1.599   4.687   0.817  0.1080  0.0336 -0.1625
  906TIP3    H1 2724   1.623   4.716   0.905 -1.4014 -1.2415  0.7040
  906TIP3    H2 2725   1.682   4.659   0.778  0.7302  0.1293  1.0358
  907TIP3   OH2 2726   2.674   2.768   2.191  0.0276 -0.6633 -0.0895
  907TIP3    H1 2727   2.668   2.765   2.096  1.2557 -2.6359 -0.1477
  907TIP3    H2 2728   2.767   2.785   2.209 -0.2366 -0.0515  0.7710
  908TIP3   OH2 2729   2.160   1.733   1.845  0.4869 -0.1211 -0.1878
  908TIP3    H1 2730   2.204   1.649   1.855 -0.0153 -0.3252  0.3516
  908TIP3    H2 2731   2.081   1.713   1.795  0.3620  0.0266 -0.0488
  909TIP3   OH2 2732   4.214   4.236   3.061  0.0223  0.0700 -0.1135
  909TIP3    H1 2733   4.269   4.212   3.135  0.3629 -0.2672 -0.4764
  909TIP3    H2 2734   4.133   4.188   3.075 -0.0677  0.3196  0.2493
  910TIP3   OH2 2735   5.685   0.703   3.598  0.6459  0.7795  0.4101
  910TIP3    H1 2736   5.682   0.777   3.538  0.1199  0.7785  0.4298
  910TIP3    H2 2737   5.767   0.713   3.645  1.1174  0.7234 -0.3835
  911TIP3   OH2 2738   2.911   2.834   2.084 -0.0213 -0.1786  0.3918
  911TIP3    H1 2739   2.938   2.798   2.000 -3.0170 -0.3951 -0.6143
  911TIP3    H2 2740   2.922   2.929   2.074 -1.3507 -0.1106 -0.7062
  912TIP3   OH2 2741   3.596   0.512   3.713 -0.1045  0.3432 -0.7016
  912TIP3    H1 2742   3.574   0.419   3.710  0.9139  0.1153 -1.6126
  912TIP3    H2 2743   3.611   0.531   3.806 -0.4571 -0.3623 -0.4986
  913TIP3   OH2 2744   6.303   4.453   0.207  0.1873  0.2362 -0.1770
  913TIP3    H1 2745   6.350   4.536   0.218  1.7348 -0.7836  1.5194
  913TIP3    H2 2746   6.372   4.389   0.192 -0.9199 -0.8621 -0.6977
  914TIP3   OH2 2747   5.725   1.060   4.640  0.2736 -0.1923  0.1367
  914TIP3    H1 2748   5.790   1.068   4.709 -0.2480  1.2478  0.4990
  914TIP3    H2 2749   5.644   1.094   4.679  0.1400  1.3933 -1.3785
  915TIP3   OH2 2750   1.608   2.201   0.202  0.4015 -0.0339  0.2578
  915TIP3    H1 2751   1.657   2.120   0.217  0.2734  0.0928  1.5057
  915TIP3    H2 2752   1.671   2.271   0.220  0.2260  0.1287  0.2467
  916TIP3   OH2 2753   1.989   5.813   0.534 -0.3336 -0.5376  0.6141
  916TIP3    H1 2754   1.910   5.782   0.491 -0.0051 -0.0583 -0.3708
  916TIP3    H2 2755   2.025   5.879   0.474  1.4584 -1.6147  0.4316
  917TIP3   OH2 2756   3.456   1.779   2.849 -0.0520 -0.9116 -0.2646
  917TIP3    H1 2757   3.373   1.777   2.801  0.1078  0.4886 -0.6496
  917TIP3    H2 2758   3.516   1.826   2.790  0.4178 -0.0404  0.8793
  918TIP3   OH2 2759   0.639   0.767   1.211  0.1449  0.3396  0.1921
  918TIP3    H1 2760   0.555   0.750   1.168  0.8163 -1.3648 -0.5570
  918TIP3    H2 2761   0.692   0.691   1.189  0.6988 -0.4605  3.6990
  919TIP3   OH2 2762   0.298   1.026   4.919  0.1268 -0.3397 -0.1465
  919TIP3    H1 2763   0.389   1.052   4.935 -0.1530  1.2422 -0.9108
  919TIP3    H2 2764   0.300   0.980   4.835 -0.1032  2.1362 -1.6128
  920TIP3   OH2 2765   4.904   1.962   1.142  0.2195  0.1064  0.4407
  920TIP3    H1 2766   4.812   1.946   1.163 -0.1846  0.5899 -0.8723
  920TIP3    H2 2767   4.935   2.020   1.211 -0.2497 -0.6347  1.2933
  921TIP3   OH2 2768   4.476   2.304   0.954 -0.1267 -0.1057 -0.3524
  921TIP3    H1 2769   4.503   2.301   0.863  0.6345 -1.6042 -0.1049
  921TIP3    H2 2770   4.552   2.336   1.002 -0.6852  1.1721 -0.2703
  922TIP3   OH2 2771   5.311   1.880   2.015  0.2677  0.2369  0.0832
  922TIP3    H1 2772   5.277   1.951   1.961 -3.9335 -0.4907  1.4032
  922TIP3    H2 2773   5.346   1.924   2.093 -0.5991  0.9977  0.0686
  923TIP3   OH2 2774   5.514   4.525   3.536  0.2429 -0.1831 -0.0763
  923TIP3    H1 2775   5.546   4.448   3.489  0.9439  0.3492 -0.4945
  923TIP3    H2 2776   5.528   4.504   3.629 -1.1490 -1.2382 -0.0730
  924TIP3   OH2 2777   1.392   4.293   2.931 -0.5104 -0.5107 -0.1270
  924TIP3    H1 2778   1.387   4.367   2.870 -0.7941  0.5585  1.1533
  924TIP3    H2 2779   1.451   4.322   3.001 -3.0449 -0.1981  2.0386
  925TIP3   OH2 2780   2.641   2.142   1.813 -0.3902  0.2895 -0.0590
  925TIP3    H1 2781   2.706   2.139   1.743 -0.7163  0.5678 -0.3780
  925TIP3    H2 2782   2.668   2.215   1.868 -1.4571  1.6118 -1.2234
  926TIP3   OH2 2783   5.020   3.839   3.529 -0.2144  0.9825 -0.6082
  926TIP3    H1 2784   5.112   3.833   3.555 -0.4168  0.3971  0.0036
  926TIP3    H2 2785   5.019   3.804   3.440 -0.0972 -0.6757  0.0070
  927TIP3   OH2 2786   4.460   4.533   5.054  0.2290 -0.4497  0.3207
  927TIP3    H1 2787   4.517   4.609   5.038 -0.5885  0.1731  0.2933
  927TIP3    H2 2788   4.385   4.546   4.996  0.1845 -1.4082  0.1464
  928TIP3   OH2 2789   4.717   2.926   0.676  0.0065 -0.3824 -0.0319
  928TIP3    H1 2790   4.811   2.947   0.672 -0.4883  1.9676 -1.2151
  928TIP3    H2 2791   4.678   2.979   0.606 -2.3449 -0.5063  1.1049
  929TIP3   OH2 2792   3.324   2.529   1.833  0.4228  0.6822  0.2769
  929TIP3    H1 2793   3.257   2.466   1.859  1.3941 -1.3370 -1.6604
  929TIP3    H2 2794   3.325   2.594   1.903 -2.0291 -0.3671  1.4175
  930TIP3   OH2 2795   6.153   3.428   2.403  0.3194 -0.1953  0.0610
  930TIP3    H1 2796   6.063   3.428   2.371 -0.1094 -0.0800  1.2250
  930TIP3    H2 2797   6.206   3.431   2.323 -0.5492 -4.4636 -0.8981
  931TIP3   OH2 2798   5.285   2.641   3.844  0.3080 -0.1402 -0.3012
  931TIP3    H1 2799   5.319   2.731   3.840 -1.3092  0.7088  2.3604
  931TIP3    H2 2800   5.323   2.605   3.924  1.4504 -2.1446 -1.6631
  932TIP3   OH2 2801   3.551   0.888   3.839  0.9611 -0.5122  0.3196
  932TIP3    H1 2802   3.470   0.850   3.807  1.2873 -1.5500  0.6841
  932TIP3    H2 2803   3.540   0.893   3.934  1.8197 -1.9489  0.5278
  933TIP3   OH2 2804   4.788   2.745   4.119  0.0318 -0.1597 -0.0335
  933TIP3    H1 2805   4.703   2.762   4.161 -1.2753  0.9562 -2.8724
  933TIP3    H2 2806   4.848   2.807   4.160 -1.3966  1.5078 -0.3551
  934TIP3   OH2 2807   2.654   4.850   4.977 -0.3039 -0.0033  0.4880
  934TIP3    H1 2808   2.730   4.813   5.023  0.3445  0.8872  0.1582
  934TIP3    H2 2809   2.585   4.851   5.043  0.0098 -0.6665  0.8450
  935TIP3   OH2 2810   6.342   5.491   0.093  0.0221 -0.3132 -0.2111
  935TIP3    H1 2811   6.411   5.449   0.041  2.6891  2.2166  0.9564
  935TIP3    H2 2812   6.298   5.419   0.137  1.1840 -2.1462 -1.8711
  936TIP3   OH2 2813   0.197   1.317   1.550  0.2591  0.7469 -0.0867
  936TIP3    H1 2814   0.141   1.242   1.571 -0.6315  1.4528  0.1359
  936TIP3    H2 2815   0.218   1.355   1.636  2.9591 -0.7611  0.0586
  937TIP3   OH2 2816   1.452   0.309   1.608 -0.3167 -0.2141  0.0046
  937TIP3    H1 2817   1.483   0.391   1.570 -0.0410 -0.6772 -0.7895
  937TIP3    H2 2818   1.371   0.332   1.653 -0.5205  0.3928 -0.6574
  938TIP3   OH2 2819   4.077   1.161   4.458  0.0532 -0.0031 -0.0430
  938TIP3    H1 2820   4.127   1.243   4.457 -0.1517  0.1159 -1.4389
  938TIP3    H2 2821   4.142   1.094   4.438  0.1760 -0.1681  0.8751
  939TIP3   OH2 2822   4.935   2.486   0.680 -0.4525 -0.4649 -0.1968
  939TIP3    H1 2823   4.977   2.425   0.619 -1.4194 -1.2486 -0.0973
  939TIP3    H2 2824   4.857   2.517   0.633 -0.5494 -0.1356  0.1750
  940TIP3   OH2 2825   5.679   3.205   2.909 -0.0124 -0.0429  0.0578
  940TIP3    H1 2826   5.641   3.240   2.828 -1.0565 -0.5592  0.3052
  940TIP3    H2 2827   5.610   3.149   2.945  0.5533 -0.0562  1.1549
  941TIP3   OH2 2828   5.337   3.525   0.612  0.4167  0.1664  0.2489
  941TIP3    H1 2829   5.419   3.489   0.578 -0.0107 -0.4412 -0.1474
  941TIP3    H2 2830   5.343   3.511   0.707  0.0861 -1.3416  0.0665
  942TIP3   OH2 2831   2.349   0.073   1.868 -0.0771  0.1689  0.4378
  942TIP3    H1 2832   2.353  -0.005   1.813 -1.0324  0.7083 -0.4309
  942TIP3    H2 2833   2.293   0.048   1.942  0.5436 -0.3024  0.7580
  943TIP3   OH2 2834   5.570   1.919   4.946 -0.1100 -0.4757 -1.0178
  943TIP3    H1 2835   5.649   1.880   4.981  0.4875  0.9538 -0.6769
  943TIP3    H2 2836   5.515   1.937   5.023 -0.2666 -0.4188 -1.1410
  944TIP3   OH2 2837   2.481   3.159   0.049  0.5884  0.1417  0.4993
  944TIP3    H1 2838   2.468   3.089   0.113 -0.7887 -0.6893 -0.6432
  944TIP3    H2 2839   2.548   3.126  -0.010  0.9432  0.3822  0.7619
  945TIP3   OH2 2840   2.667   2.955   4.832  0.3140  0.0220 -0.0291
  945TIP3    H1 2841   2.691   3.005   4.910  1.6660  0.1708 -0.5156
  945TIP3    H2 2842   2.691   3.011   4.759  0.8795 -0.9094 -0.5732
  946TIP3   OH2 2843   5.617   1.548   3.892  0.1258 -0.0626 -0.2973
  946TIP3    H1 2844   5.611   1.491   3.815  1.7038 -1.4153  0.5209
  946TIP3    H2 2845   5.711   1.565   3.901 -0.2003  1.5900  0.2900
  947TIP3   OH2 2846   1.482   3.154   4.819  1.0724  0.4196  0.0116
  947TIP3    H1 2847   1.541   3.108   4.879  3.2264  3.2108  0.2405
  947TIP3    H2 2848   1.534   3.168   4.740  0.2166  1.6450 -0.3744
  948TIP3   OH2 2849   5.923   3.989   0.608 -0.6208  0.2748 -0.7821
  948TIP3    H1 2850   5.986   4.060   0.596 -1.2344  1.5204  2.3332
  948TIP3    H2 2851   5.859   4.001   0.537  0.1253  1.8725 -1.2293
  949TIP3   OH2 2852   5.041   2.149   4.818 -0.6840  0.2144  0.1908
  949TIP3    H1 2853   5.023   2.055   4.824 -0.5717  0.2797  1.8643
  949TIP3    H2 2854   5.093   2.169   4.896 -2.1964  1.9825  0.8237
  950TIP3   OH2 2855   1.512   0.290   3.035  0.8462  0.4056  0.5719
  950TIP3    H1 2856   1.593   0.255   2.997  0.8396  1.7726 -0.8251
  950TIP3    H2 2857   1.503   0.377   2.995  0.4833  1.7228  3.2726
  951TIP3   OH2 2858   6.286   1.945   1.164 -0.5105 -0.4259  0.3948
  951TIP3    H1 2859   6.362   1.903   1.205 -0.4740  0.0884  0.8615
  951TIP3    H2 2860   6.305   1.943   1.070  0.5783  0.6630  0.5720
  952TIP3   OH2 2861   3.737   4.892   2.356 -0.2452  0.2017 -0.0028
  952TIP3    H1 2862   3.683   4.971   2.350  0.1793  0.4009 -1.7962
  952TIP3    H2 2863   3.687   4.825   2.309 -1.2509 -1.0486  2.6521
  953TIP3   OH2 2864   6.223   3.881   3.950 -0.2463 -0.3126 -0.5471
  953TIP3    H1 2865   6.137   3.844   3.967 -0.4741 -0.1499 -1.3150
  953TIP3    H2 2866   6.228   3.958   4.006 -0.3510 -0.6633 -0.0455
  954TIP3   OH2 2867   2.509   4.876   1.895  0.3722 -0.5160 -0.2344
  954TIP3    H1 2868   2.465   4.823   1.962 -0.1360 -0.4906 -0.5419
  954TIP3    H2 2869   2.445   4.883   1.824  1.4039 -1.7141 -1.3321
  955TIP3   OH2 2870   6.209   2.379   2.340 -0.1340 -0.1663  0.0619
  955TIP3    H1 2871   6.300   2.409   2.352  0.2636 -1.2051 -0.2113
  955TIP3    H2 2872   6.181   2.354   2.428 -0.0792 -0.0500  0.1128
  956TIP3   OH2 2873   3.129   1.244   0.353 -0.1918  0.1346 -0.5980
  956TIP3    H1 2874   3.089   1.265   0.269  1.6289  2.1403 -1.0473
  956TIP3    H2 2875   3.073   1.286   0.418 -0.9737 -0.4615 -0.8749
  957TIP3   OH2 2876   5.235   5.647   4.473 -0.0032 -0.0588  0.1621
  957TIP3    H1 2877   5.235   5.670   4.567  1.2322 -2.3694  0.7890
  957TIP3    H2 2878   5.269   5.726   4.430 -0.1582  0.8980  1.6986
  958TIP3   OH2 2879   2.003   5.033   1.590  0.0371  0.1633  0.0127
  958TIP3    H1 2880   1.914   5.004   1.572 -0.0432 -0.0132  0.6843
  958TIP3    H2 2881   2.056   4.990   1.523 -0.3122 -0.1427 -0.0672
  959TIP3   OH2 2882   3.298   5.897   1.495 -0.4300  0.0109 -0.7490
  959TIP3    H1 2883   3.393   5.888   1.485 -0.4955  0.7166 -2.3030
  959TIP3    H2 2884   3.280   5.860   1.581  1.0777 -1.3788 -0.9663
  960TIP3   OH2 2885   0.963   5.341   3.168  0.1839 -0.5164 -0.6785
  960TIP3    H1 2886   0.907   5.368   3.096  1.1218  0.1700 -1.1751
  960TIP3    H2 2887   1.048   5.325   3.127  0.4933 -1.0389  0.1343
  961TIP3   OH2 2888   1.095   4.993   1.923  0.3114 -0.0949  0.4211
  961TIP3    H1 2889   1.171   5.047   1.944 -0.3026  0.5541  1.0177
  961TIP3    H2 2890   1.112   4.961   1.834  0.6511  1.1514  0.0196
  962TIP3   OH2 2891   0.981   2.529   5.071 -0.2268 -0.8333 -0.0518
  962TIP3    H1 2892   1.051   2.592   5.054 -0.2319 -0.8783 -0.2479
  962TIP3    H2 2893   1.018   2.468   5.135 -0.6568  0.0960  1.1165
  963TIP3   OH2 2894   4.142   2.905   3.445 -0.2585 -0.0627 -0.3676
  963TIP3    H1 2895   4.218   2.942   3.491 -0.5879 -0.3655  0.4364
  963TIP3    H2 2896   4.119   2.827   3.495 -1.6736  0.5310 -0.0348
  964TIP3   OH2 2897   0.108   1.020   2.460 -0.3931 -0.0031  0.3092
  964TIP3    H1 2898   0.099   0.942   2.406 -2.5863  1.0356 -0.9328
  964TIP3    H2 2899   0.137   1.088   2.400 -0.9014  0.7133  0.8509
  965TIP3   OH2 2900   5.171   0.985   2.789  0.2876 -0.2590 -1.1284
  965TIP3    H1 2901   5.188   0.895   2.817  0.5835  0.0528 -0.2936
  965TIP3    H2 2902   5.231   1.038   2.840 -0.1351  0.4553 -1.3584
  966TIP3   OH2 2903   2.167   0.677   1.585  0.7171 -0.1659  0.1286
  966TIP3    H1 2904   2.107   0.604   1.570  0.0184  0.5060 -0.4408
  966TIP3    H2 2905   2.171   0.686   1.681 -1.6992  1.0238  0.2112
  967TIP3   OH2 2906   4.274   2.128   3.516  0.2824  0.7672  0.5017
  967TIP3    H1 2907   4.285   2.057   3.453 -0.2518  1.1871 -0.0793
  967TIP3    H2 2908   4.348   2.119   3.576  0.7962  0.3504 -0.1802
  968TIP3   OH2 2909   3.146   4.388   4.668  0.2362  0.2007  0.5251
  968TIP3    H1 2910   3.197   4.350   4.597  0.4497  0.1715  0.6941
  968TIP3    H2 2911   3.151   4.483   4.653  1.6512  0.2995  1.4227
  969TIP3   OH2 2912   3.610   1.756   4.578 -0.3115 -0.2852  0.0565
  969TIP3    H1 2913   3.598   1.662   4.565  1.3077 -0.3672 -1.1643
  969TIP3    H2 2914   3.538   1.797   4.531 -0.4805 -0.8883 -0.2165
  970TIP3   OH2 2915   0.011   5.782   5.130  0.2888  0.2779  0.0468
  970TIP3    H1 2916  -0.070   5.808   5.085 -0.4474 -2.3441 -0.2976
  970TIP3    H2 2917   0.075   5.848   5.102 -1.5245  2.0667 -0.1784
  971TIP3   OH2 2918   1.061   0.753   3.948 -0.4594 -0.9288 -0.3670
  971TIP3    H1 2919   1.121   0.695   3.901 -0.1832 -0.0407 -1.1250
  971TIP3    H2 2920   1.092   0.841   3.929 -1.0394 -0.5145  0.5555
  972TIP3   OH2 2921   3.464   0.457   4.951 -0.4589 -0.0284 -0.6203
  972TIP3    H1 2922   3.377   0.478   4.986 -0.0143  2.6639 -0.9506
  972TIP3    H2 2923   3.516   0.535   4.968  1.7035 -1.2793 -1.1781
  973TIP3   OH2 2924   1.701   2.950   1.897 -0.0346 -0.1117  0.4343
  973TIP3    H1 2925   1.739   3.036   1.880 -0.1148 -0.2025 -0.2274
  973TIP3    H2 2926   1.740   2.922   1.979  1.7511 -0.4359 -0.4852
  974TIP3   OH2 2927   1.306   1.340   2.856  0.6013  0.0690 -0.0274
  974TIP3    H1 2928   1.277   1.422   2.817  1.3066  0.1208 -0.4629
  974TIP3    H2 2929   1.293   1.351   2.950 -1.0982 -0.0470 -0.2190
  975TIP3   OH2 2930   4.980   4.752   2.911 -0.7433 -0.6226  0.0873
  975TIP3    H1 2931   4.897   4.773   2.953 -0.0778  0.0373  1.1076
  975TIP3    H2 2932   4.994   4.823   2.848 -0.6681 -0.4117  0.3407
  976TIP3   OH2 2933   0.909   2.255   4.095  0.1171  0.2087 -0.0463
  976TIP3    H1 2934   0.936   2.230   4.184 -1.9636 -0.7321  0.3780
  976TIP3    H2 2935   0.892   2.172   4.051 -0.7079  0.7159 -0.7111
  977TIP3   OH2 2936   1.202   1.593   1.760 -0.0324  0.0799 -0.0117
  977TIP3    H1 2937   1.281   1.638   1.732 -0.8172  1.4282 -0.1821
  977TIP3    H2 2938   1.233   1.521   1.815  1.2505  1.6470  1.4133
  978TIP3   OH2 2939   3.621   4.912   5.147 -0.4735  0.8008 -0.0626
  978TIP3    H1 2940   3.590   4.825   5.122 -0.9545  1.3823 -1.5827
  978TIP3    H2 2941   3.565   4.938   5.220 -0.5953  0.0147  0.1311
  979TIP3   OH2 2942   2.350   2.143   0.070 -0.2712 -0.0922 -0.2123
  979TIP3    H1 2943   2.422   2.203   0.087 -0.1886 -0.8548  2.6386
  979TIP3    H2 2944   2.281   2.170   0.131 -1.2630 -1.1944 -0.7930
  980TIP3   OH2 2945   5.661   1.911   3.167  0.0130  0.3088 -0.1282
  980TIP3    H1 2946   5.571   1.892   3.139  0.5538  1.0488 -2.5628
  980TIP3    H2 2947   5.665   2.006   3.172  0.1372  0.2446  2.0539
  981TIP3   OH2 2948   0.292   0.568   0.462 -0.3498  0.0678  0.0731
  981TIP3    H1 2949   0.237   0.563   0.384 -0.6934 -0.5500  0.3508
  981TIP3    H2 2950   0.372   0.520   0.439  0.8408  2.3657 -0.9250
  982TIP3   OH2 2951   4.635   2.980   1.334 -0.1770 -0.0758  0.3011
  982TIP3    H1 2952   4.698   3.020   1.275 -0.6336 -1.8064 -1.4381
  982TIP3    H2 2953   4.687   2.944   1.406  0.6292 -0.1145 -0.3020
  983TIP3   OH2 2954   1.116   0.575   3.626  0.3746  0.1929 -0.2298
  983TIP3    H1 2955   1.066   0.658   3.630  0.3450  0.1433  0.8393
  983TIP3    H2 2956   1.192   0.591   3.682 -1.3976 -1.6121  2.9651
  984TIP3   OH2 2957   0.892   4.889   0.317  0.5542  0.0789  1.1143
  984TIP3    H1 2958   0.813   4.885   0.371  0.2477  2.5384  0.9324
  984TIP3    H2 2959   0.960   4.921   0.376  0.6462  1.0228  0.5077
  985TIP3   OH2 2960   6.200   0.529   2.311 -0.0273  0.0465  0.0849
  985TIP3    H1 2961   6.238   0.577   2.384 -0.6427  1.4538 -0.4968
  985TIP3    H2 2962   6.114   0.568   2.298  0.0105 -0.2833 -1.2964
  986TIP3   OH2 2963   5.223   1.807   1.697  0.0772  0.6889  0.2048
  986TIP3    H1 2964   5.194   1.824   1.607 -0.8942 -0.7017  0.2332
  986TIP3    H2 2965   5.190   1.882   1.747 -1.1439  0.4709 -0.2476
  987TIP3   OH2 2966   3.479   3.437   2.761 -0.0907  0.0041 -0.5240
  987TIP3    H1 2967   3.396   3.400   2.791  0.3391  0.5340  1.4847
  987TIP3    H2 2968   3.455   3.498   2.692 -1.1772 -1.0906 -1.1531
  988TIP3   OH2 2969   0.298   1.883   5.186 -0.1679  0.4631 -0.1399
  988TIP3    H1 2970   0.290   1.884   5.091  0.0259  0.4556 -0.1559
  988TIP3    H2 2971   0.380   1.836   5.203  1.3689  2.9788 -0.0882
  989TIP3   OH2 2972   2.467   5.124   4.821  0.0288  0.2336  0.0743
  989TIP3    H1 2973   2.372   5.132   4.832 -0.0711 -0.6841 -0.0347
  989TIP3    H2 2974   2.496   5.073   4.896  0.3197 -0.1710 -0.3081
  990TIP3   OH2 2975   0.848   2.807   0.606  0.3398  0.5129 -0.1974
  990TIP3    H1 2976   0.779   2.873   0.611  0.0769  0.3014 -0.9031
  990TIP3    H2 2977   0.893   2.812   0.690 -0.4982  0.6953  0.2437
  991TIP3   OH2 2978   5.146   5.205   3.628 -0.4896 -0.3714  0.2738
  991TIP3    H1 2979   5.148   5.296   3.659  0.3169  0.1861 -1.2776
  991TIP3    H2 2980   5.238   5.184   3.610 -0.7034 -1.3985  0.3435
  992TIP3   OH2 2981   2.769   2.181   2.334 -0.5649  0.3480 -0.4672
  992TIP3    H1 2982   2.818   2.124   2.394  1.3279  2.4601  0.1280
  992TIP3    H2 2983   2.726   2.120   2.274  0.4017 -1.7347  0.8134
  993TIP3   OH2 2984   2.558   1.608   0.703  0.2247  0.0327 -0.1008
  993TIP3    H1 2985   2.533   1.521   0.671 -1.6541  0.4695  0.0193
  993TIP3    H2 2986   2.542   1.604   0.797  1.6541  0.0547  0.1621
  994TIP3   OH2 2987   2.604   1.868   3.896  0.2761  0.7355  0.3208
  994TIP3    H1 2988   2.630   1.960   3.904 -2.8199  1.5777  2.3041
  994TIP3    H2 2989   2.595   1.838   3.986 -1.8319 -0.4859 -0.2226
  995TIP3   OH2 2990   0.891   2.810   3.954 -0.0535 -0.1330  0.3295
  995TIP3    H1 2991   0.869   2.896   3.919  2.7932  0.3830 -0.4599
  995TIP3    H2 2992   0.936   2.766   3.882 -1.2881 -2.2536  0.7844
  996TIP3   OH2 2993   1.444   1.035   2.973 -0.1704 -0.0129 -0.2272
  996TIP3    H1 2994   1.464   1.066   3.061 -0.5286  1.4229 -0.6302
  996TIP3    H2 2995   1.521   1.059   2.921  1.3498 -3.3962  0.1870
  997TIP3   OH2 2996  -0.012   1.437   2.738 -0.4344  0.2622 -0.5879
  997TIP3    H1 2997   0.016   1.469   2.652  0.8978  0.9462  0.0669
  997TIP3    H2 2998   0.031   1.352   2.747  1.3837  1.2087  0.3188
  998TIP3   OH2 2999   5.664   5.430   1.948  0.3929 -0.4975 -0.0926
  998TIP3    H1 3000   5.713   5.490   1.892 -0.2100  0.2288  0.1394
  998TIP3    H2 3001   5.682   5.460   2.037  0.1749 -0.7252  0.0297
  999TIP3   OH2 3002   1.803   2.435   1.465 -0.6818  0.1600 -0.1520
  999TIP3    H1 3003   1.801   2.404   1.555  0.4337  1.0934  0.2194
  999TIP3    H2 3004   1.750   2.372   1.417 -2.0430  0.1467  1.2941
 1000TIP3   OH2 3005   2.506   4.213   2.799  0.1353 -0.1832 -0.4918
 1000TIP3    H1 3006   2.569   4.184   2.733  1.0903  0.3889  0.1375
 1000TIP3    H2 3007   2.532   4.165   2.879  0.9812  1.4465  0.2545
 1001TIP3   OH2 3008   5.930   3.867   2.615  0.0405  0.0809  0.3538
 1001TIP3    H1 3009   5.854   3.826   2.574 -0.6381  2.7979 -1.3686
 1001TIP3    H2 3010   5.898   3.952   2.645  2.0026  0.5989  1.1428
 1002TIP3   OH2 3011   3.617   0.666   4.216 -0.7566  0.2802 -0.2139
 1002TIP3    H1 3012   3.564   0.733   4.260  1.0583  0.9767  1.0370
 1002TIP3    H2 3013   3.677   0.635   4.283  0.3602 -0.5445 -1.5428
 1003TIP3   OH2 3014   4.018   1.534   0.713  0.1446 -0.0572 -0.1995
 1003TIP3    H1 3015   4.024   1.462   0.777 -0.7818  0.3134  0.3131
 1003TIP3    H2 3016   3.930   1.569   0.724  0.5367  1.0784 -0.5384
 1004TIP3   OH2 3017   3.610   2.910   0.638 -0.8904  0.2894 -0.1359
 1004TIP3    H1 3018   3.602   2.818   0.611 -2.8793  0.4332 -0.2036
 1004TIP3    H2 3019   3.704   2.926   0.640 -0.4937 -1.7354 -0.1699
 1005TIP3   OH2 3020   1.934   0.103   4.482  1.0169  0.4090  0.0347
 1005TIP3    H1 3021   1.864   0.165   4.463  1.1319  0.5150 -0.0420
 1005TIP3    H2 3022   2.013   0.143   4.445  0.4805 -1.6285 -3.8356
 1006TIP3   OH2 3023   0.681   5.882   1.417  0.4168  0.2020  0.1729
 1006TIP3    H1 3024   0.658   5.922   1.501 -0.1470 -2.1163  1.1988
 1006TIP3    H2 3025   0.743   5.813   1.440  0.1855 -0.5259 -1.3176
 1007TIP3   OH2 3026   4.901   0.682   4.695 -0.4911  0.1121  0.6427
 1007TIP3    H1 3027   4.952   0.669   4.615 -0.4249  0.3128  0.6516
 1007TIP3    H2 3028   4.956   0.644   4.764 -0.7855 -0.5479  0.5259
 1008TIP3   OH2 3029   3.143   2.333   0.450  0.3301  0.1033  0.0671
 1008TIP3    H1 3030   3.232   2.311   0.479  0.1948 -1.2941 -0.4936
 1008TIP3    H2 3031   3.089   2.262   0.485 -0.2415 -0.1641 -1.3112
 1009TIP3   OH2 3032   1.680   2.197   2.660  0.1474  0.0702  0.0698
 1009TIP3    H1 3033   1.627   2.241   2.726  1.8115  1.1251  0.7516
 1009TIP3    H2 3034   1.688   2.260   2.589 -0.5249 -0.5606 -0.5887
 1010TIP3   OH2 3035   2.614   3.944   4.358 -0.1525 -0.0250  0.5375
 1010TIP3    H1 3036   2.570   4.024   4.385  0.2357  0.1546  0.6437
 1010TIP3    H2 3037   2.555   3.874   4.385 -1.3167  0.2709 -1.1039
 1011TIP3   OH2 3038   6.200   1.630   4.757  0.4926  0.3189  0.2383
 1011TIP3    H1 3039   6.206   1.725   4.748  2.6894  0.3131  1.2050
 1011TIP3    H2 3040   6.226   1.611   4.847  0.9083 -1.2674 -0.1722
 1012TIP3   OH2 3041   4.451   3.304   1.800 -0.3292  0.8016 -0.0287
 1012TIP3    H1 3042   4.521   3.317   1.737  0.1504 -1.3483 -0.0216
 1012TIP3    H2 3043   4.395   3.381   1.790  1.7301  2.3601 -0.3670
 1013TIP3   OH2 3044   1.702   2.043   0.663  0.0460  0.3081  0.1003
 1013TIP3    H1 3045   1.637   2.018   0.598  1.2366 -0.3187 -0.9030
 1013TIP3    H2 3046   1.674   2.000   0.743 -1.2042  0.7216 -0.0994
 1014TIP3   OH2 3047   5.845   2.663   4.786  0.7579  0.0799  0.1217
 1014TIP3    H1 3048   5.783   2.621   4.847 -1.9797  1.9242 -1.1745
 1014TIP3    H2 3049   5.873   2.592   4.728 -0.3072 -0.7963  0.6358
 1015TIP3   OH2 3050   4.311   5.319   2.662 -0.2890  0.1580  0.2194
 1015TIP3    H1 3051   4.377   5.257   2.692 -0.9766 -0.1035  1.2609
 1015TIP3    H2 3052   4.351   5.364   2.588  1.7288  1.2546  1.8710
 1016TIP3   OH2 3053   2.517   2.106   1.145 -0.1763  0.1614 -0.0587
 1016TIP3    H1 3054   2.531   2.013   1.162 -1.0660  0.1694  0.8252
 1016TIP3    H2 3055   2.591   2.133   1.091  0.6094 -0.8248  0.5151
 1017TIP3   OH2 3056   5.778   2.842   0.675 -0.1140  0.1639 -0.1694
 1017TIP3    H1 3057   5.862   2.853   0.720 -0.1695 -1.1587  0.2864
 1017TIP3    H2 3058   5.756   2.930   0.644  1.1620  0.6299  0.1942
 1018TIP3   OH2 3059   6.071   5.480   2.536 -0.5937  0.2292 -0.3635
 1018TIP3    H1 3060   6.102   5.432   2.460  0.6371 -0.2413  0.4163
 1018TIP3    H2 3061   6.101   5.570   2.522 -0.4232  0.1575 -0.4598
 1019TIP3   OH2 3062   2.622   2.293   3.579 -0.1071  0.3332  0.2140
 1019TIP3    H1 3063   2.716   2.300   3.563  0.3898 -1.9040  1.7780
 1019TIP3    H2 3064   2.592   2.226   3.517 -0.9969  1.9828 -1.2284
 1020TIP3   OH2 3065   5.676   2.858   2.315 -0.1498  0.3206 -1.0016
 1020TIP3    H1 3066   5.726   2.799   2.259 -1.2411  0.5028 -2.2181
 1020TIP3    H2 3067   5.606   2.804   2.351  1.5193 -0.2395  1.6656
 1021TIP3   OH2 3068   0.075   1.617   2.025  0.0154  0.1406  0.5471
 1021TIP3    H1 3069   0.092   1.562   2.101 -1.8684  1.0152  1.6799
 1021TIP3    H2 3070   0.115   1.702   2.048 -0.7643  0.4759  0.6924
 1022TIP3   OH2 3071   2.918   2.495   3.652  0.1816 -0.3975  0.3730
 1022TIP3    H1 3072   3.005   2.534   3.647 -0.2943  0.6750  0.2780
 1022TIP3    H2 3073   2.929   2.406   3.617  0.7274  0.5884 -2.1719
 1023TIP3   OH2 3074   1.457   0.754   0.926 -0.1326 -1.0672  0.2898
 1023TIP3    H1 3075   1.410   0.812   0.866 -1.8617 -0.9983  1.6110
 1023TIP3    H2 3076   1.517   0.812   0.973  0.3465 -0.9086 -0.5098
 1024TIP3   OH2 3077   1.114   0.402   0.292 -0.4417 -0.2440 -0.0652
 1024TIP3    H1 3078   1.108   0.460   0.367 -0.8481 -1.2066  0.6753
 1024TIP3    H2 3079   1.197   0.356   0.303 -0.2599 -0.0241 -0.4865
 1025TIP3   OH2 3080   4.736   1.100   3.094  0.2152 -0.1062  0.2611
 1025TIP3    H1 3081   4.649   1.068   3.074  0.1056  0.2433  0.1768
 1025TIP3    H2 3082   4.795   1.043   3.044  0.0654 -0.6301  0.6677
 1026TIP3   OH2 3083   0.332   5.468   1.359  0.0494 -0.5073  0.2308
 1026TIP3    H1 3084   0.381   5.427   1.288  1.6980  1.2722  0.2697
 1026TIP3    H2 3085   0.272   5.528   1.314  0.7072  0.2123  0.2929
 1027TIP3   OH2 3086   4.350   0.890   0.363 -0.3251  0.1752 -0.1648
 1027TIP3    H1 3087   4.269   0.839   0.369 -0.4501  0.2943 -0.7892
 1027TIP3    H2 3088   4.327   0.977   0.395 -0.6376  0.4174 -1.0181
 1028TIP3   OH2 3089   0.175   4.005   0.230 -0.1439 -0.0014  0.1125
 1028TIP3    H1 3090   0.195   4.054   0.310  1.7147 -2.9954  1.6628
 1028TIP3    H2 3091   0.210   4.060   0.160  0.7039  1.4623  1.5880
 1029TIP3   OH2 3092   4.018   3.855   1.376  0.0997 -0.1053 -0.4131
 1029TIP3    H1 3093   4.082   3.795   1.414  1.9670  1.3300 -1.1610
 1029TIP3    H2 3094   3.952   3.866   1.445 -0.0923 -2.6124 -0.0948
 1030TIP3   OH2 3095   6.216   3.417   3.131 -0.1252  0.5320 -0.3617
 1030TIP3    H1 3096   6.266   3.337   3.141 -0.4959  0.3485  0.0367
 1030TIP3    H2 3097   6.130   3.397   3.168 -0.3968  0.9386 -0.7508
 1031TIP3   OH2 3098   3.423   0.318   4.038  0.3129 -0.5723  0.0575
 1031TIP3    H1 3099   3.407   0.404   4.076  2.4960 -0.4262  0.7381
 1031TIP3    H2 3100   3.338   0.274   4.044  0.0178  0.1625  3.2897
 1032TIP3   OH2 3101   1.181   3.645   1.443 -1.0411 -0.4496 -0.6601
 1032TIP3    H1 3102   1.169   3.615   1.353  1.1955 -0.6722 -0.9310
 1032TIP3    H2 3103   1.258   3.598   1.474 -1.3868  0.1215  1.1554
 1033TIP3   OH2 3104   4.036   1.854   3.527  0.2338 -0.1817  0.2269
 1033TIP3    H1 3105   4.051   1.763   3.554 -0.3381 -0.2635  0.2953
 1033TIP3    H2 3106   4.075   1.860   3.440 -1.3986 -1.0600 -0.6237
 1034TIP3   OH2 3107   5.914   4.125   4.012 -0.1641 -0.4191  0.3223
 1034TIP3    H1 3108   5.984   4.186   3.990 -1.7271  0.4496 -2.7901
 1034TIP3    H2 3109   5.946   4.040   3.982  0.1859 -0.3277  0.4311
 1035TIP3   OH2 3110   1.955   2.446   4.337 -0.5311 -0.0840 -0.4046
 1035TIP3    H1 3111   1.883   2.401   4.292 -1.2611 -0.6140  1.1925
 1035TIP3    H2 3112   1.932   2.438   4.430  0.2471  2.0500  0.0107
 1036TIP3   OH2 3113   0.849   2.713   3.085  0.1947 -0.2175 -0.5240
 1036TIP3    H1 3114   0.862   2.655   3.009 -1.3000 -0.7016 -0.4512
 1036TIP3    H2 3115   0.756   2.702   3.107  0.6668 -0.2863  1.5504
 1037TIP3   OH2 3116   1.925   5.187   3.711 -0.5669 -0.5332 -0.6408
 1037TIP3    H1 3117   1.880   5.175   3.794  0.3314 -0.4778 -0.1309
 1037TIP3    H2 3118   1.856   5.211   3.649 -1.2996 -0.9353 -0.0013
 1038TIP3   OH2 3119   0.263   5.204   4.083 -0.9223  0.4394  0.4406
 1038TIP3    H1 3120   0.258   5.263   4.008  0.2728  1.1955  0.9244
 1038TIP3    H2 3121   0.275   5.261   4.158  2.4035 -0.3855  0.6984
 1039TIP3   OH2 3122   6.148   0.797   4.054 -0.0977 -0.1787  0.0534
 1039TIP3    H1 3123   6.202   0.751   3.989 -0.1718 -0.2245  0.0252
 1039TIP3    H2 3124   6.164   0.752   4.136 -1.5285 -1.3905 -0.2859
 1040TIP3   OH2 3125   1.037   0.300   3.807 -0.6078 -0.2466 -0.2088
 1040TIP3    H1 3126   1.094   0.286   3.731  0.1420 -1.9861  0.6241
 1040TIP3    H2 3127   0.961   0.346   3.772  0.4063  0.3612 -1.7150
 1041TIP3   OH2 3128   4.888   5.001   0.742 -0.1553 -0.3372  0.3536
 1041TIP3    H1 3129   4.916   5.092   0.753 -0.0120 -0.3870  0.4119
 1041TIP3    H2 3130   4.927   4.973   0.659 -0.3107 -0.3041  0.2695
 1042TIP3   OH2 3131   4.286   5.635   2.766 -0.0528 -0.0759  0.3279
 1042TIP3    H1 3132   4.197   5.659   2.741 -0.8435 -3.2155 -0.3753
 1042TIP3    H2 3133   4.312   5.570   2.701  2.1938 -0.3453  1.3906
 1043TIP3   OH2 3134   2.199   3.341   2.082  0.3423 -0.4746  0.4135
 1043TIP3    H1 3135   2.254   3.347   2.004  3.4082 -0.5599  2.4079
 1043TIP3    H2 3136   2.164   3.252   2.078  0.5699 -0.5361 -0.7695
 1044TIP3   OH2 3137   4.521   0.256   3.847  0.4954  0.3776  0.4434
 1044TIP3    H1 3138   4.555   0.238   3.759  0.0475  0.1081  0.3246
 1044TIP3    H2 3139   4.536   0.350   3.860  0.0414  0.5393 -0.1512
 1045TIP3   OH2 3140   5.192   4.150   4.441  0.4996 -0.0853 -0.2114
 1045TIP3    H1 3141   5.137   4.103   4.377 -0.5155  1.5787 -0.6480
 1045TIP3    H2 3142   5.170   4.110   4.525 -0.6230 -0.1478 -0.5127
 1046TIP3   OH2 3143   4.346   0.916   1.575 -0.0227  0.1542 -0.2396
 1046TIP3    H1 3144   4.414   0.961   1.525  1.5319 -0.6913  1.0095
 1046TIP3    H2 3145   4.394   0.866   1.641 -1.9161  0.4081  1.4355
 1047TIP3   OH2 3146   0.403   0.577   3.718 -0.5981 -0.0240  0.2529
 1047TIP3    H1 3147   0.389   0.482   3.728 -0.9119  0.1293  1.5358
 1047TIP3    H2 3148   0.365   0.598   3.633 -0.2096 -1.1088 -0.2071
 1048TIP3   OH2 3149   5.927   5.435   4.112 -0.1411 -0.3769 -0.2574
 1048TIP3    H1 3150   5.954   5.519   4.075  0.1752 -0.1764  0.4067
 1048TIP3    H2 3151   5.836   5.423   4.083 -0.6289  0.8194  0.7127
 1049TIP3   OH2 3152   5.077   3.994   1.133 -0.3142 -0.1471 -0.4086
 1049TIP3    H1 3153   5.092   4.009   1.040  0.4055  1.1028 -0.1238
 1049TIP3    H2 3154   4.983   4.008   1.145 -0.5315 -0.9713 -1.0385
 1050TIP3   OH2 3155   2.196   0.173   4.034 -0.3293 -0.3597 -0.4018
 1050TIP3    H1 3156   2.213   0.234   4.105  0.8754 -0.7829 -0.3087
 1050TIP3    H2 3157   2.114   0.130   4.058 -0.2556 -0.0479  0.4185
 1051TIP3   OH2 3158   0.475   4.923   0.672  0.0740  0.2844  0.3065
 1051TIP3    H1 3159   0.389   4.901   0.636  0.1203  0.9007 -0.2015
 1051TIP3    H2 3160   0.509   4.841   0.707  0.2762 -0.4840 -1.5984
 1052TIP3   OH2 3161   3.845   4.229   2.353 -0.2241  0.3693  0.3266
 1052TIP3    H1 3162   3.785   4.206   2.423 -1.1454  0.5336 -0.3874
 1052TIP3    H2 3163   3.860   4.146   2.307 -1.2920  0.6345 -0.5346
 1053TIP3   OH2 3164   6.209   4.626   1.391  0.3311 -0.1733  0.1895
 1053TIP3    H1 3165   6.281   4.684   1.417  0.8785 -0.4299 -0.6858
 1053TIP3    H2 3166   6.232   4.541   1.427  0.8222 -0.4077 -0.6411
 1054TIP3   OH2 3167   3.766   0.215   4.913  0.4006 -0.3550 -0.7171
 1054TIP3    H1 3168   3.710   0.285   4.880  0.2692 -0.5341 -0.8787
 1054TIP3    H2 3169   3.853   0.237   4.881  0.4059 -0.1179 -0.5339
 1055TIP3   OH2 3170   1.270   2.104   2.224  0.0264 -0.2403 -0.1426
 1055TIP3    H1 3171   1.280   2.041   2.295  1.5525 -0.3499 -0.4150
 1055TIP3    H2 3172   1.176   2.113   2.212 -0.2209 -2.5016 -0.1496
 1056TIP3   OH2 3173   4.565   5.413   2.028  0.4089  0.1937  0.1822
 1056TIP3    H1 3174   4.599   5.326   2.005 -1.4326 -0.8907  1.3309
 1056TIP3    H2 3175   4.475   5.413   1.994  0.2325  1.4731  0.6040
 1057TIP3   OH2 3176   4.743   5.288   4.328 -0.0107 -0.2834 -0.1755
 1057TIP3    H1 3177   4.678   5.301   4.259 -0.2446 -0.5847 -0.0140
 1057TIP3    H2 3178   4.801   5.365   4.322 -0.3353 -0.0542 -0.3672
 1058TIP3   OH2 3179   2.181   4.415   1.567 -0.3502  0.3619 -0.0100
 1058TIP3    H1 3180   2.135   4.332   1.561  1.3480 -0.7217  1.0060
 1058TIP3    H2 3181   2.243   4.414   1.494  1.7972 -0.7451  1.6957
 1059TIP3   OH2 3182   0.261   0.622   3.495  0.0540 -0.1092 -0.2928
 1059TIP3    H1 3183   0.264   0.538   3.449 -3.5092 -0.7092  0.3405
 1059TIP3    H2 3184   0.203   0.676   3.442  0.2916  1.1161  0.6482
 1060TIP3   OH2 3185   0.277   3.999   1.847  0.0950  0.8690 -0.1351
 1060TIP3    H1 3186   0.221   3.927   1.878 -0.2454  0.8937 -0.6796
 1060TIP3    H2 3187   0.356   3.993   1.901  0.0757  0.0713 -0.1746
 1061TIP3   OH2 3188   0.654   5.169   3.284  0.4001 -0.2271 -0.1978
 1061TIP3    H1 3189   0.640   5.195   3.193  1.7264 -1.5546 -0.8292
 1061TIP3    H2 3190   0.567   5.145   3.316 -0.2969  1.5764 -0.6495
 1062TIP3   OH2 3191   3.058   3.782   5.015 -0.0107 -0.4054 -0.1764
 1062TIP3    H1 3192   3.084   3.839   5.087 -0.0044  0.1154 -0.5883
 1062TIP3    H2 3193   3.056   3.839   4.938  0.4446 -1.0531 -0.6819
 1063TIP3   OH2 3194   1.314   3.304   0.503 -0.0983  0.1009 -0.4307
 1063TIP3    H1 3195   1.261   3.225   0.504  0.1452 -0.0549  0.1583
 1063TIP3    H2 3196   1.269   3.362   0.440  0.0642 -0.7267 -1.3284
 1064TIP3   OH2 3197   2.609   4.737   4.378 -0.1784 -0.5110 -0.2207
 1064TIP3    H1 3198   2.637   4.829   4.383  0.3570 -0.5334 -2.0633
 1064TIP3    H2 3199   2.514   4.741   4.374 -0.2793 -0.1749  1.5762
 1065TIP3   OH2 3200   6.188   2.722   0.144  0.1084 -0.6976  0.0940
 1065TIP3    H1 3201   6.269   2.768   0.120  1.1650 -2.6347 -0.2615
 1065TIP3    H2 3202   6.155   2.686   0.062  0.5186 -2.3798  0.6237
 1066TIP3   OH2 3203   5.012   2.929   4.138 -0.1817 -0.6602  0.4761
 1066TIP3    H1 3204   5.105   2.954   4.134 -0.4728  0.6122  1.3402
 1066TIP3    H2 3205   4.973   2.972   4.061  0.0787 -1.9075 -0.3871
 1067TIP3   OH2 3206   1.168   4.683   3.385 -0.2724 -0.1427  0.5513
 1067TIP3    H1 3207   1.150   4.765   3.430 -1.9543 -0.7932  1.1378
 1067TIP3    H2 3208   1.088   4.663   3.338  0.2564 -1.2401  0.0804
 1068TIP3   OH2 3209   3.525   2.544   0.372 -0.2363  0.0859 -0.4771
 1068TIP3    H1 3210   3.559   2.559   0.284  0.6915 -1.1631 -0.3611
 1068TIP3    H2 3211   3.584   2.593   0.429 -0.2890  0.1509 -0.4780
 1069TIP3   OH2 3212   3.606   3.191   1.967  0.1284  0.1991  0.2799
 1069TIP3    H1 3213   3.571   3.131   2.033  0.1332 -1.1962 -0.9455
 1069TIP3    H2 3214   3.691   3.154   1.943 -0.7647 -0.5257 -1.9966
 1070TIP3   OH2 3215   0.199   3.856   4.193 -0.1535  0.3930  0.5308
 1070TIP3    H1 3216   0.283   3.815   4.214 -1.0649 -1.7514  0.1905
 1070TIP3    H2 3217   0.158   3.871   4.278 -0.2722 -0.4637  0.6349
 1071TIP3   OH2 3218   0.303   1.877   3.454 -0.2558  0.3065  0.7505
 1071TIP3    H1 3219   0.311   1.815   3.382 -0.0583  0.4312  0.6641
 1071TIP3    H2 3220   0.383   1.865   3.505 -0.2813  0.3927  0.8114
 1072TIP3   OH2 3221   5.637   0.203   3.176  0.2495 -0.0525  0.0111
 1072TIP3    H1 3222   5.561   0.158   3.140 -0.6015  1.0000  0.4103
 1072TIP3    H2 3223   5.605   0.292   3.195  1.7335  0.5862 -0.3316
 1073TIP3   OH2 3224   4.949   2.302   2.005 -0.0343  0.9167 -0.0832
 1073TIP3    H1 3225   5.034   2.261   1.992 -0.6148 -0.2744 -0.2761
 1073TIP3    H2 3226   4.957   2.351   2.087  0.5672  0.0888  0.3592
 1074TIP3   OH2 3227   5.983   4.761   5.089 -0.2385 -0.7108 -0.3506
 1074TIP3    H1 3228   6.076   4.770   5.067 -0.0873 -1.7813 -0.2094
 1074TIP3    H2 3229   5.945   4.715   5.014 -0.4169 -1.3018  0.0955
 1075TIP3   OH2 3230   2.762   4.277   3.845  0.3511 -0.0604  0.3152
 1075TIP3    H1 3231   2.733   4.252   3.932  1.6991 -0.9593  0.5274
 1075TIP3    H2 3232   2.832   4.216   3.824 -0.0799  0.0067 -1.4880
 1076TIP3   OH2 3233   3.406   2.778   2.793 -0.3974  0.6430  0.6849
 1076TIP3    H1 3234   3.354   2.732   2.728  1.2515 -1.3536  0.6981
 1076TIP3    H2 3235   3.453   2.710   2.841  1.5754  2.2501  1.2381
 1077TIP3   OH2 3236   3.899   1.249   5.054  0.1493  0.5590 -0.2344
 1077TIP3    H1 3237   3.954   1.271   4.979 -0.0470  0.9258 -0.2702
 1077TIP3    H2 3238   3.904   1.325   5.112 -1.9959  1.5133 -1.2045
 1078TIP3   OH2 3239   4.992   3.544   1.687 -0.2588  0.1837  0.1649
 1078TIP3    H1 3240   5.070   3.490   1.678  0.9195  2.0031 -1.2760
 1078TIP3    H2 3241   5.015   3.609   1.754 -0.9567  0.0393  0.5522
 1079TIP3   OH2 3242   4.657   1.142   2.293  0.0400  0.0976 -0.3982
 1079TIP3    H1 3243   4.688   1.181   2.375  0.5102  0.2702 -0.6564
 1079TIP3    H2 3244   4.728   1.084   2.266 -0.6147 -0.8997 -0.0618
 1080TIP3   OH2 3245   6.000   5.562   2.210  0.6477 -0.0906  0.1328
 1080TIP3    H1 3246   6.066   5.504   2.250 -0.8809 -1.0210  1.4193
 1080TIP3    H2 3247   5.942   5.502   2.163 -0.5452  0.4693  0.8663
 1081TIP3   OH2 3248   3.513   2.204   3.645  0.5354  0.1719  0.3345
 1081TIP3    H1 3249   3.530   2.208   3.739 -1.6157 -0.6339  0.8311
 1081TIP3    H2 3250   3.475   2.117   3.632  1.6587 -0.0910 -1.4690
 1082TIP3   OH2 3251   0.610   5.349   1.599 -0.0972 -0.3153 -0.5620
 1082TIP3    H1 3252   0.665   5.343   1.677  1.2767 -0.6765 -1.5205
 1082TIP3    H2 3253   0.521   5.357   1.633  0.4951 -0.1255  1.0355
 1083TIP3   OH2 3254   0.589   3.990   1.585  0.2182 -0.0557  0.3133
 1083TIP3    H1 3255   0.509   3.940   1.567  1.1904 -1.6951  0.2929
 1083TIP3    H2 3256   0.564   4.052   1.653 -0.6144 -1.9383  1.8133
 1084TIP3   OH2 3257   3.084   2.589   4.187  0.4196  0.4821 -0.2163
 1084TIP3    H1 3258   3.027   2.533   4.239  0.4525 -0.0454 -0.7553
 1084TIP3    H2 3259   3.148   2.623   4.251  1.2038 -1.1117 -0.1054
 1085TIP3   OH2 3260   4.639   5.471   4.136 -0.0969 -0.3412 -0.3450
 1085TIP3    H1 3261   4.656   5.536   4.067 -0.0984  0.6796  0.5896
 1085TIP3    H2 3262   4.580   5.408   4.095 -0.0331  0.1977 -1.3053
 1086TIP3   OH2 3263   5.193   4.461   3.392 -0.1812  0.4515 -0.3227
 1086TIP3    H1 3264   5.219   4.424   3.477  0.1196  1.9772  0.2737
 1086TIP3    H2 3265   5.178   4.554   3.409 -2.0787  0.4326 -1.5248
 1087TIP3   OH2 3266   3.147   5.085   0.325 -0.3021  0.7593  0.2247
 1087TIP3    H1 3267   3.093   5.118   0.397 -0.2580  0.3429  0.4532
 1087TIP3    H2 3268   3.233   5.070   0.366  0.3992  2.6691 -0.4160
 1088TIP3   OH2 3269   1.050   5.238   4.457  0.1384 -0.4650 -0.2034
 1088TIP3    H1 3270   1.030   5.311   4.399  0.0785  0.7254  1.2759
 1088TIP3    H2 3271   1.145   5.239   4.465 -0.0355  2.1614  3.1035
 1089TIP3   OH2 3272   2.165   5.579   3.228 -0.0362 -0.2433  0.4127
 1089TIP3    H1 3273   2.198   5.633   3.156 -2.6486 -0.0426 -0.7483
 1089TIP3    H2 3274   2.132   5.500   3.185  0.5715 -1.2437  1.7131
 1090TIP3   OH2 3275   0.576   1.069   3.846  0.1356  0.0425  0.3672
 1090TIP3    H1 3276   0.625   1.137   3.801 -1.6283  0.7888 -0.4893
 1090TIP3    H2 3277   0.544   1.012   3.776  2.8692 -2.7096  1.1048
 1091TIP3   OH2 3278   2.042   1.834   2.766  0.1846  0.3962 -0.0379
 1091TIP3    H1 3279   2.126   1.850   2.722  0.1348  3.9157  0.7883
 1091TIP3    H2 3280   1.984   1.901   2.730 -1.3888 -0.0552  1.5472
 1092TIP3   OH2 3281   4.120   2.277   4.796  0.2358  0.0279 -0.9831
 1092TIP3    H1 3282   4.045   2.238   4.751 -0.1938  2.1147 -2.1848
 1092TIP3    H2 3283   4.096   2.276   4.889 -1.0105  0.1094 -1.2928
 1093TIP3   OH2 3284   0.569   4.711   4.630  0.0691 -0.1032 -0.0846
 1093TIP3    H1 3285   0.613   4.629   4.610  1.0501  0.4779 -0.3927
 1093TIP3    H2 3286   0.479   4.698   4.603  0.3693 -0.8546 -0.7473
 1094TIP3   OH2 3287   3.725   5.136   5.048  0.1261  0.4924  0.0731
 1094TIP3    H1 3288   3.688   5.052   5.076  2.5852  0.1398  2.7297
 1094TIP3    H2 3289   3.670   5.201   5.090 -1.7764  0.3041 -1.9714
 1095TIP3   OH2 3290   4.459   3.871   2.408  0.4409  0.1482  0.2269
 1095TIP3    H1 3291   4.496   3.893   2.494  1.8159  1.1890 -0.6034
 1095TIP3    H2 3292   4.510   3.796   2.379  1.9733  1.5648 -0.9060
 1096TIP3   OH2 3293   2.816   4.062   4.567 -0.0631 -0.3350  0.0901
 1096TIP3    H1 3294   2.723   4.056   4.588 -0.0280  0.5796  0.5131
 1096TIP3    H2 3295   2.851   4.125   4.629  0.9406 -1.0101  0.2382
 1097TIP3   OH2 3296   5.359   5.192   3.925 -0.1168 -0.0037  0.7794
 1097TIP3    H1 3297   5.277   5.224   3.886 -1.1445 -0.5204  2.3859
 1097TIP3    H2 3298   5.367   5.241   4.007  1.5382  0.4654  0.3741
 1098TIP3   OH2 3299   3.925   1.172   3.942 -0.2786 -0.1380  0.3953
 1098TIP3    H1 3300   3.840   1.217   3.938 -0.2049 -0.0441 -0.2180
 1098TIP3    H2 3301   3.960   1.195   4.028 -1.8598 -1.9849  1.6322
 1099TIP3   OH2 3302   3.890   3.749   0.317  0.1516  0.0420 -0.3163
 1099TIP3    H1 3303   3.968   3.720   0.269 -0.0208 -1.0713  0.0378
 1099TIP3    H2 3304   3.817   3.710   0.269 -0.0554 -0.6373  0.5322
 1100TIP3   OH2 3305   4.151   0.901   4.451  0.3135 -0.8056 -0.0619
 1100TIP3    H1 3306   4.240   0.868   4.438  0.6116 -0.4205  0.9160
 1100TIP3    H2 3307   4.135   0.891   4.545 -0.5635 -0.5777 -0.1753
 1101TIP3   OH2 3308   5.544   0.999   1.932 -0.1330  0.0500  0.1549
 1101TIP3    H1 3309   5.594   0.927   1.895  0.6229  0.8170 -0.3675
 1101TIP3    H2 3310   5.603   1.075   1.926 -0.8990  0.7058  0.6900
 1102TIP3   OH2 3311   1.905   2.861   0.304 -0.2282  0.0128  0.6557
 1102TIP3    H1 3312   1.888   2.946   0.345  0.1135  0.7307 -0.6117
 1102TIP3    H2 3313   1.819   2.833   0.271 -0.1578  0.4227  0.0985
 1103TIP3   OH2 3314   0.541   5.909   0.374  0.4392  0.0764  0.5366
 1103TIP3    H1 3315   0.568   5.922   0.465  1.1327 -0.6114  0.4398
 1103TIP3    H2 3316   0.552   5.994   0.333 -0.9714  0.6852  1.3590
 1104TIP3   OH2 3317   5.101   5.086   1.119  0.4067  0.3974 -0.8284
 1104TIP3    H1 3318   5.147   5.032   1.054 -0.4166 -1.5714  0.1510
 1104TIP3    H2 3319   5.017   5.107   1.078  0.1675 -0.2575 -0.6837
 1105TIP3   OH2 3320   4.240   0.721   3.160  0.0038 -0.8294  0.5485
 1105TIP3    H1 3321   4.159   0.768   3.177 -0.2496 -1.8222  2.3976
 1105TIP3    H2 3322   4.216   0.653   3.097 -0.2689 -0.2594  0.0318
 1106TIP3   OH2 3323   6.236   3.888   0.432  0.5476  0.3481  0.5648
 1106TIP3    H1 3324   6.311   3.862   0.485  0.2339 -0.1020  0.7890
 1106TIP3    H2 3325   6.244   3.984   0.426  1.4946  0.2508  0.0424
 1107TIP3   OH2 3326   5.701   3.021   5.177 -0.5805  0.1691  0.7420
 1107TIP3    H1 3327   5.717   2.936   5.135 -0.2811 -0.3350  1.8321
 1107TIP3    H2 3328   5.610   3.016   5.206 -0.6805  0.3742  0.4594
 1108TIP3   OH2 3329   1.795   1.171   2.910  0.1865 -0.1231  0.2652
 1108TIP3    H1 3330   1.742   1.231   2.962  0.1933 -0.1227  0.2718
 1108TIP3    H2 3331   1.742   1.153   2.833  0.5115  0.5065 -0.1125
 1109TIP3   OH2 3332   2.385  -0.009   2.929  0.1138 -0.1598 -0.3316
 1109TIP3    H1 3333   2.439   0.030   2.997 -0.4371  2.0517 -1.0998
 1109TIP3    H2 3334   2.296   0.015   2.952 -0.1599 -0.1508 -1.3627
 1110TIP3   OH2 3335   2.029   5.460   1.802 -1.0634 -0.5198 -0.2370
 1110TIP3    H1 3336   2.068   5.375   1.822  1.3440 -0.1437 -2.7499
 1110TIP3    H2 3337   2.018   5.502   1.888 -0.7248 -2.6554  0.9262
 1111TIP3   OH2 3338   1.321   1.898   4.606  0.0325  0.0632 -0.1849
 1111TIP3    H1 3339   1.240   1.941   4.632 -0.8712 -0.3785 -2.1277
 1111TIP3    H2 3340   1.312   1.808   4.639 -0.3199 -0.0136 -0.4888
 1112TIP3   OH2 3341   5.990   3.678   1.353 -0.5038 -0.4587  0.2703
 1112TIP3    H1 3342   6.001   3.767   1.387  0.5135 -0.0351 -1.0436
 1112TIP3    H2 3343   5.929   3.636   1.413 -1.1975  1.2047  0.7837
 1113TIP3   OH2 3344   5.680   3.228   3.571  1.0929  0.0964  0.3902
 1113TIP3    H1 3345   5.727   3.295   3.522 -1.1916  1.0615 -0.6251
 1113TIP3    H2 3346   5.729   3.220   3.653  4.2159 -0.5547 -1.3778
 1114TIP3   OH2 3347   3.167   0.265   2.847 -0.2425  0.5099  0.1260
 1114TIP3    H1 3348   3.143   0.204   2.778  1.2388  1.7524 -1.5711
 1114TIP3    H2 3349   3.116   0.237   2.923 -3.4818  0.3122 -1.9508
 1115TIP3   OH2 3350   3.011   4.716   4.783  0.4778 -0.4334 -0.4796
 1115TIP3    H1 3351   3.059   4.768   4.718  0.0979 -0.2200 -0.5936
 1115TIP3    H2 3352   3.059   4.729   4.865 -0.2149  0.9961 -0.2614
 1116TIP3   OH2 3353   3.233   2.310   4.364  0.1266 -0.3952  0.4700
 1116TIP3    H1 3354   3.295   2.276   4.299 -0.6364  2.6248 -2.1304
 1116TIP3    H2 3355   3.274   2.390   4.397 -1.2532  0.2782  0.6362
 1117TIP3   OH2 3356   2.916   0.235   0.586  0.2883 -0.9618 -0.2833
 1117TIP3    H1 3357   2.831   0.190   0.586 -0.4506  0.3674 -1.0449
 1117TIP3    H2 3358   2.965   0.194   0.516 -0.9260  0.3192 -1.9736
 1118TIP3   OH2 3359   2.404   0.616   0.569  0.5213 -0.3249  0.9345
 1118TIP3    H1 3360   2.428   0.544   0.511 -0.3115 -0.2049  0.4236
 1118TIP3    H2 3361   2.435   0.588   0.656  1.5954 -0.5948  0.4828
 1119TIP3   OH2 3362   6.152   3.471   1.341 -0.2768  0.2950  0.3696
 1119TIP3    H1 3363   6.081   3.536   1.334 -2.6831 -2.0948  0.9265
 1119TIP3    H2 3364   6.189   3.486   1.428  0.6131  2.1733 -0.2738
 1120TIP3   OH2 3365   1.761   0.218   2.896 -0.2846 -0.5167 -0.5061
 1120TIP3    H1 3366   1.821   0.293   2.888  0.2893 -0.9167  0.0193
 1120TIP3    H2 3367   1.818   0.144   2.918 -0.9406 -0.9575 -0.2768
 1121TIP3   OH2 3368   4.206   4.701   2.901 -0.2635  0.0983  0.1235
 1121TIP3    H1 3369   4.263   4.675   2.828 -0.0560 -0.9355  0.6336
 1121TIP3    H2 3370   4.121   4.662   2.880 -0.2525 -0.0416  0.3349
 1122TIP3   OH2 3371   1.699   2.937   3.669 -0.4154 -0.3485 -0.1469
 1122TIP3    H1 3372   1.648   3.018   3.680 -1.5183 -0.9251 -0.8143
 1122TIP3    H2 3373   1.691   2.916   3.576 -0.2799 -1.3117  0.0500
 1123TIP3   OH2 3374   5.456   1.849   2.536 -0.1031 -0.8478  0.2952
 1123TIP3    H1 3375   5.450   1.848   2.441  2.1982  0.9546  0.0262
 1123TIP3    H2 3376   5.519   1.780   2.557  0.9914  0.1126  0.2741
 1124TIP3   OH2 3377   3.847   0.035   5.105 -0.3112  0.1952 -0.5996
 1124TIP3    H1 3378   3.930  -0.011   5.097 -1.1326 -1.5159  0.2510
 1124TIP3    H2 3379   3.844   0.092   5.027  0.1624 -2.1710 -2.4576
 1125TIP3   OH2 3380   1.197   2.222   4.446 -0.1090  0.2840  0.3725
 1125TIP3    H1 3381   1.277   2.256   4.405 -0.4289  1.6607  0.8634
 1125TIP3    H2 3382   1.204   2.249   4.538 -0.0118 -1.6673  0.9841
 1126TIP3   OH2 3383   1.513   2.297   2.848  0.5208 -0.0640  0.2440
 1126TIP3    H1 3384   1.492   2.310   2.940  1.8946 -0.8713  0.7118
 1126TIP3    H2 3385   1.432   2.264   2.809 -1.4961  4.3950  0.1036
 1127TIP3   OH2 3386   5.361   5.068   4.305  0.2279  0.2882  0.0623
 1127TIP3    H1 3387   5.317   5.002   4.252  1.2741 -0.8603  0.5587
 1127TIP3    H2 3388   5.380   5.139   4.244 -1.2743  0.3168 -0.3978
 1128TIP3   OH2 3389   0.526   4.251   4.316  0.4954  0.8754 -0.5845
 1128TIP3    H1 3390   0.580   4.213   4.385  0.0268 -1.6412 -1.5241
 1128TIP3    H2 3391   0.437   4.220   4.334  0.6406 -1.4132 -3.2647
 1129TIP3   OH2 3392   0.171   1.860   1.204 -0.0260  0.7561 -0.0852
 1129TIP3    H1 3393   0.224   1.916   1.146  1.7718 -0.9597 -0.2128
 1129TIP3    H2 3394   0.234   1.797   1.239 -1.4956  0.4278  2.0952
 1130TIP3   OH2 3395   0.506   2.632   4.407 -0.1011  0.4202  0.1520
 1130TIP3    H1 3396   0.589   2.590   4.383  0.2447  0.0341  1.9154
 1130TIP3    H2 3397   0.512   2.719   4.368  0.4728 -0.0982 -1.0023
 1131TIP3   OH2 3398   5.715   0.039   4.534  0.6100  0.2360  0.5549
 1131TIP3    H1 3399   5.700   0.132   4.549  1.7214  0.3630  0.9264
 1131TIP3    H2 3400   5.645   0.013   4.474  0.0641  1.2174  0.7517
 1132TIP3   OH2 3401   3.957   0.179   1.543  0.2574 -0.6235  0.6074
 1132TIP3    H1 3402   3.950   0.249   1.478 -0.4607 -1.7560 -0.6044
 1132TIP3    H2 3403   3.873   0.180   1.589  0.5135 -0.2445  1.0681
 1133TIP3   OH2 3404   4.569   0.929   0.739 -0.5650  0.6220  0.2243
 1133TIP3    H1 3405   4.622   0.851   0.746 -0.5525  0.7400  1.8628
 1133TIP3    H2 3406   4.481   0.897   0.720 -0.3768  0.2848 -0.0869
 1134TIP3   OH2 3407   1.863   1.836   1.572  0.4784 -0.2018 -0.2073
 1134TIP3    H1 3408   1.882   1.750   1.609  2.2481  0.8096  1.3758
 1134TIP3    H2 3409   1.934   1.893   1.603  0.7301  1.3252 -3.1544
 1135TIP3   OH2 3410   0.314   4.617   0.420  0.2993 -0.1222 -0.1860
 1135TIP3    H1 3411   0.375   4.617   0.346  0.0696 -0.3530 -0.3771
 1135TIP3    H2 3412   0.236   4.661   0.387  0.1007 -0.4504 -0.1618
 1136TIP3   OH2 3413   3.348   0.555   1.832  0.3162  0.5714  0.3839
 1136TIP3    H1 3414   3.352   0.601   1.916  0.0900  2.4026 -0.5726
 1136TIP3    H2 3415   3.258   0.566   1.802  0.0766 -1.0494  0.3819
 1137TIP3   OH2 3416   0.091   1.208   3.152  0.2944 -0.1976  0.1140
 1137TIP3    H1 3417   0.162   1.271   3.143 -0.4307  0.4882 -1.1194
 1137TIP3    H2 3418   0.121   1.130   3.104  0.9088 -0.5551  1.0624
 1138TIP3   OH2 3419   2.112   3.123   2.825  0.2779  0.2234  0.1696
 1138TIP3    H1 3420   2.023   3.142   2.854 -0.2794 -0.0934 -1.2303
 1138TIP3    H2 3421   2.152   3.210   2.813 -0.3684  0.4218 -0.6673
 1139TIP3   OH2 3422   0.058   2.497   1.529  0.0156  0.1139  0.1958
 1139TIP3    H1 3423   0.074   2.403   1.541 -2.6627 -0.8162 -2.2280
 1139TIP3    H2 3424  -0.014   2.517   1.588 -0.8201  0.0645 -0.7755
 1140TIP3   OH2 3425   0.501   2.730   5.007  0.1265  0.3013 -0.4111
 1140TIP3    H1 3426   0.521   2.763   4.920 -0.6042  3.6926  0.5147
 1140TIP3    H2 3427   0.586   2.709   5.046  0.5217 -0.3721 -1.6106
 1141TIP3   OH2 3428   0.059   1.583   0.078  0.1365  0.1630 -0.2302
 1141TIP3    H1 3429   0.092   1.529   0.150  3.0453  0.5873 -1.0899
 1141TIP3    H2 3430   0.044   1.669   0.118  0.9029  0.1601  0.0915
 1142TIP3   OH2 3431   3.694   5.600   3.367 -0.2155 -0.2855  0.5405
 1142TIP3    H1 3432   3.702   5.529   3.430 -0.5107 -0.9286 -0.1386
 1142TIP3    H2 3433   3.615   5.580   3.317 -1.5461  1.6196  1.7017
 1143TIP3   OH2 3434   1.466   4.215   0.111  0.1755 -0.1954  0.8783
 1143TIP3    H1 3435   1.456   4.190   0.019 -0.0892  1.2468  0.4904
 1143TIP3    H2 3436   1.558   4.237   0.120 -0.2613  2.1475  0.2529
 1144TIP3   OH2 3437   0.597   5.586   3.220  0.0751  0.3688  0.1459
 1144TIP3    H1 3438   0.540   5.609   3.147  0.6686  0.4273 -0.3045
 1144TIP3    H2 3439   0.686   5.597   3.186  0.3754 -1.3207  0.3093
 1145TIP3   OH2 3440   0.268   1.945   4.881 -0.1020  0.7329  0.3956
 1145TIP3    H1 3441   0.228   2.015   4.934  1.0312  1.2283  0.6274
 1145TIP3    H2 3442   0.194   1.889   4.857 -0.7168  0.6990  2.1816
 1146TIP3   OH2 3443   1.396   3.030   2.713  1.0668  0.0358  0.2630
 1146TIP3    H1 3444   1.326   3.081   2.753  1.6506  0.7637  0.3760
 1146TIP3    H2 3445   1.441   2.989   2.787 -0.8700 -2.6752  0.0745
 1147TIP3   OH2 3446   1.558   2.953   1.253  0.1338  0.3161 -0.9546
 1147TIP3    H1 3447   1.516   3.032   1.287 -0.2586  0.2247 -1.2115
 1147TIP3    H2 3448   1.636   2.985   1.208 -0.4744  0.6567 -1.7968
 1148TIP3   OH2 3449   1.209   1.323   3.577 -0.0389  0.7453 -0.2669
 1148TIP3    H1 3450   1.130   1.377   3.587  0.8315  2.0749 -0.2394
 1148TIP3    H2 3451   1.236   1.304   3.666 -0.0229  0.7660 -0.2674
 1149TIP3   OH2 3452   0.195   4.126   2.562  0.1212 -0.3597  0.0035
 1149TIP3    H1 3453   0.222   4.218   2.561  1.0273 -0.6122 -0.9244
 1149TIP3    H2 3454   0.107   4.126   2.524 -0.3302  0.2303  1.0162
 1150TIP3   OH2 3455   2.851   4.731   5.149  0.4581  0.0121  0.8370
 1150TIP3    H1 3456   2.914   4.786   5.197 -1.2339  1.0297  1.9824
 1150TIP3    H2 3457   2.821   4.667   5.213 -0.8656  0.5649  0.7908
 1151TIP3   OH2 3458   1.753   2.196   4.198  0.3676  0.1458  0.5226
 1151TIP3    H1 3459   1.734   2.240   4.281  3.1546 -0.8167  1.7869
 1151TIP3    H2 3460   1.754   2.266   4.133 -2.0940  0.8933  1.1512
 1152TIP3   OH2 3461   0.300   1.679   2.208  0.0154  0.1241 -0.2863
 1152TIP3    H1 3462   0.343   1.684   2.122 -0.6343 -0.8192 -0.6923
 1152TIP3    H2 3463   0.267   1.768   2.223  0.8289  0.4922 -0.6444
 1153TIP3   OH2 3464   2.849   4.558   4.931 -0.0566 -0.4663 -0.1564
 1153TIP3    H1 3465   2.901   4.610   4.869 -0.4956 -1.1168 -1.0929
 1153TIP3    H2 3466   2.825   4.619   5.000 -0.3322  0.5086 -1.0976
 1154TIP3   OH2 3467   6.024   2.238   5.093 -0.1152  0.3101  0.2560
 1154TIP3    H1 3468   5.963   2.168   5.068 -0.8035  0.8393  0.4274
 1154TIP3    H2 3469   5.969   2.315   5.103  0.5828  0.7874  0.4720
 1155TIP3   OH2 3470   5.989   5.466   1.309 -0.0842 -0.4372  0.5731
 1155TIP3    H1 3471   5.912   5.437   1.260 -2.3537  2.1659  2.2804
 1155TIP3    H2 3472   6.054   5.483   1.242 -1.7542 -0.6120 -1.1900
 1156TIP3   OH2 3473   3.677   4.521   4.134  0.3884  0.5508 -0.1024
 1156TIP3    H1 3474   3.668   4.616   4.144 -1.2511  0.3003  1.2694
 1156TIP3    H2 3475   3.755   4.510   4.081 -1.4353  2.7954 -3.6750
 1157TIP3   OH2 3476   5.757   5.870   5.046  0.1078  0.3133 -0.3949
 1157TIP3    H1 3477   5.713   5.893   5.128  0.0910  1.6402 -0.7459
 1157TIP3    H2 3478   5.737   5.777   5.033 -1.6962  0.6150 -0.0027
 1158TIP3   OH2 3479   1.240   2.658   2.985 -0.8072  0.8412  0.5454
 1158TIP3    H1 3480   1.326   2.649   2.945 -1.4714  1.0718 -1.0129
 1158TIP3    H2 3481   1.190   2.583   2.953 -1.2880  0.8749  1.1812
 1159TIP3   OH2 3482   3.412   2.307   0.490 -0.0922 -0.2880  0.4463
 1159TIP3    H1 3483   3.480   2.319   0.557 -0.8647  0.0924  1.1692
 1159TIP3    H2 3484   3.417   2.386   0.437  0.1899 -0.3711  0.3438
 1160TIP3   OH2 3485   0.715   1.508   4.864 -0.2248 -0.5284 -0.2571
 1160TIP3    H1 3486   0.810   1.515   4.877 -0.5976  2.1115  1.9515
 1160TIP3    H2 3487   0.697   1.414   4.874  2.1235 -1.1164 -0.8310
 1161TIP3   OH2 3488   0.523   2.470   2.125 -0.2253 -1.3929 -0.0398
 1161TIP3    H1 3489   0.523   2.403   2.057  1.4366 -0.8802 -0.5999
 1161TIP3    H2 3490   0.504   2.422   2.206  0.9293 -2.5753 -0.4351
 1162TIP3   OH2 3491   1.223   4.028   1.999  0.1813  0.2599  0.4198
 1162TIP3    H1 3492   1.225   4.110   1.949  1.2245 -0.6703 -1.1728
 1162TIP3    H2 3493   1.294   4.037   2.063 -0.1899  0.8937  0.7419
 1163TIP3   OH2 3494   5.145   5.502   1.688 -0.5506  0.3047  0.0769
 1163TIP3    H1 3495   5.174   5.519   1.599  0.4121  0.3275  0.3799
 1163TIP3    H2 3496   5.196   5.426   1.716 -2.5437 -1.1787 -0.1869
 1164TIP3   OH2 3497   0.414   1.874   2.448  0.1300  0.4640 -0.1899
 1164TIP3    H1 3498   0.453   1.791   2.419 -2.6249 -2.0183  2.5144
 1164TIP3    H2 3499   0.320   1.862   2.435 -0.9688  0.7352  5.2273
 1165TIP3   OH2 3500   4.295   0.566   1.591  0.1626 -0.3268  0.2822
 1165TIP3    H1 3501   4.373   0.513   1.611 -0.5731 -1.3805  0.4200
 1165TIP3    H2 3502   4.287   0.625   1.666 -0.6220 -1.9649  1.5453
 1166TIP3   OH2 3503   0.165   5.298   1.505  0.7032  0.1670  0.5527
 1166TIP3    H1 3504   0.187   5.383   1.467 -0.7013 -0.4543 -1.8747
 1166TIP3    H2 3505   0.217   5.235   1.455  1.4212 -0.4677  2.0450
 1167TIP3   OH2 3506   2.702   2.675   4.829  0.2046  0.4327 -0.0016
 1167TIP3    H1 3507   2.649   2.660   4.750 -1.0170  0.5831  0.7604
 1167TIP3    H2 3508   2.704   2.771   4.839  0.1301  0.4045  0.2956
 1168TIP3   OH2 3509   5.412   5.254   1.116  0.9197  0.2224 -0.5663
 1168TIP3    H1 3510   5.457   5.329   1.077 -0.3202  0.6437 -1.2508
 1168TIP3    H2 3511   5.329   5.290   1.148  0.0932 -0.9322 -1.3326
 1169TIP3   OH2 3512   1.062   3.421   2.744 -0.2625  0.6146 -0.0239
 1169TIP3    H1 3513   0.994   3.440   2.809 -0.9113 -0.6560 -0.3067
 1169TIP3    H2 3514   1.066   3.499   2.689  0.3470  1.7583  1.5459
 1170TIP3   OH2 3515   6.263   2.715   0.652 -0.7106  0.1617 -0.0728
 1170TIP3    H1 3516   6.331   2.739   0.715  0.8636 -1.7761 -0.9321
 1170TIP3    H2 3517   6.215   2.796   0.637 -0.1923  1.0306  2.4493
 1171TIP3   OH2 3518   4.104   4.347   2.639 -0.0167 -0.2921  0.6533
 1171TIP3    H1 3519   4.176   4.388   2.688  0.9228 -1.9002  0.6750
 1171TIP3    H2 3520   4.058   4.293   2.704  0.6841 -1.7272 -0.0140
 1172TIP3   OH2 3521   5.570   1.160   3.262 -0.4420  0.2918  0.5594
 1172TIP3    H1 3522   5.489   1.154   3.210  0.6133  2.5557 -1.5031
 1172TIP3    H2 3523   5.584   1.254   3.275  3.1165  0.1936 -1.3409
 1173TIP3   OH2 3524   5.961   0.092   0.082  1.2066  0.3369  0.1440
 1173TIP3    H1 3525   5.931   0.149   0.154  2.7155 -0.1185  1.1851
 1173TIP3    H2 3526   6.006   0.020   0.126  0.4823 -0.9877 -1.2090
 1174TIP3   OH2 3527   2.559   2.517   2.683 -0.4422  0.3789 -0.2454
 1174TIP3    H1 3528   2.501   2.450   2.647  0.4655 -0.3487 -0.3871
 1174TIP3    H2 3529   2.630   2.524   2.620 -0.0557  0.8204  0.2238
 1175TIP3   OH2 3530   5.296   3.857   2.087  0.4284 -0.0904 -0.0626
 1175TIP3    H1 3531   5.323   3.949   2.080  1.3165 -0.3571 -0.3571
 1175TIP3    H2 3532   5.232   3.856   2.158  0.5230  0.7322  0.0449
 1176TIP3   OH2 3533   2.172   3.658   4.988  0.5216  0.5808  0.2362
 1176TIP3    H1 3534   2.132   3.668   5.074 -3.6994  2.1122 -1.6562
 1176TIP3    H2 3535   2.169   3.564   4.971  0.9472  0.3161  1.4767
 1177TIP3   OH2 3536   0.088   2.191   3.738  0.4159  0.6675  0.0043
 1177TIP3    H1 3537   0.102   2.225   3.650 -1.0518 -0.3578 -0.6565
 1177TIP3    H2 3538   0.084   2.096   3.727  0.2391  0.5200  1.1959
 1178TIP3   OH2 3539   6.190   1.951   2.471  0.0154 -0.0974 -0.4435
 1178TIP3    H1 3540   6.098   1.953   2.497  0.2786 -0.1252  0.5318
 1178TIP3    H2 3541   6.192   1.997   2.387 -0.9735 -0.6419 -0.7791
 1179TIP3   OH2 3542   0.029   4.013   3.101 -0.0645  0.1828  0.1025
 1179TIP3    H1 3543  -0.055   4.058   3.090  0.0837  0.1813 -1.2202
 1179TIP3    H2 3544   0.041   4.006   3.195 -1.1803  0.8842  0.3075
 1180TIP3   OH2 3545   3.687   1.051   4.499  0.3510  0.5821  0.3913
 1180TIP3    H1 3546   3.764   0.998   4.479 -0.0492 -0.4425  1.4896
 1180TIP3    H2 3547   3.712   1.140   4.472  1.1134 -0.0943 -1.2338
 1181TIP3   OH2 3548   4.874   4.043   3.564 -0.0648  0.5363 -0.2808
 1181TIP3    H1 3549   4.918   3.960   3.545  0.2546  0.7782 -0.6029
 1181TIP3    H2 3550   4.807   4.050   3.495 -0.4143  0.3119  0.0336
 1182TIP3   OH2 3551   5.470   2.777   4.514  0.3399  0.5427  0.2360
 1182TIP3    H1 3552   5.393   2.747   4.562  0.1107 -1.1551 -1.0807
 1182TIP3    H2 3553   5.535   2.794   4.582 -0.7779  0.8222  1.2917
 1183TIP3   OH2 3554   3.759   1.684   0.735  0.6109  0.2513  0.2405
 1183TIP3    H1 3555   3.692   1.632   0.690  1.4873 -0.9848  0.3198
 1183TIP3    H2 3556   3.713   1.762   0.764 -0.4164  0.1950 -1.1520
 1184TIP3   OH2 3557   2.857   2.843   4.587 -0.4262  0.5192 -0.3798
 1184TIP3    H1 3558   2.938   2.834   4.638 -0.8532  0.5517  0.3258
 1184TIP3    H2 3559   2.853   2.936   4.566  0.1690  0.3709 -1.1918
 1185TIP3   OH2 3560   0.953   5.399   2.616 -0.0140 -0.6543 -0.4805
 1185TIP3    H1 3561   0.928   5.316   2.655  0.6651  0.0239  1.5566
 1185TIP3    H2 3562   0.877   5.456   2.629  0.0715 -0.5349 -0.4976
 1186TIP3   OH2 3563   1.252   2.348   2.003 -0.3526  0.8247 -0.1404
 1186TIP3    H1 3564   1.275   2.259   2.029  0.7411  1.2726  0.4939
 1186TIP3    H2 3565   1.179   2.372   2.060  1.1780  1.3287  1.7319
 1187TIP3   OH2 3566   6.179   4.017   1.042  0.0018  0.4684  0.5220
 1187TIP3    H1 3567   6.086   4.032   1.060 -0.5818 -2.1587  0.1500
 1187TIP3    H2 3568   6.218   4.002   1.129  0.3673  2.6851  0.7868
 1188TIP3   OH2 3569   5.782   2.270   1.822 -0.1295 -0.1440  0.0172
 1188TIP3    H1 3570   5.759   2.224   1.741  1.3815  0.1178 -0.5926
 1188TIP3    H2 3571   5.702   2.265   1.876 -0.1778 -3.1552 -0.1376
 1189TIP3   OH2 3572   0.591   1.176   2.178 -0.8379  0.1719  0.2091
 1189TIP3    H1 3573   0.681   1.170   2.143 -1.3144 -0.1679 -1.0332
 1189TIP3    H2 3574   0.541   1.215   2.106 -2.0327 -1.3074  0.1956
 1190TIP3   OH2 3575   4.484   5.562   1.388 -0.4495 -0.1967 -0.1053
 1190TIP3    H1 3576   4.533   5.504   1.446  0.2854  1.0838  0.6085
 1190TIP3    H2 3577   4.472   5.642   1.439 -0.8573  0.5316 -1.2928
 1191TIP3   OH2 3578   1.310   5.868   0.751  0.2723 -0.3431  0.0587
 1191TIP3    H1 3579   1.398   5.835   0.768 -0.0600 -0.6546  1.3456
 1191TIP3    H2 3580   1.305   5.880   0.656  1.8037  0.0019  0.0073
 1192TIP3   OH2 3581   5.374   4.609   1.338  1.1359  0.0120  0.1819
 1192TIP3    H1 3582   5.367   4.537   1.276  2.0802  1.0733 -1.2160
 1192TIP3    H2 3583   5.289   4.612   1.382  0.7643 -1.3338 -0.4095
 1193TIP3   OH2 3584   1.907   5.019   0.311 -0.3407 -0.1043  0.0801
 1193TIP3    H1 3585   1.858   5.101   0.320 -1.7868 -0.9638  0.4472
 1193TIP3    H2 3586   1.855   4.967   0.249  1.6549  0.0175 -1.8031
 1194TIP3   OH2 3587   3.015   4.170   0.033  0.4495 -0.0628  0.7804
 1194TIP3    H1 3588   2.969   4.254   0.026 -0.6731 -0.7647 -1.0106
 1194TIP3    H2 3589   3.107   4.192   0.027  0.1571  1.0304  0.0350
 1195TIP3   OH2 3590   4.654   4.033   4.211  0.5205 -0.0190  0.1057
 1195TIP3    H1 3591   4.675   4.081   4.131 -0.7513  0.8082  0.2262
 1195TIP3    H2 3592   4.561   4.050   4.225  0.5087 -0.8992  1.2654
 1196TIP3   OH2 3593   5.319   0.823   1.762 -0.1305 -0.3348 -0.7460
 1196TIP3    H1 3594   5.333   0.891   1.696 -1.0429  1.3910  0.7782
 1196TIP3    H2 3595   5.397   0.767   1.755  1.3631  1.6978 -1.0664
 1197TIP3   OH2 3596   4.903   3.116   3.235 -0.0561 -0.0436  0.1620
 1197TIP3    H1 3597   4.820   3.164   3.231 -0.9406 -1.4405  0.7668
 1197TIP3    H2 3598   4.910   3.074   3.149 -0.0748 -0.0970  0.1869
 1198TIP3   OH2 3599   4.169   5.060   1.743  0.2760  0.5210  0.3926
 1198TIP3    H1 3600   4.151   4.986   1.685 -3.1410  0.8534  0.8461
 1198TIP3    H2 3601   4.203   5.020   1.823 -1.8195 -0.6854  0.7558
 1199TIP3   OH2 3602   3.229   1.858   1.782 -0.2236 -0.1693  0.3471
 1199TIP3    H1 3603   3.161   1.918   1.753  0.9608  1.6963  1.2359
 1199TIP3    H2 3604   3.232   1.790   1.715 -3.1414 -0.5096  0.4374
 1200TIP3   OH2 3605   1.563   5.275   1.783  0.0274 -0.2657 -0.0076
 1200TIP3    H1 3606   1.602   5.322   1.858 -1.0497 -1.0483  1.0743
 1200TIP3    H2 3607   1.538   5.345   1.722  2.6397  0.3085 -0.5728
 1201TIP3   OH2 3608   5.699   5.674   4.018 -0.1243 -0.2953 -0.1333
 1201TIP3    H1 3609   5.643   5.616   3.967  0.0249 -0.4707 -0.0996
 1201TIP3    H2 3610   5.652   5.687   4.101 -0.6709  0.4978 -0.5500
 1202TIP3   OH2 3611   5.400   1.491   1.711  0.0370 -0.5220  0.2823
 1202TIP3    H1 3612   5.453   1.548   1.655 -0.9131 -1.0016 -1.1625
 1202TIP3    H2 3613   5.325   1.467   1.656 -0.1866 -2.1894  1.2729
 1203TIP3   OH2 3614   4.813   2.774   3.251  0.1022 -0.0592  0.1489
 1203TIP3    H1 3615   4.826   2.692   3.203 -0.9335 -0.4826  0.5663
 1203TIP3    H2 3616   4.850   2.841   3.194  1.8702 -0.9012  0.2335
 1204TIP3   OH2 3617   0.631   4.348   3.847  0.3343  0.1987  0.6985
 1204TIP3    H1 3618   0.622   4.381   3.936 -0.4635  1.1268  0.2892
 1204TIP3    H2 3619   0.592   4.260   3.850 -0.3770  0.5216  1.0976
 1205TIP3   OH2 3620   6.098   2.428   1.363 -0.1752 -0.3271 -0.4778
 1205TIP3    H1 3621   6.145   2.366   1.307  0.9143 -1.1971  1.3319
 1205TIP3    H2 3622   6.142   2.512   1.346  0.0856 -0.5594 -0.9851
 1206TIP3   OH2 3623   5.854   2.181   2.452  0.5173 -0.3737 -0.1646
 1206TIP3    H1 3624   5.796   2.199   2.526  1.7057  0.1299  0.6865
 1206TIP3    H2 3625   5.942   2.197   2.487  1.1092 -0.2117 -1.6726
 1207TIP3   OH2 3626   1.736   0.187   5.093  0.0730  0.6510  0.8100
 1207TIP3    H1 3627   1.760   0.219   5.006 -0.9618  0.3662  0.4058
 1207TIP3    H2 3628   1.799   0.118   5.113 -0.5141 -0.2336 -0.3120
 1208TIP3   OH2 3629   5.848   2.532   1.291 -0.2507  1.1748  0.3153
 1208TIP3    H1 3630   5.934   2.503   1.322 -0.2398  0.2887 -0.4993
 1208TIP3    H2 3631   5.867   2.584   1.213 -0.5041 -0.3819 -0.8439
 1209TIP3   OH2 3632   2.219   2.008   0.853  0.6081  0.1381 -0.2593
 1209TIP3    H1 3633   2.213   2.065   0.929 -0.1593 -0.5109  0.1807
 1209TIP3    H2 3634   2.129   1.980   0.836  0.7145  0.5210 -1.6055
 1210TIP3   OH2 3635   5.382   2.657   2.007  0.2350  0.2467  0.7521
 1210TIP3    H1 3636   5.398   2.751   2.000  0.8223  0.2288  1.7012
 1210TIP3    H2 3637   5.463   2.617   1.975 -0.5992  0.0049 -1.2136
 1211TIP3   OH2 3638   0.921   1.083   2.953 -0.3765 -0.0698  0.4997
 1211TIP3    H1 3639   0.855   1.149   2.931 -0.1182  0.4756  1.3090
 1211TIP3    H2 3640   0.961   1.060   2.870 -0.5379  0.7203  0.1939
 1212TIP3   OH2 3641   2.541   1.925   4.848  0.2120  0.3828 -0.7038
 1212TIP3    H1 3642   2.465   1.867   4.846  0.7979 -1.1572  5.1665
 1212TIP3    H2 3643   2.610   1.875   4.805 -0.4648 -1.3122  0.0773
 1213TIP3   OH2 3644   2.188   5.069   0.031  0.0943  0.1387  0.1291
 1213TIP3    H1 3645   2.255   5.001   0.025 -0.0663  0.0314 -0.4686
 1213TIP3    H2 3646   2.217   5.125   0.103 -0.3859 -1.2284  1.4589
 1214TIP3   OH2 3647   0.403   3.040   3.189  0.5604 -0.3245  0.8263
 1214TIP3    H1 3648   0.476   3.009   3.242  0.5379  1.9823  2.3302
 1214TIP3    H2 3649   0.418   3.134   3.179 -1.8599  0.1139  0.6448
 1215TIP3   OH2 3650   4.435   0.236   4.254 -0.4097 -0.5352 -0.0803
 1215TIP3    H1 3651   4.508   0.296   4.242  0.5129 -1.3945  1.0121
 1215TIP3    H2 3652   4.448   0.199   4.342 -2.7638  0.1232  0.6361
 1216TIP3   OH2 3653   5.986   2.529   2.469  0.0575 -0.8759 -0.5448
 1216TIP3    H1 3654   6.027   2.489   2.392  0.2518 -0.6229 -0.5728
 1216TIP3    H2 3655   5.902   2.484   2.477  0.4586 -1.6036 -0.3145
 1217TIP3   OH2 3656   2.710   2.447   2.974 -0.2996 -0.1031  0.4973
 1217TIP3    H1 3657   2.743   2.358   2.988  0.6609 -0.0655 -1.2103
 1217TIP3    H2 3658   2.703   2.455   2.879  2.3125  2.5483  0.3861
 1218TIP3   OH2 3659   3.569   2.719   3.550  0.3779 -0.2028 -0.3964
 1218TIP3    H1 3660   3.619   2.743   3.472 -1.1583 -2.0974 -2.0792
 1218TIP3    H2 3661   3.606   2.635   3.578 -0.5234 -0.6440 -0.4706
 1219TIP3   OH2 3662   3.011   2.004   1.695  0.2047  0.2263  0.2500
 1219TIP3    H1 3663   3.068   2.066   1.650 -1.3174 -0.2066 -2.4853
 1219TIP3    H2 3664   2.924   2.044   1.691 -0.2159 -0.4601  1.6914
 1220TIP3   OH2 3665   3.456   4.583   1.127  0.6283 -0.3059 -0.2411
 1220TIP3    H1 3666   3.409   4.631   1.058  0.0023 -1.2780 -0.5101
 1220TIP3    H2 3667   3.547   4.612   1.119  0.0116  2.2024  0.7764
 1221TIP3   OH2 3668   4.849   0.810   4.271  0.1064 -0.2459  0.1788
 1221TIP3    H1 3669   4.837   0.808   4.366 -0.8728 -0.7205  0.0526
 1221TIP3    H2 3670   4.825   0.899   4.246 -0.1893 -0.2910  0.3026
 1222TIP3   OH2 3671   4.128   0.803   4.820  0.3923  0.2385  0.3189
 1222TIP3    H1 3672   4.107   0.831   4.910 -1.2656  0.8573 -0.2140
 1222TIP3    H2 3673   4.087   0.717   4.812 -1.4093  1.1096 -0.4803
 1223TIP3   OH2 3674   2.073   1.647   3.344 -0.6261  0.2222  0.1215
 1223TIP3    H1 3675   2.126   1.570   3.366  1.6268  1.0409 -1.9860
 1223TIP3    H2 3676   2.131   1.721   3.361 -2.1703  1.3930  0.5190
 1224TIP3   OH2 3677   1.755   3.579   4.405 -0.2774  0.1442  0.0016
 1224TIP3    H1 3678   1.777   3.574   4.312 -0.2422  1.5833 -0.0890
 1224TIP3    H2 3679   1.741   3.488   4.431 -1.0189 -0.2392 -1.5797
 1225TIP3   OH2 3680   2.397   1.153   4.036 -0.1395 -0.3490  0.1386
 1225TIP3    H1 3681   2.416   1.092   4.107 -1.7158 -0.6510  0.3267
 1225TIP3    H2 3682   2.472   1.144   3.976  0.8565 -0.6249  1.3753
 1226TIP3   OH2 3683   5.274   1.252   2.599 -0.1279 -0.3808 -0.5551
 1226TIP3    H1 3684   5.184   1.281   2.611 -0.1411 -0.8666  0.6799
 1226TIP3    H2 3685   5.310   1.247   2.687  1.1519 -0.0975 -1.0359
 1227TIP3   OH2 3686   1.150   1.127   0.739  0.3758 -0.5345 -0.1311
 1227TIP3    H1 3687   1.077   1.068   0.759  0.3401 -0.6318 -0.5505
 1227TIP3    H2 3688   1.151   1.133   0.644  0.5855 -0.1147 -0.1044
 1228TIP3   OH2 3689   4.198   3.294   3.026  0.0406  0.8902 -0.2721
 1228TIP3    H1 3690   4.104   3.299   3.043  0.2524 -0.7874  1.7995
 1228TIP3    H2 3691   4.235   3.361   3.084  0.2216  0.4643  0.1088
 1229TIP3   OH2 3692   2.645   2.603   1.336 -0.0833  0.1846  0.0853
 1229TIP3    H1 3693   2.590   2.673   1.371 -1.5889 -1.0275  0.2335
 1229TIP3    H2 3694   2.688   2.566   1.413  0.2142  0.5223  0.0831
 1230TIP3   OH2 3695   4.226   5.260   4.694 -0.4855 -0.3119 -0.6645
 1230TIP3    H1 3696   4.165   5.194   4.660  0.6383 -0.8544 -1.6984
 1230TIP3    H2 3697   4.273   5.290   4.616 -0.2206  0.9307 -0.0410
 1231TIP3   OH2 3698   5.794   0.727   4.473  0.9873  0.3803  0.0446
 1231TIP3    H1 3699   5.710   0.744   4.431  0.9636  3.4020  1.0910
 1231TIP3    H2 3700   5.773   0.667   4.545  0.0314 -0.1495 -0.6485
 1232TIP3   OH2 3701   2.719   3.830   0.745  0.0518  0.5866  0.4407
 1232TIP3    H1 3702   2.732   3.814   0.838 -0.5903 -2.1454  0.1391
 1232TIP3    H2 3703   2.807   3.845   0.711  0.3906  0.6385  1.3249
 1233TIP3   OH2 3704   3.067   3.438   1.657 -0.5030 -0.1646 -0.5626
 1233TIP3    H1 3705   3.140   3.500   1.666  0.2663 -1.1747  0.5536
 1233TIP3    H2 3706   2.989   3.492   1.667  0.1361  0.6988 -0.0072
 1234TIP3   OH2 3707   3.588   4.667   3.616  0.0445  0.0135 -0.3142
 1234TIP3    H1 3708   3.499   4.679   3.584  0.4652  0.1648 -1.5010
 1234TIP3    H2 3709   3.622   4.756   3.629 -0.1195 -0.0502  0.5530
 1235TIP3   OH2 3710   1.960   0.795   4.229 -0.0562 -0.0803 -0.0415
 1235TIP3    H1 3711   2.025   0.793   4.299  1.1143 -0.8471 -1.0970
 1235TIP3    H2 3712   1.965   0.884   4.194  0.7480 -0.2505 -0.3848
 1236TIP3   OH2 3713   2.688   2.975   1.157 -0.0600  0.7011  0.3782
 1236TIP3    H1 3714   2.744   2.900   1.135  1.3401  1.9722 -0.5642
 1236TIP3    H2 3715   2.599   2.943   1.142  0.4218 -1.0992  1.0651
 1237TIP3   OH2 3716   0.696   1.646   3.125  0.4754  0.1885  0.5144
 1237TIP3    H1 3717   0.679   1.681   3.212  2.1282  1.0715  0.5087
 1237TIP3    H2 3718   0.728   1.720   3.074 -0.4652 -0.3055 -0.8834
 1238TIP3   OH2 3719   3.287   5.601   4.500 -0.0247  0.5313  0.3766
 1238TIP3    H1 3720   3.221   5.657   4.540 -1.7315  0.7846 -2.5204
 1238TIP3    H2 3721   3.240   5.554   4.431  2.6592  0.1732 -1.3613
 1239TIP3   OH2 3722   4.354   3.795   3.967  0.3223  0.5924  0.2907
 1239TIP3    H1 3723   4.332   3.732   4.036  2.0559 -0.4707 -0.0484
 1239TIP3    H2 3724   4.273   3.843   3.951 -0.5851 -0.3524  1.8136
 1240TIP3   OH2 3725   2.034   3.551   2.165  0.0916 -0.9533  0.3801
 1240TIP3    H1 3726   1.974   3.542   2.239  0.2565  0.5699  0.7300
 1240TIP3    H2 3727   2.071   3.463   2.153 -2.1092 -1.9063  0.1984
 1241TIP3   OH2 3728   3.996   3.063   3.989 -0.2265  0.8195  0.1837
 1241TIP3    H1 3729   4.076   3.109   4.015 -1.1219  1.5514  1.8357
 1241TIP3    H2 3730   3.987   2.993   4.053 -0.3742  0.0792 -0.6298
 1242TIP3   OH2 3731   1.021   4.185   1.183  0.2883 -0.3190 -0.4228
 1242TIP3    H1 3732   1.092   4.243   1.210  0.6406 -0.3795 -1.2044
 1242TIP3    H2 3733   0.955   4.193   1.253  1.9124 -1.8282  1.4214
 1243TIP3   OH2 3734   5.982   5.465   0.830 -0.4052  0.5407  0.0200
 1243TIP3    H1 3735   6.068   5.450   0.789 -0.9648 -0.4880 -0.8695
 1243TIP3    H2 3736   5.997   5.531   0.897  0.7258  1.7304 -1.3550
 1244TIP3   OH2 3737   6.043   0.610   3.287 -0.4580 -0.0164 -0.0027
 1244TIP3    H1 3738   6.080   0.638   3.204 -1.1609 -0.2986 -0.4213
 1244TIP3    H2 3739   6.004   0.525   3.269  1.1858 -1.0665  1.1287
 1245TIP3   OH2 3740   2.494   5.844   2.157  0.0646 -0.3728  0.5550
 1245TIP3    H1 3741   2.400   5.841   2.176  0.1593 -0.0319  1.1222
 1245TIP3    H2 3742   2.520   5.752   2.151 -0.5702 -0.4853 -1.0557
 1246TIP3   OH2 3743   5.161   1.924   3.161 -0.3503 -0.0702 -0.3483
 1246TIP3    H1 3744   5.069   1.900   3.155 -0.4141  0.3034 -0.8629
 1246TIP3    H2 3745   5.167   1.979   3.239 -0.2786 -1.3802  0.6020
 1247TIP3   OH2 3746   1.136   4.991   4.766 -0.2604  0.2592  0.0498
 1247TIP3    H1 3747   1.221   4.949   4.781  0.4449  1.6506  0.1419
 1247TIP3    H2 3748   1.096   4.994   4.853 -0.6517 -0.8743 -0.0776
 1248TIP3   OH2 3749   0.287   3.633   1.688  0.1690  0.9151 -0.1333
 1248TIP3    H1 3750   0.280   3.716   1.642  0.7899  0.0191 -1.9215
 1248TIP3    H2 3751   0.375   3.602   1.667 -1.0277 -1.5513 -1.9391
 1249TIP3   OH2 3752   4.187   2.606   1.013  0.2727  0.1119 -0.1951
 1249TIP3    H1 3753   4.134   2.540   1.058 -0.6320 -0.3440 -1.8384
 1249TIP3    H2 3754   4.258   2.627   1.075 -1.3257  0.1215  1.7333
 1250TIP3   OH2 3755   3.346   5.683   4.205 -0.4491  0.4013 -0.1399
 1250TIP3    H1 3756   3.370   5.702   4.296 -1.0099  0.8730 -0.0817
 1250TIP3    H2 3757   3.277   5.616   4.212  0.8690 -1.0387 -0.3096
 1251TIP3   OH2 3758   2.387   2.912   4.979  0.3032  0.3492 -0.5934
 1251TIP3    H1 3759   2.381   3.000   5.016 -1.7942 -0.1110  0.3244
 1251TIP3    H2 3760   2.477   2.905   4.948  1.2056  2.0103  1.3727
 1252TIP3   OH2 3761   3.417   5.851   3.751 -0.0127 -0.3538 -0.2446
 1252TIP3    H1 3762   3.410   5.944   3.729  1.6001 -0.0396  0.4808
 1252TIP3    H2 3763   3.496   5.821   3.706  1.5762 -0.4564  2.4380
 1253TIP3   OH2 3764   4.409   5.726   0.668  0.1581  0.3623  0.0225
 1253TIP3    H1 3765   4.425   5.634   0.649 -0.8211 -0.1202  1.4368
 1253TIP3    H2 3766   4.441   5.739   0.757  0.1156  1.3467 -0.0921
 1254TIP3   OH2 3767   3.457   0.944   1.467 -0.1793 -0.2158 -0.4796
 1254TIP3    H1 3768   3.514   0.920   1.541 -0.1332  1.7410  0.1665
 1254TIP3    H2 3769   3.369   0.934   1.501 -0.1783 -0.2391 -0.4833
 1255TIP3   OH2 3770   1.779   3.779   1.055  0.1216 -0.2252  0.1941
 1255TIP3    H1 3771   1.792   3.853   1.114 -2.7023  1.7491 -1.4026
 1255TIP3    H2 3772   1.709   3.728   1.096  1.4837 -1.5838  0.8757
 1256TIP3   OH2 3773   1.541   2.550   1.133 -0.2202  0.1982 -0.5412
 1256TIP3    H1 3774   1.476   2.480   1.124 -1.5025  1.5437 -2.7341
 1256TIP3    H2 3775   1.622   2.511   1.100 -0.2459 -1.0126  0.7291
 1257TIP3   OH2 3776   0.647   2.253   4.437 -0.1489 -0.5420 -0.0624
 1257TIP3    H1 3777   0.669   2.250   4.530 -1.4315 -1.2726  0.2361
 1257TIP3    H2 3778   0.655   2.346   4.414 -0.5731 -0.2246  0.9744
 1258TIP3   OH2 3779   6.163   1.938   1.877  0.6054  0.6488  0.9210
 1258TIP3    H1 3780   6.135   1.990   1.801 -0.4736  0.8385  1.4259
 1258TIP3    H2 3781   6.129   1.850   1.859 -0.3733  0.8842  1.5481
 1259TIP3   OH2 3782   5.962   3.371   1.099  0.5533 -0.7483 -0.2539
 1259TIP3    H1 3783   6.033   3.396   1.040 -0.4726  0.0934 -1.1964
 1259TIP3    H2 3784   5.989   3.405   1.184  0.7904  0.5858 -0.8241
 1260TIP3   OH2 3785   0.074   0.139   2.265 -0.2917  0.1862 -0.0629
 1260TIP3    H1 3786   0.153   0.085   2.268  0.3025  1.0107 -0.4161
 1260TIP3    H2 3787   0.103   0.222   2.227 -1.0327  1.0203  1.1129
 1261TIP3   OH2 3788   2.486   5.537   4.896  0.5912 -0.5473 -0.0102
 1261TIP3    H1 3789   2.438   5.457   4.919 -0.4839  0.6227  2.1338
 1261TIP3    H2 3790   2.568   5.529   4.946  0.0613  0.0933  0.9938
 1262TIP3   OH2 3791   4.564   1.339   4.263 -0.1889  0.3072  0.3737
 1262TIP3    H1 3792   4.549   1.308   4.173  0.3396 -0.1550  0.4418
 1262TIP3    H2 3793   4.560   1.260   4.316 -0.3102  0.5576  0.7378
 1263TIP3   OH2 3794   4.028   2.079   3.049  0.1859  0.0301  0.1405
 1263TIP3    H1 3795   3.991   2.077   2.960  3.6149 -0.5099 -1.4551
 1263TIP3    H2 3796   4.056   2.170   3.061  0.2410 -0.0252  0.4198
 1264TIP3   OH2 3797   1.420   5.583   0.915 -0.0803 -0.0962  0.2630
 1264TIP3    H1 3798   1.467   5.505   0.942  0.3055  0.6103  1.7017
 1264TIP3    H2 3799   1.371   5.555   0.838  0.2710 -1.6685  0.5707
 1265TIP3   OH2 3800   3.433   3.715   1.493 -0.0153  0.2703 -0.0514
 1265TIP3    H1 3801   3.387   3.649   1.545  1.0349 -0.1250  0.4125
 1265TIP3    H2 3802   3.504   3.667   1.451  1.2044  1.2023  0.8644
 1266TIP3   OH2 3803   5.433   3.504   3.563  0.2352 -0.1551 -0.2468
 1266TIP3    H1 3804   5.389   3.557   3.496 -3.7512 -2.2308  0.3761
 1266TIP3    H2 3805   5.444   3.418   3.521  1.6857 -0.3400  0.4491
 1267TIP3   OH2 3806   5.061   5.441   0.193 -0.2534 -0.0151 -0.2821
 1267TIP3    H1 3807   5.047   5.534   0.208 -0.8481 -0.1598  0.0842
 1267TIP3    H2 3808   4.976   5.407   0.166  0.0143 -0.4108 -0.6578
 1268TIP3   OH2 3809   3.824   1.496   3.813  0.0900  0.4946  0.1607
 1268TIP3    H1 3810   3.895   1.434   3.797 -0.2303  0.4153 -1.0175
 1268TIP3    H2 3811   3.867   1.574   3.848  0.6964  0.2879 -0.1245
 1269TIP3   OH2 3812   2.880   4.200   2.677  0.0736 -0.2091 -0.5870
 1269TIP3    H1 3813   2.819   4.256   2.628  0.0165  0.0130 -0.2620
 1269TIP3    H2 3814   2.934   4.159   2.609 -1.1234 -1.2308 -0.9670
 1270TIP3   OH2 3815   3.976   2.603   3.272 -0.2544 -0.0838  0.1884
 1270TIP3    H1 3816   3.999   2.693   3.252  0.8545 -0.4722 -0.3329
 1270TIP3    H2 3817   4.056   2.553   3.255 -0.4873 -1.0019  1.6214
 1271TIP3   OH2 3818   2.883   2.938   1.577  0.4975 -0.9216 -0.3574
 1271TIP3    H1 3819   2.926   3.020   1.599  1.0419 -0.7607 -1.9316
 1271TIP3    H2 3820   2.882   2.888   1.659 -0.7119  1.0028  0.8718
 1272TIP3   OH2 3821   6.207   1.961   2.163 -0.5991  0.4975 -0.3301
 1272TIP3    H1 3822   6.229   1.958   2.070 -0.4023  0.9604 -0.3044
 1272TIP3    H2 3823   6.188   1.871   2.187  1.9799 -0.0936 -0.1906
 1273TIP3   OH2 3824   3.602   3.191   4.688 -0.3877  0.0153 -0.1021
 1273TIP3    H1 3825   3.556   3.179   4.605 -0.6542 -2.3239  0.3003
 1273TIP3    H2 3826   3.677   3.132   4.683  0.0783  0.4743  0.9849
 1274TIP3   OH2 3827   1.571   1.506   4.967 -0.0016  0.4163 -0.0572
 1274TIP3    H1 3828   1.631   1.445   4.924 -0.4988 -2.0870  2.4964
 1274TIP3    H2 3829   1.628   1.568   5.011  0.5744  0.7066 -1.1816
 1275TIP3   OH2 3830   0.828   5.520   0.106 -0.5851  0.7086  0.1770
 1275TIP3    H1 3831   0.911   5.479   0.131 -0.3869  0.8780 -0.1888
 1275TIP3    H2 3832   0.790   5.551   0.188 -0.7982 -0.3187  0.4871
 1276TIP3   OH2 3833   2.298   0.674   4.543 -0.0464 -0.3620 -0.6382
 1276TIP3    H1 3834   2.241   0.600   4.567  1.1592 -1.1156 -0.0005
 1276TIP3    H2 3835   2.386   0.637   4.540  0.6155  1.0791 -0.1263
 1277TIP3   OH2 3836   1.752   0.285   4.389  0.0655 -0.1767 -0.5819
 1277TIP3    H1 3837   1.697   0.343   4.442  1.0531 -0.1576  0.4570
 1277TIP3    H2 3838   1.763   0.332   4.306 -0.9720  0.0906 -0.5895
 1278TIP3   OH2 3839   2.579   2.188   4.905 -0.2436  0.2824 -0.2134
 1278TIP3    H1 3840   2.570   2.100   4.869  2.2328  0.5330 -1.7425
 1278TIP3    H2 3841   2.564   2.246   4.829  0.4638  1.0526  0.2180
 1279TIP3   OH2 3842   4.617   3.058   3.436 -0.1123  0.2739  0.0566
 1279TIP3    H1 3843   4.656   3.115   3.370 -0.8672 -0.5799 -1.1788
 1279TIP3    H2 3844   4.657   2.972   3.420  0.8225  0.3724  1.7188
 1280TIP3   OH2 3845   5.459  -0.010   2.645  0.0089 -0.7490  0.0878
 1280TIP3    H1 3846   5.478   0.000   2.552 -0.3276 -0.6037  0.0326
 1280TIP3    H2 3847   5.438   0.078   2.676  3.1318 -0.2156  1.0144
 1281TIP3   OH2 3848   1.908   5.520   3.019 -0.2019 -0.3859 -0.3384
 1281TIP3    H1 3849   1.849   5.461   2.974 -0.6519 -0.8439  0.7997
 1281TIP3    H2 3850   1.883   5.607   2.990 -0.2638 -0.6819 -1.1962
 1282TIP3   OH2 3851   4.759   3.837   3.257 -0.1452  0.0860 -0.4165
 1282TIP3    H1 3852   4.684   3.819   3.200  0.6279  1.3989 -1.9234
 1282TIP3    H2 3853   4.819   3.764   3.243 -1.2073 -1.1231  1.0148
 1283TIP3   OH2 3854   2.154   4.421   3.039 -0.3743  0.4174  0.2101
 1283TIP3    H1 3855   2.247   4.443   3.031 -0.3915  0.7565  0.8519
 1283TIP3    H2 3856   2.143   4.398   3.131 -0.8566  0.0261  0.0568
 1284TIP3   OH2 3857   5.918   5.671   1.478  0.1519  0.3978 -0.2554
 1284TIP3    H1 3858   5.987   5.731   1.451 -0.3041  1.2666  0.4203
 1284TIP3    H2 3859   5.944   5.586   1.444  1.6071  0.6838  0.0871
 1285TIP3   OH2 3860   3.677   0.632   1.924  0.6161 -0.3150  0.4793
 1285TIP3    H1 3861   3.755   0.578   1.940  0.2706 -0.9020  0.2113
 1285TIP3    H2 3862   3.608   0.590   1.974  0.5901  0.5389  1.1727
 1286TIP3   OH2 3863   4.678   3.513   2.747  0.1476  0.3253 -0.3867
 1286TIP3    H1 3864   4.594   3.515   2.701  0.0751  0.5309 -0.2456
 1286TIP3    H2 3865   4.712   3.425   2.730 -0.0772  0.2543 -0.4768
 1287TIP3   OH2 3866   6.160   1.500   3.392 -0.0007  0.3166 -0.4268
 1287TIP3    H1 3867   6.111   1.570   3.434 -0.7116 -0.0399 -0.6339
 1287TIP3    H2 3868   6.237   1.487   3.447 -0.8055  0.0027  0.6464
 1288TIP3   OH2 3869   5.561   0.153   4.956 -0.4698 -0.0418 -0.3881
 1288TIP3    H1 3870   5.645   0.108   4.961 -1.1569 -1.3657 -0.3872
 1288TIP3    H2 3871   5.584   0.244   4.938  0.9000 -0.6739 -2.1487
 1289TIP3   OH2 3872   0.698   2.467   1.670 -0.2002  0.6805  0.4354
 1289TIP3    H1 3873   0.624   2.522   1.696 -0.3240  0.5767  0.3041
 1289TIP3    H2 3874   0.658   2.385   1.641 -0.0733  0.8279 -0.1647
 1290TIP3   OH2 3875   1.042   3.746   1.874  0.3503  0.3475 -0.1435
 1290TIP3    H1 3876   0.969   3.789   1.829  1.1615  1.2653 -0.6177
 1290TIP3    H2 3877   1.041   3.782   1.963 -0.2028 -0.1801  0.0698
 1291TIP3   OH2 3878   0.552   4.450   4.104  0.5359  0.2733  0.0755
 1291TIP3    H1 3879   0.548   4.541   4.132 -1.4411 -0.0599  1.0853
 1291TIP3    H2 3880   0.542   4.399   4.185 -0.8881 -0.7869 -0.7253
 1292TIP3   OH2 3881   2.382   5.156   1.765 -0.4192 -0.3587 -0.3001
 1292TIP3    H1 3882   2.369   5.066   1.737  0.8076 -0.4392 -0.6513
 1292TIP3    H2 3883   2.448   5.191   1.705 -1.7368  1.1649 -0.9631
 1293TIP3   OH2 3884   5.061   5.065   2.356 -0.1170 -0.5396 -0.3799
 1293TIP3    H1 3885   4.976   5.072   2.399  0.3783 -0.0858  0.5463
 1293TIP3    H2 3886   5.065   5.141   2.298 -0.2110 -0.3908 -0.1934
 1294TIP3   OH2 3887   3.766   5.094   4.379 -0.0958 -0.2623 -0.3314
 1294TIP3    H1 3888   3.805   5.174   4.414 -0.9926  0.4414 -0.8859
 1294TIP3    H2 3889   3.682   5.086   4.425 -0.7131 -0.0176 -1.3929
 1295TIP3   OH2 3890   1.457   3.574   5.049  0.2508  0.1098 -0.1474
 1295TIP3    H1 3891   1.543   3.593   5.088  0.6596 -0.2710 -0.8396
 1295TIP3    H2 3892   1.423   3.500   5.100 -0.2639  1.0963  0.9788
 1296TIP3   OH2 3893   3.264   0.820   1.594 -0.0240  0.2665 -0.0836
 1296TIP3    H1 3894   3.344   0.792   1.639  0.9939 -0.2701 -2.1120
 1296TIP3    H2 3895   3.226   0.740   1.559  0.7725  0.8583 -2.5440
 1297TIP3   OH2 3896   5.101   3.740   3.883 -0.5357 -0.1209 -0.3159
 1297TIP3    H1 3897   5.145   3.659   3.856 -2.6815 -1.3847 -0.2589
 1297TIP3    H2 3898   5.021   3.742   3.831 -1.0341  1.4264  0.4545
 1298TIP3   OH2 3899   0.139   3.781   4.843 -0.2542 -0.2551 -0.3283
 1298TIP3    H1 3900   0.185   3.785   4.759  0.2935  0.6506 -0.0114
 1298TIP3    H2 3901   0.054   3.821   4.826  0.4254  1.3612 -0.1339
 1299TIP3   OH2 3902   5.683   3.655   2.037 -0.4728  0.1097  0.4740
 1299TIP3    H1 3903   5.672   3.626   2.128  1.4021 -1.6434  0.2197
 1299TIP3    H2 3904   5.657   3.579   1.985 -0.8598  0.8619 -0.4598
 1300TIP3   OH2 3905   3.180   3.201   3.680 -0.0679  0.1429 -0.1882
 1300TIP3    H1 3906   3.090   3.234   3.681  0.6813  2.3312  0.1452
 1300TIP3    H2 3907   3.210   3.218   3.591 -0.0934 -0.9841 -0.4260
 1301TIP3   OH2 3908   2.420   2.625   0.202 -0.4309 -0.2994 -0.5380
 1301TIP3    H1 3909   2.404   2.535   0.231  2.7598 -0.6790  0.4468
 1301TIP3    H2 3910   2.400   2.678   0.279 -2.8408  0.0097 -1.2786
 1302TIP3   OH2 3911   1.749   4.952   4.185  0.1652 -0.0822  0.3429
 1302TIP3    H1 3912   1.658   4.975   4.168  0.5925  0.1184 -2.0081
 1302TIP3    H2 3913   1.757   4.862   4.154  0.5864 -0.4059  1.3473
 1303TIP3   OH2 3914   6.297   2.226   1.249 -0.2145 -0.5339  0.2314
 1303TIP3    H1 3915   6.325   2.284   1.178  1.6525 -0.4502  0.9701
 1303TIP3    H2 3916   6.294   2.139   1.208  2.8267 -0.8283  0.3909
 1304TIP3   OH2 3917   3.349   5.149   4.460  0.6659 -0.2799  0.5173
 1304TIP3    H1 3918   3.388   5.067   4.492  0.3308 -0.5849  0.1485
 1304TIP3    H2 3919   3.324   5.196   4.540 -1.0383 -1.4495  0.7192
 1305TIP3   OH2 3920   2.364   5.778   4.836 -0.0059 -0.1525  0.0592
 1305TIP3    H1 3921   2.411   5.702   4.869  0.3219  0.1417  0.2763
 1305TIP3    H2 3922   2.411   5.802   4.756 -0.0597 -0.1262  0.0352
 1306TIP3   OH2 3923   2.051   2.360   0.714 -0.3699  0.2910  0.3010
 1306TIP3    H1 3924   1.958   2.335   0.717  0.1236 -1.6037  1.5046
 1306TIP3    H2 3925   2.058   2.435   0.772 -0.6779 -1.5039  2.8138
 1307TIP3   OH2 3926   3.868   2.183   1.695 -0.1770 -0.2762 -0.4610
 1307TIP3    H1 3927   3.793   2.233   1.661  0.2140  0.8829  0.3202
 1307TIP3    H2 3928   3.940   2.205   1.638  0.3181  1.1438  0.6586
 1308TIP3   OH2 3929   5.139   0.608   0.043 -0.1087  0.0451 -0.0554
 1308TIP3    H1 3930   5.190   0.656   0.109  1.5274 -1.8027  0.1077
 1308TIP3    H2 3931   5.161   0.651  -0.040  0.0562  0.5977  0.2681
 1309TIP3   OH2 3932   5.040   2.748   4.988  0.0984  0.2510  0.6188
 1309TIP3    H1 3933   5.018   2.684   4.920  0.2266 -1.2808  1.9577
 1309TIP3    H2 3934   4.962   2.751   5.043  0.0999  1.2692  0.5822
 1310TIP3   OH2 3935   3.344   3.455   1.416  0.4911 -0.7075  0.4334
 1310TIP3    H1 3936   3.253   3.482   1.424  0.5389 -0.2535 -0.4312
 1310TIP3    H2 3937   3.357   3.393   1.487 -1.1664 -2.6444 -0.8549
 1311TIP3   OH2 3938   5.971   0.894   0.866  0.0198  0.5096 -0.1888
 1311TIP3    H1 3939   5.901   0.835   0.893 -0.8831  1.6975  0.1805
 1311TIP3    H2 3940   6.048   0.838   0.856 -0.3400 -0.4501  1.8799
 1312TIP3   OH2 3941   0.706   2.956   5.005 -0.2528  0.1397 -0.4027
 1312TIP3    H1 3942   0.743   2.873   4.977 -1.5152 -0.8573  0.7605
 1312TIP3    H2 3943   0.781   3.004   5.042  0.4660 -0.4831 -1.0061
 1313TIP3   OH2 3944   5.579   5.465   0.686 -0.1891 -0.3927  0.1934
 1313TIP3    H1 3945   5.540   5.412   0.616 -0.7798 -0.8564  0.8510
 1313TIP3    H2 3946   5.665   5.490   0.653 -0.2184 -1.1097 -0.4526
 1314TIP3   OH2 3947   0.637   3.134   2.277 -1.0631  0.2570 -0.0858
 1314TIP3    H1 3948   0.725   3.163   2.298 -0.6776 -0.2423 -0.9343
 1314TIP3    H2 3949   0.604   3.094   2.358 -0.2851 -0.0849  0.0706
 1315TIP3   OH2 3950   1.686   1.898   0.914 -0.0875 -0.5861  0.3691
 1315TIP3    H1 3951   1.629   1.825   0.937 -0.9007 -0.0113  0.2502
 1315TIP3    H2 3952   1.721   1.929   0.998  1.3880 -1.9665  0.3100
 1316TIP3   OH2 3953   2.519   0.327   4.324 -0.6024 -0.0588  0.0626
 1316TIP3    H1 3954   2.478   0.397   4.272 -0.2831 -0.0313 -0.1548
 1316TIP3    H2 3955   2.525   0.364   4.412  1.6539  1.0965 -0.5085
 1317TIP3   OH2 3956   6.115   5.840   3.760  0.2669 -0.2537  0.0512
 1317TIP3    H1 3957   6.175   5.767   3.746  0.1155 -0.7225  1.6377
 1317TIP3    H2 3958   6.052   5.834   3.688  0.7204 -1.1985 -0.2753
 1318TIP3   OH2 3959   2.010   5.849   1.895  0.3956  0.3241 -0.2582
 1318TIP3    H1 3960   1.968   5.906   1.959 -0.1400  1.3391 -1.4873
 1318TIP3    H2 3961   1.983   5.883   1.810  1.3775 -0.7771 -1.0484
 1319TIP3   OH2 3962   4.652   0.506   3.885  0.0392  0.4258 -0.1336
 1319TIP3    H1 3963   4.735   0.488   3.841  0.3742  2.4176 -0.4078
 1319TIP3    H2 3964   4.655   0.599   3.904 -0.8962  0.0018  2.5186
 1320TIP3   OH2 3965   5.329   0.497   4.632 -0.1928 -0.9443 -0.0005
 1320TIP3    H1 3966   5.414   0.472   4.596 -0.5480 -2.4960  0.1858
 1320TIP3    H2 3967   5.270   0.425   4.609 -1.5343  0.2022 -0.3298
 1321TIP3   OH2 3968   5.717   1.369   0.928  0.0149  0.4370  0.0231
 1321TIP3    H1 3969   5.710   1.382   0.833 -1.9263 -0.6338 -0.0315
 1321TIP3    H2 3970   5.642   1.416   0.964  0.9708  1.1886  1.0917
 1322TIP3   OH2 3971   6.222   1.410   3.158  0.1164  0.6537  0.1445
 1322TIP3    H1 3972   6.185   1.445   3.239  1.5987  1.5479  0.4675
 1322TIP3    H2 3973   6.295   1.355   3.187  0.0287  0.1653 -0.5425
 1323TIP3   OH2 3974   2.119   0.465   4.601  0.0874 -0.6301 -0.0660
 1323TIP3    H1 3975   2.090   0.440   4.688  0.4223 -1.9742 -0.3159
 1323TIP3    H2 3976   2.041   0.502   4.558  0.7130  3.8345  2.0155
 1324TIP3   OH2 3977   5.445   5.849   3.710  0.7896  0.1500  0.4022
 1324TIP3    H1 3978   5.358   5.842   3.748  0.4276  0.0374 -0.4165
 1324TIP3    H2 3979   5.452   5.941   3.683 -0.4226 -0.4796 -2.5276
 1325TIP3   OH2 3980   0.296   4.475   4.002 -0.5892  0.2072  0.0753
 1325TIP3    H1 3981   0.312   4.476   3.908 -1.2888  2.8760 -0.0800
 1325TIP3    H2 3982   0.379   4.447   4.040 -0.2997 -0.9380 -1.3045
 1326TIP3   OH2 3983   6.289   4.735   2.205 -0.3841 -0.4810  0.1776
 1326TIP3    H1 3984   6.313   4.668   2.268 -1.8028  0.4123  1.7531
 1326TIP3    H2 3985   6.194   4.729   2.199 -0.5237  1.2488  0.2225
 1327TIP3   OH2 3986   4.282   4.134   3.367  0.0920 -0.1216  0.4899
 1327TIP3    H1 3987   4.315   4.185   3.440  1.3596 -1.0490  0.6089
 1327TIP3    H2 3988   4.221   4.072   3.407 -0.6048  0.5513  0.4936
 1328TIP3   OH2 3989   6.104   2.633   3.254  0.2334  0.0824 -0.0485
 1328TIP3    H1 3990   6.152   2.715   3.262  0.5574 -0.0750 -0.3474
 1328TIP3    H2 3991   6.106   2.595   3.342 -1.7122  1.3689  0.6137
 1329TIP3   OH2 3992   0.634   0.825   3.437 -0.5652 -0.0294 -0.1439
 1329TIP3    H1 3993   0.624   0.745   3.386 -0.2076  0.5765 -1.1949
 1329TIP3    H2 3994   0.545   0.860   3.444 -0.4680  0.5660 -1.5277
 1330TIP3   OH2 3995   2.932   5.395   0.595 -0.2817  0.1909 -0.4256
 1330TIP3    H1 3996   2.985   5.392   0.674  0.4660  0.6038 -0.9032
 1330TIP3    H2 3997   2.878   5.474   0.605  0.1565  0.5096 -0.5352
 1331TIP3   OH2 3998   1.866   1.530   0.395 -0.5442 -0.2145 -0.2439
 1331TIP3    H1 3999   1.872   1.557   0.304 -2.0127 -0.7444 -0.5138
 1331TIP3    H2 4000   1.859   1.435   0.392 -0.3616 -0.2595  0.4460
 1332TIP3   OH2 4001   2.059   1.361   3.952 -0.1089 -0.2441 -0.3102
 1332TIP3    H1 4002   1.964   1.349   3.944  0.0372 -0.7408 -1.4876
 1332TIP3    H2 4003   2.096   1.305   3.883  1.0394 -0.0159  0.1022
 1333TIP3   OH2 4004   0.855   4.476   1.774  0.1198 -0.7427  0.5307
 1333TIP3    H1 4005   0.842   4.382   1.783  0.6986 -1.0031 -1.1056
 1333TIP3    H2 4006   0.786   4.505   1.714 -0.8581  0.1376  2.0025
 1334TIP3   OH2 4007   0.351   1.723   4.009  0.8763  0.0287  0.1463
 1334TIP3    H1 4008   0.420   1.673   4.053  2.2072  0.4401 -1.3966
 1334TIP3    H2 4009   0.391   1.807   3.990 -0.4765  0.7248  0.3003
 1335TIP3   OH2 4010   4.008   0.553   1.127  0.1200  0.2310  0.3903
 1335TIP3    H1 4011   4.101   0.547   1.103  0.2766  0.0990  0.9967
 1335TIP3    H2 4012   3.982   0.641   1.102 -0.2747 -0.5171 -2.0927
 1336TIP3   OH2 4013   5.005   4.360   1.268  0.1479  0.6451 -0.1875
 1336TIP3    H1 4014   5.023   4.347   1.361  0.1147  2.2777  0.0740
 1336TIP3    H2 4015   4.928   4.417   1.266 -0.4519 -0.1660 -1.2294
 1337TIP3   OH2 4016   4.297   3.453   3.247  0.0285 -0.5304  0.4277
 1337TIP3    H1 4017   4.357   3.522   3.274 -0.2258 -0.5312  0.9947
 1337TIP3    H2 4018   4.211   3.482   3.276 -0.4360 -0.0139 -1.3342
 1338TIP3   OH2 4019   4.088   1.141   3.423  0.7062 -0.0385  0.7664
 1338TIP3    H1 4020   4.081   1.049   3.397 -2.4605  1.0026 -3.1435
 1338TIP3    H2 4021   4.044   1.146   3.508 -0.2838 -1.9878  0.4221
 1339TIP3   OH2 4022   2.835   4.340   0.248 -0.1670 -0.4060  0.3654
 1339TIP3    H1 4023   2.749   4.327   0.287  0.1945 -1.9964  0.7130
 1339TIP3    H2 4024   2.817   4.374   0.160 -1.0703  0.7407  0.9659
 1340TIP3   OH2 4025   4.215   3.411   4.362  0.6039 -0.1686 -0.2047
 1340TIP3    H1 4026   4.146   3.466   4.400  0.0759  0.1491 -1.5501
 1340TIP3    H2 4027   4.253   3.365   4.436  0.0378  0.8883  0.7722
 1341TIP3   OH2 4028   3.078   0.482   4.103 -0.0764 -0.1154  0.4870
 1341TIP3    H1 4029   3.118   0.549   4.047  0.6386 -0.3606  0.6881
 1341TIP3    H2 4030   3.107   0.505   4.192 -2.2464  1.0280  0.9736
 1342TIP3   OH2 4031   5.185   1.909   0.067 -0.3100  0.1952 -0.2658
 1342TIP3    H1 4032   5.194   1.869   0.153  1.1488  1.0853  0.0340
 1342TIP3    H2 4033   5.095   1.940   0.064 -0.6386 -0.6553  0.5722
 1343TIP3   OH2 4034   2.950   4.653   0.546  0.1441  0.5202  0.1471
 1343TIP3    H1 4035   3.044   4.645   0.534  0.3461 -0.0207  1.8814
 1343TIP3    H2 4036   2.938   4.740   0.582  0.0674  0.2928  0.6758
 1344TIP3   OH2 4037   5.754   3.348   0.728 -0.6459 -0.1947  0.0200
 1344TIP3    H1 4038   5.728   3.256   0.720  0.3954 -0.5170  0.2037
 1344TIP3    H2 4039   5.701   3.382   0.800 -0.9353 -0.6903  0.0468
 1345TIP3   OH2 4040   5.256   3.163   5.036  0.8603 -0.4844  0.0589
 1345TIP3    H1 4041   5.283   3.215   4.961  0.4207 -1.3546 -0.7294
 1345TIP3    H2 4042   5.196   3.098   5.000 -2.3910  1.3572  1.7285
 1346TIP3   OH2 4043   0.779   0.550   1.558  0.1823  0.5942  0.4468
 1346TIP3    H1 4044   0.765   0.461   1.526 -0.0323  0.6736  0.3164
 1346TIP3    H2 4045   0.697   0.595   1.540  0.7601  1.1991 -0.7738
 1347TIP3   OH2 4046   1.171   0.001   1.065 -0.7314  0.4214 -0.5215
 1347TIP3    H1 4047   1.220   0.080   1.043 -0.9612  0.0965 -2.2921
 1347TIP3    H2 4048   1.109   0.030   1.132  1.2630  1.0169  1.1919
 1348TIP3   OH2 4049   5.668   4.721   1.034  0.3580  0.4011 -0.0405
 1348TIP3    H1 4050   5.574   4.723   1.049  0.5696 -0.1552  1.5183
 1348TIP3    H2 4051   5.703   4.788   1.092  1.1796 -1.4890  1.7424
 1349TIP3   OH2 4052   3.299   3.736   3.390  0.2075 -0.2676  0.3556
 1349TIP3    H1 4053   3.223   3.709   3.441  0.3518 -0.5826  0.4028
 1349TIP3    H2 4054   3.309   3.668   3.323  0.4286 -0.2085  0.3289
 1350TIP3   OH2 4055   1.894   0.137   1.390 -0.3722 -0.1854  0.2559
 1350TIP3    H1 4056   1.970   0.081   1.405  0.0386 -0.1121 -1.3223
 1350TIP3    H2 4057   1.840   0.127   1.468  0.8923 -0.8318  1.0710
 1351TIP3   OH2 4058   5.344   4.429   1.822  0.1307 -0.2444  0.1661
 1351TIP3    H1 4059   5.257   4.388   1.821  0.2497 -0.5085 -1.7894
 1351TIP3    H2 4060   5.394   4.380   1.757  1.1043  1.2827 -0.2720
 1352TIP3   OH2 4061   3.593   3.594   4.076  0.4386  0.1469  0.4175
 1352TIP3    H1 4062   3.664   3.537   4.106  3.0826  2.1673 -1.4269
 1352TIP3    H2 4063   3.529   3.535   4.038  1.0763 -1.7993  2.1831
 1353TIP3   OH2 4064   0.191   2.363   1.115  0.1823 -0.2751 -0.0484
 1353TIP3    H1 4065   0.198   2.392   1.024  0.0802 -1.2982 -0.3957
 1353TIP3    H2 4066   0.163   2.441   1.163  1.1091  0.5097 -0.7404
 1354TIP3   OH2 4067   1.486   3.396   4.165  0.0234  0.0149 -0.4177
 1354TIP3    H1 4068   1.406   3.444   4.142  0.9033  1.1061 -1.2671
 1354TIP3    H2 4069   1.454   3.308   4.189 -1.4034  0.3593 -0.9347
 1355TIP3   OH2 4070   2.941   4.835   0.739  0.4961 -0.2554  0.3350
 1355TIP3    H1 4071   2.881   4.805   0.808 -0.2494  1.2472  0.3900
 1355TIP3    H2 4072   2.885   4.886   0.680  1.8684  2.0875  0.9404
 1356TIP3   OH2 4073   5.222   2.151   0.220 -0.5892  0.2308 -0.2327
 1356TIP3    H1 4074   5.148   2.120   0.272  1.5052 -0.5818  2.4476
 1356TIP3    H2 4075   5.245   2.075   0.166 -1.8260  0.5892 -1.3271
 1357TIP3   OH2 4076   1.716   3.412   2.219 -0.5643 -0.1635  0.2641
 1357TIP3    H1 4077   1.765   3.465   2.282  0.2628  0.3019 -0.7447
 1357TIP3    H2 4078   1.624   3.430   2.238 -0.3027  1.8902 -0.2352
 1358TIP3   OH2 4079   0.808   1.932   3.669  0.0087  0.3796 -0.1356
 1358TIP3    H1 4080   0.872   1.956   3.601  1.6483 -0.9261  0.8561
 1358TIP3    H2 4081   0.789   2.014   3.714  1.5851  0.7090 -0.0042
 1359TIP3   OH2 4082   1.082   2.036   4.658 -0.6593  0.2270  0.2281
 1359TIP3    H1 4083   0.989   2.013   4.661 -0.5894 -1.0630 -2.9873
 1359TIP3    H2 4084   1.089   2.100   4.587  1.1346 -1.5415 -1.3260
 1360TIP3   OH2 4085   2.318   2.642   5.008 -0.2243 -0.2139 -0.4164
 1360TIP3    H1 4086   2.405   2.632   5.047  0.5665  0.0131 -2.0108
 1360TIP3    H2 4087   2.308   2.736   4.996 -1.7942  0.0124  1.9985
 1361TIP3   OH2 4088   1.714   3.973   4.827 -0.1169  0.1186  0.3110
 1361TIP3    H1 4089   1.707   3.922   4.747  1.5881  0.6150 -0.2056
 1361TIP3    H2 4090   1.712   3.909   4.898 -2.9576 -0.2360  0.0199
 1362TIP3   OH2 4091   1.406   2.182   0.983  0.6250 -0.0412  0.0733
 1362TIP3    H1 4092   1.385   2.232   1.062  2.9174  0.0987  0.6747
 1362TIP3    H2 4093   1.433   2.096   1.016 -1.1256 -0.9625 -0.7975
 1363TIP3   OH2 4094   4.475   5.212   3.834  0.3611 -0.3477  0.1289
 1363TIP3    H1 4095   4.478   5.176   3.745  2.1569  0.4392 -0.1752
 1363TIP3    H2 4096   4.565   5.237   3.853 -0.3843  1.7407  1.2352
 1364TIP3   OH2 4097   4.366   3.452   1.244 -0.7034 -1.0381  0.4780
 1364TIP3    H1 4098   4.384   3.451   1.338  0.3680 -3.0544  0.3274
 1364TIP3    H2 4099   4.288   3.397   1.234 -0.5425 -1.2096  0.1531
 1365TIP3   OH2 4100   2.154   3.113   5.135 -0.2428  0.0166  0.1466
 1365TIP3    H1 4101   2.234   3.149   5.098 -0.6100 -0.0882 -0.7690
 1365TIP3    H2 4102   2.171   3.109   5.229 -0.5644  3.7298  0.5438
 1366TIP3   OH2 4103   5.751   4.842   0.660 -0.1147 -0.0637  0.3608
 1366TIP3    H1 4104   5.804   4.807   0.589 -0.6473  0.0919 -0.1158
 1366TIP3    H2 4105   5.802   4.917   0.693  1.2519 -1.4971  1.6921
 1367TIP3   OH2 4106   1.912   4.862   2.993  0.0142 -0.1814  0.3655
 1367TIP3    H1 4107   1.947   4.814   2.918  4.1890 -1.0674  2.5746
 1367TIP3    H2 4108   1.838   4.811   3.023 -0.6111 -0.7794 -1.9871
 1368TIP3   OH2 4109   3.529   3.746   1.885  0.4349 -0.2174 -0.0015
 1368TIP3    H1 4110   3.477   3.817   1.847 -0.5998 -1.4571 -0.9961
 1368TIP3    H2 4111   3.499   3.740   1.976  0.5534  0.6199  0.0965
 1369TIP3   OH2 4112   2.267   5.811   0.189  0.4674  0.6124  0.1749
 1369TIP3    H1 4113   2.348   5.817   0.139  1.2872 -1.1125  1.2135
 1369TIP3    H2 4114   2.290   5.760   0.267 -1.8678 -0.9893 -0.0651
 1370TIP3   OH2 4115   6.387   3.137   3.699 -0.2876 -0.7655 -0.6374
 1370TIP3    H1 4116   6.363   3.229   3.699  1.6441 -0.2317 -0.1970
 1370TIP3    H2 4117   6.308   3.092   3.730 -2.3190  0.3655 -3.7072
 1371TIP3   OH2 4118   0.386   2.867   3.802 -0.5640  0.0485 -0.6861
 1371TIP3    H1 4119   0.340   2.861   3.885  1.2715  0.7501  0.4414
 1371TIP3    H2 4120   0.464   2.813   3.814  0.0234  0.6162 -1.7506
 1372TIP3   OH2 4121   1.011   3.130   3.656 -0.2252  0.4522  0.3627
 1372TIP3    H1 4122   1.015   3.209   3.710  0.9496  1.5918 -1.2961
 1372TIP3    H2 4123   1.098   3.090   3.666 -0.1485  0.4415 -0.3324
 1373TIP3   OH2 4124   5.919   1.370   1.441 -0.0843  0.3967 -0.5042
 1373TIP3    H1 4125   6.002   1.416   1.453  1.1596 -1.6163 -0.8923
 1373TIP3    H2 4126   5.908   1.364   1.347  1.5142 -2.8293 -0.6296
 1374TIP3   OH2 4127   1.927   5.930   1.631 -0.2636 -0.4736  0.5351
 1374TIP3    H1 4128   1.992   5.909   1.563 -0.2545 -0.6659  0.6044
 1374TIP3    H2 4129   1.899   6.019   1.609  0.7016 -0.0284  1.0422
 1375TIP3   OH2 4130   5.590   1.264   1.227  0.6242 -0.0055 -0.0910
 1375TIP3    H1 4131   5.582   1.182   1.178  0.9695 -1.0625  1.5442
 1375TIP3    H2 4132   5.503   1.304   1.220 -0.1095 -1.4077  0.5773
 1376TIP3   OH2 4133   0.303   2.633   1.542 -0.2221 -0.0879 -0.2309
 1376TIP3    H1 4134   0.276   2.706   1.597 -1.0804 -1.2756  1.0016
 1376TIP3    H2 4135   0.237   2.565   1.558  0.2908 -0.9712 -1.6758
 1377TIP3   OH2 4136   5.915   2.285   4.079  0.3110 -0.6647 -0.7626
 1377TIP3    H1 4137   5.831   2.309   4.119  0.2234 -0.7070 -0.9211
 1377TIP3    H2 4138   5.978   2.289   4.151  0.0724 -1.1985 -0.5199
 1378TIP3   OH2 4139   4.915   4.572   5.052  0.4988 -0.1122 -0.1523
 1378TIP3    H1 4140   4.902   4.532   5.138 -0.7857  0.4991 -0.0383
 1378TIP3    H2 4141   5.009   4.585   5.046  0.7226 -1.1355  0.7142
 1379TIP3   OH2 4142   0.755   1.019   2.384 -0.1223  0.0868 -0.5054
 1379TIP3    H1 4143   0.732   0.968   2.307 -0.4831 -1.0369  0.3193
 1379TIP3    H2 4144   0.676   1.018   2.438  0.1831  0.6930 -0.0300
 1380TIP3   OH2 4145   3.040   0.523   2.395 -0.2064  0.4257 -0.5768
 1380TIP3    H1 4146   2.960   0.492   2.438  0.5178 -0.8204 -0.0462
 1380TIP3    H2 4147   3.012   0.549   2.308 -0.9193 -1.8789 -1.1234
 1381TIP3   OH2 4148   3.937   5.418   3.749 -0.0333  0.0578  0.3663
 1381TIP3    H1 4149   3.952   5.487   3.685 -1.8191  0.2418  0.1101
 1381TIP3    H2 4150   3.975   5.451   3.830  0.4456  0.6862 -0.1060
 1382TIP3   OH2 4151   6.128   0.153   1.450  0.0138 -0.6371 -0.3018
 1382TIP3    H1 4152   6.203   0.192   1.496 -0.5342 -0.9094  0.8744
 1382TIP3    H2 4153   6.136   0.184   1.360  1.4575 -0.5492 -0.1676
 1383TIP3   OH2 4154   4.864   2.192   2.378 -0.0385  0.0320 -0.1561
 1383TIP3    H1 4155   4.911   2.246   2.314  0.0350  0.2083  0.0430
 1383TIP3    H2 4156   4.853   2.250   2.454  1.2496 -0.6402  0.5981
 1384TIP3   OH2 4157   5.303   4.928   2.462  0.1219  0.2972  0.0854
 1384TIP3    H1 4158   5.380   4.931   2.518  0.0199 -1.1374  0.3258
 1384TIP3    H2 4159   5.260   5.013   2.476  1.1541  0.7434  0.6444
 1385TIP3   OH2 4160   0.760   2.114   1.839  0.4274  0.0001 -0.3395
 1385TIP3    H1 4161   0.685   2.174   1.831  1.2060  1.1866  0.7934
 1385TIP3    H2 4162   0.816   2.135   1.764  1.2748  1.6106  0.6751
 1386TIP3   OH2 4163   0.679   3.540   3.669  0.5951 -0.4977 -0.3550
 1386TIP3    H1 4164   0.640   3.624   3.691 -0.3977 -0.7830 -1.0098
 1386TIP3    H2 4165   0.646   3.519   3.582  0.3500 -1.8534  0.0432
 1387TIP3   OH2 4166   2.943   4.786   2.729  0.1614  0.0788 -0.2392
 1387TIP3    H1 4167   2.981   4.837   2.800  2.0759 -1.4537 -0.0534
 1387TIP3    H2 4168   2.958   4.839   2.650  3.0574 -0.4814 -0.2075
 1388TIP3   OH2 4169   2.466   0.258   2.385  0.0443  0.4678 -0.4465
 1388TIP3    H1 4170   2.420   0.175   2.399  1.1730 -0.6926 -2.9619
 1388TIP3    H2 4171   2.546   0.233   2.340  1.9593  2.6808  1.4730
 1389TIP3   OH2 4172   2.299   3.521   2.319 -0.4101 -0.2274 -0.3869
 1389TIP3    H1 4173   2.317   3.458   2.390 -0.3237 -0.5826 -0.7157
 1389TIP3    H2 4174   2.286   3.466   2.242 -0.1913  0.1692 -0.7107
 1390TIP3   OH2 4175   0.841   5.566   1.033 -0.5998 -0.0969 -0.0501
 1390TIP3    H1 4176   0.892   5.485   1.033  0.5791  0.6134  1.4504
 1390TIP3    H2 4177   0.880   5.619   0.963  0.0395  0.0109  0.3784
 1391TIP3   OH2 4178   0.956   0.163   1.487  0.4425 -0.1497 -0.1142
 1391TIP3    H1 4179   0.957   0.083   1.435  0.9473 -1.4994  1.8555
 1391TIP3    H2 4180   1.029   0.152   1.549  0.8914  2.1123 -0.1645
 1392TIP3   OH2 4181   2.501   3.450   2.068 -0.5468 -0.4765  0.5029
 1392TIP3    H1 4182   2.536   3.366   2.099 -0.4826 -0.4634  0.4661
 1392TIP3    H2 4183   2.465   3.431   1.982 -0.5125 -0.4615  0.4850
 1393TIP3   OH2 4184   1.928   3.971   4.106  0.1989  0.0307  0.2856
 1393TIP3    H1 4185   1.945   3.997   4.197  0.1015 -0.5307  0.4685
 1393TIP3    H2 4186   1.972   3.887   4.097 -1.2590 -0.7605  0.3300
 1394TIP3   OH2 4187   1.309   3.604   3.377 -0.0619 -0.7097 -0.8336
 1394TIP3    H1 4188   1.264   3.612   3.461 -0.1922  1.3087 -1.0438
 1394TIP3    H2 4189   1.237   3.596   3.313 -0.1189  0.8941 -1.0136
 1395TIP3   OH2 4190   1.783   1.417   3.901  0.1595 -0.5313 -0.0550
 1395TIP3    H1 4191   1.780   1.483   3.971 -1.0939 -2.3159  1.6718
 1395TIP3    H2 4192   1.766   1.467   3.821  1.6268  1.5773  0.8575
 1396TIP3   OH2 4193   2.677   0.126   2.231  0.7163  0.1532 -0.4606
 1396TIP3    H1 4194   2.674   0.044   2.281  0.0442 -0.0345 -0.7957
 1396TIP3    H2 4195   2.748   0.112   2.168  1.1239  0.1355 -0.0089
 1397TIP3   OH2 4196   2.516   3.143   2.630  0.4768  0.3203  0.3519
 1397TIP3    H1 4197   2.421   3.131   2.634  0.4168  1.0373  2.4622
 1397TIP3    H2 4198   2.550   3.087   2.700  1.3876  1.6610  1.0304
 1398TIP3   OH2 4199   3.331   5.040   0.816 -0.4368 -0.0037 -0.2293
 1398TIP3    H1 4200   3.387   5.117   0.824  1.6933 -1.5901  1.7275
 1398TIP3    H2 4201   3.247   5.067   0.851  0.1559  1.5114  0.0814
 1399TIP3   OH2 4202   0.868   2.210   0.668 -0.0364 -0.6992 -0.8725
 1399TIP3    H1 4203   0.824   2.255   0.740  0.1524 -1.3940 -0.3109
 1399TIP3    H2 4204   0.949   2.260   0.655  0.1927 -0.8829 -0.2245
 1400TIP3   OH2 4205   1.032   5.135   2.512 -0.1728 -0.3256  0.2264
 1400TIP3    H1 4206   0.994   5.144   2.599  0.4051 -0.6009  0.5128
 1400TIP3    H2 4207   1.063   5.223   2.490 -0.1239 -0.3019  0.3906
 1401TIP3   OH2 4208   5.312   1.116   1.798  0.2079 -0.2910  0.9104
 1401TIP3    H1 4209   5.377   1.070   1.851  1.3467 -0.0594 -0.2364
 1401TIP3    H2 4210   5.340   1.102   1.708 -0.3653  1.2410  0.4564
 1402TIP3   OH2 4211   3.743   4.979   1.695 -0.8403 -0.6582 -0.1708
 1402TIP3    H1 4212   3.742   5.010   1.605  1.0305  0.4850  0.1294
 1402TIP3    H2 4213   3.773   4.888   1.689 -0.1268 -0.4006 -0.6813
 1403TIP3   OH2 4214   4.704   0.194   1.910 -0.0174 -0.4674 -0.4837
 1403TIP3    H1 4215   4.784   0.244   1.897 -0.7796  0.8592 -0.2257
 1403TIP3    H2 4216   4.690   0.149   1.827 -0.1284  0.9784 -1.2789
 1404TIP3   OH2 4217   4.271   4.645   0.431 -0.5331  0.0922  0.3022
 1404TIP3    H1 4218   4.287   4.736   0.454 -2.9860  0.5042  0.7198
 1404TIP3    H2 4219   4.217   4.649   0.352 -2.2836 -0.8478  1.3714
 1405TIP3   OH2 4220   3.481   1.344   2.269 -0.2429  0.0023 -0.0354
 1405TIP3    H1 4221   3.571   1.331   2.238 -0.4900 -0.7684 -0.4601
 1405TIP3    H2 4222   3.460   1.264   2.316 -1.3321 -0.6351 -1.5028
 1406TIP3   OH2 4223   0.553   1.117   1.574 -0.5711 -0.3365 -0.2635
 1406TIP3    H1 4224   0.471   1.068   1.575 -1.3378  0.9059  0.2127
 1406TIP3    H2 4225   0.609   1.068   1.513 -1.5279 -1.4021 -0.3304
 1407TIP3   OH2 4226   3.519   0.275   3.488 -0.6242  0.1495  0.3184
 1407TIP3    H1 4227   3.471   0.264   3.570  1.0021 -1.0760  1.1629
 1407TIP3    H2 4228   3.550   0.187   3.467 -1.8482  0.2340 -2.1957
 1408TIP3   OH2 4229   4.313   2.044   0.458  0.3709  0.4944  0.2655
 1408TIP3    H1 4230   4.268   1.960   0.457  1.1268  0.0850 -0.4431
 1408TIP3    H2 4231   4.362   2.044   0.540  0.5951  0.1151  0.1335
 1409TIP3   OH2 4232   0.048   5.776   1.182  0.2225  0.2382 -0.1304
 1409TIP3    H1 4233   0.139   5.757   1.161  0.6117  0.7251  1.0377
 1409TIP3    H2 4234   0.031   5.860   1.140  0.0759 -0.2026 -0.9685
 1410TIP3   OH2 4235   2.635   4.442   4.340  0.7367 -0.0030 -0.2208
 1410TIP3    H1 4236   2.674   4.516   4.387  2.1288 -0.1379 -1.0969
 1410TIP3    H2 4237   2.557   4.478   4.298  1.0159  0.7928 -0.0755
 1411TIP3   OH2 4238   0.356   5.412   2.103 -0.3764 -0.4825  0.0698
 1411TIP3    H1 4239   0.335   5.342   2.166 -2.4701  0.5158  0.5959
 1411TIP3    H2 4240   0.285   5.408   2.039  1.7738 -1.5504 -2.4191
 1412TIP3   OH2 4241   4.240   0.844   2.747  0.1094 -0.1715 -0.0314
 1412TIP3    H1 4242   4.151   0.810   2.759 -1.0449  2.2394 -1.0293
 1412TIP3    H2 4243   4.246   0.917   2.809  0.3971  1.3268 -1.7542
 1413TIP3   OH2 4244   6.030   1.846   4.993  0.0112  0.1542 -0.3886
 1413TIP3    H1 4245   6.098   1.829   5.059 -0.7768  1.3098  0.7782
 1413TIP3    H2 4246   5.948   1.843   5.043 -0.8800 -1.6518 -1.8410
 1414TIP3   OH2 4247   3.128   4.348   0.310  0.5009 -0.0289  0.1587
 1414TIP3    H1 4248   3.136   4.443   0.318  0.7845  0.1602 -1.7079
 1414TIP3    H2 4249   3.033   4.332   0.310  0.4664  0.0985  1.7038
 1415TIP3   OH2 4250   0.936   3.836   3.907  0.2694 -0.7793 -0.3622
 1415TIP3    H1 4251   0.899   3.796   3.986 -0.8652 -0.9275 -0.9369
 1415TIP3    H2 4252   0.864   3.888   3.871  0.9435 -0.2757 -1.0010
 1416TIP3   OH2 4253   4.903   1.629   2.676  0.0070  0.7891  0.2281
 1416TIP3    H1 4254   4.950   1.708   2.647  1.0245 -0.1011 -0.6498
 1416TIP3    H2 4255   4.861   1.596   2.597 -1.1517  0.9158  0.7756
 1417TIP3   OH2 4256   0.513   0.316   3.200  0.2509 -0.0005  0.2505
 1417TIP3    H1 4257   0.584   0.307   3.264  0.9194 -0.7539 -0.5682
 1417TIP3    H2 4258   0.493   0.226   3.175  1.1295  0.3206 -1.7935
 1418TIP3   OH2 4259   3.483   0.553   0.325  1.1159  0.4548 -0.5433
 1418TIP3    H1 4260   3.515   0.641   0.305  0.0991  1.2793  1.1695
 1418TIP3    H2 4261   3.420   0.534   0.256 -1.0076  2.4614  0.6852
 1419TIP3   OH2 4262   4.981   1.875   4.808  0.2225 -0.1311 -0.1073
 1419TIP3    H1 4263   4.920   1.866   4.881 -0.2852  0.4768 -0.4328
 1419TIP3    H2 4264   5.062   1.834   4.837 -0.1489 -0.3776  0.5831
 1420TIP3   OH2 4265   3.821   5.593   2.375 -0.0643  0.3927  0.1272
 1420TIP3    H1 4266   3.823   5.521   2.438  0.5728  1.9304  1.9363
 1420TIP3    H2 4267   3.907   5.634   2.382  0.6021 -0.2412 -2.8773
 1421TIP3   OH2 4268   5.934   4.971   0.990 -0.2924 -0.4126 -0.0309
 1421TIP3    H1 4269   5.867   4.967   1.058  0.7604 -0.6929  1.0221
 1421TIP3    H2 4270   5.960   4.880   0.977  0.3878 -0.2423  0.1023
 1422TIP3   OH2 4271   4.648   4.473   4.018 -0.0706 -0.4105  0.0488
 1422TIP3    H1 4272   4.657   4.378   4.023 -2.0567 -0.6816 -0.7235
 1422TIP3    H2 4273   4.672   4.496   3.929  0.7152 -0.1318  0.3240
 1423TIP3   OH2 4274   2.004   5.141   2.895 -0.3625  0.3150  0.1852
 1423TIP3    H1 4275   1.923   5.159   2.943  0.3565 -0.5014  1.7760
 1423TIP3    H2 4276   2.009   5.046   2.891 -1.2623  0.3066 -3.1103
 1424TIP3   OH2 4277   4.465   0.073   1.297 -0.3712  0.2998 -0.7111
 1424TIP3    H1 4278   4.493   0.154   1.254 -1.3477  0.2835 -1.4155
 1424TIP3    H2 4279   4.500   0.003   1.242  0.2394  0.2396 -0.2539
 1425TIP3   OH2 4280   3.843   2.886   3.477  0.0081 -0.4415 -0.1654
 1425TIP3    H1 4281   3.846   2.972   3.435  1.5184 -0.9150 -1.0794
 1425TIP3    H2 4282   3.933   2.870   3.506 -0.4338 -1.3391  0.7942
 1426TIP3   OH2 4283   4.426   5.828   1.497 -0.2617  0.1031  0.1692
 1426TIP3    H1 4284   4.338   5.794   1.512 -0.0464 -0.0125  1.2146
 1426TIP3    H2 4285   4.462   5.844   1.584 -0.5181  3.5312 -0.2124
 1427TIP3   OH2 4286   0.434   5.531   5.065 -0.3837  0.0495  0.5655
 1427TIP3    H1 4287   0.435   5.476   5.143 -1.1355 -2.7288 -1.2214
 1427TIP3    H2 4288   0.366   5.492   5.010 -0.6757  2.5963 -1.0378
 1428TIP3   OH2 4289   0.375   0.071   1.129  0.4815  0.6000  0.0274
 1428TIP3    H1 4290   0.334   0.145   1.083 -2.6362 -0.9786 -0.0069
 1428TIP3    H2 4291   0.371   0.096   1.221 -2.3274 -0.1652  0.2033
 1429TIP3   OH2 4292   4.427   1.008   4.213 -0.3812  0.5269 -0.4146
 1429TIP3    H1 4293   4.444   0.977   4.302 -0.3010  0.2840 -0.5153
 1429TIP3    H2 4294   4.512   1.034   4.180 -0.3008 -0.0497 -0.6732
 1430TIP3   OH2 4295   4.581   3.383   4.343  0.2169  0.6127  0.5073
 1430TIP3    H1 4296   4.509   3.321   4.352  0.6451 -0.4653 -2.3175
 1430TIP3    H2 4297   4.657   3.335   4.377  0.0975  0.6248  0.7936
 1431TIP3   OH2 4298   3.615   5.812   3.555  0.0867  0.5267 -0.2836
 1431TIP3    H1 4299   3.645   5.733   3.511  0.6349 -1.1070  2.7425
 1431TIP3    H2 4300   3.654   5.884   3.504  0.6524 -1.1441 -2.3721
 1432TIP3   OH2 4301   1.257   0.336   4.657  0.3278  0.0951  0.2212
 1432TIP3    H1 4302   1.206   0.384   4.591  1.0052  1.5204  0.6864
 1432TIP3    H2 4303   1.192   0.293   4.712 -0.2563 -0.8196 -1.1489
 1433TIP3   OH2 4304   2.027   5.263   2.156 -0.3413 -0.4149  0.5611
 1433TIP3    H1 4305   2.001   5.355   2.160 -4.4715 -1.3546 -0.0571
 1433TIP3    H2 4306   1.969   5.224   2.089  1.4050 -3.4331  0.6058
 1434TIP3   OH2 4307   6.000   1.727   1.804 -0.5108 -0.0594 -0.0273
 1434TIP3    H1 4308   5.918   1.679   1.789 -0.7467 -0.4036  2.0200
 1434TIP3    H2 4309   6.057   1.663   1.847 -0.1373  0.9399  1.0097
 1435TIP3   OH2 4310   0.877   4.837   2.184 -0.2330  0.0110 -0.1113
 1435TIP3    H1 4311   0.865   4.777   2.111 -0.4161 -0.3661  0.2324
 1435TIP3    H2 4312   0.875   4.924   2.144  0.7233 -0.2255 -0.7095
 1436TIP3   OH2 4313   3.376   4.491   3.360 -0.2887  0.3402 -0.1508
 1436TIP3    H1 4314   3.337   4.433   3.426  0.2722  1.1229  0.8896
 1436TIP3    H2 4315   3.396   4.571   3.407  1.0026  0.5791 -1.0644
 1437TIP3   OH2 4316   5.880   1.634   4.743  0.6578  0.4841  0.3005
 1437TIP3    H1 4317   5.887   1.730   4.742  1.1415  0.4519 -0.3669
 1437TIP3    H2 4318   5.930   1.607   4.820 -0.1118  0.7974  0.9330
 1438TIP3   OH2 4319  -0.005   4.369   1.510  0.2562  0.6243 -0.4260
 1438TIP3    H1 4320   0.016   4.418   1.589 -0.5525  0.2820  0.0159
 1438TIP3    H2 4321   0.042   4.287   1.519 -1.3147 -0.2057  0.6345
 1439TIP3   OH2 4322   4.645   2.340   2.567  0.1076 -0.2763 -0.2854
 1439TIP3    H1 4323   4.585   2.411   2.545 -0.4593 -0.7131 -0.1671
 1439TIP3    H2 4324   4.727   2.384   2.589 -0.0504  0.3057 -0.8313
 1440TIP3   OH2 4325   2.906   2.435   3.949  0.8016 -0.1220  0.3780
 1440TIP3    H1 4326   2.846   2.468   4.017 -1.6090 -2.2617 -0.5653
 1440TIP3    H2 4327   2.920   2.511   3.892 -0.0517  0.7482  1.2725
 1441TIP3   OH2 4328   2.159   4.707   3.861  0.2252  0.2717 -0.0730
 1441TIP3    H1 4329   2.252   4.698   3.882  0.2161 -1.5167 -0.6235
 1441TIP3    H2 4330   2.156   4.701   3.765 -0.4018  1.1365 -0.1201
 1442TIP3   OH2 4331   5.822   5.465   3.786 -0.4549  0.4256 -0.0124
 1442TIP3    H1 4332   5.780   5.536   3.736  0.4946 -0.5124 -2.2673
 1442TIP3    H2 4333   5.749   5.416   3.823 -1.3467 -0.0308 -2.2356
 1443TIP3   OH2 4334   3.685   5.844   1.226 -0.4534  0.1184  0.0630
 1443TIP3    H1 4335   3.756   5.849   1.163 -1.2988 -0.3232 -0.9556
 1443TIP3    H2 4336   3.677   5.932   1.261  0.0417  0.3612 -0.4320
 1444TIP3   OH2 4337   0.751   1.480   1.451 -0.3622 -0.1198 -0.2065
 1444TIP3    H1 4338   0.804   1.478   1.530 -0.8562 -2.2134  0.1350
 1444TIP3    H2 4339   0.814   1.462   1.380 -0.2995 -0.7495 -0.0003
 1445TIP3   OH2 4340   6.337   0.635   1.578 -0.0387  0.4521  0.3996
 1445TIP3    H1 4341   6.382   0.716   1.555  0.6689  0.0393  0.2910
 1445TIP3    H2 4342   6.247   0.649   1.550  0.5251  0.4261 -1.5497
 1446TIP3   OH2 4343   5.944   1.603   0.860 -0.2223  0.0380 -0.6077
 1446TIP3    H1 4344   6.002   1.546   0.910 -1.2561 -0.0419  0.5620
 1446TIP3    H2 4345   5.856   1.570   0.879 -0.7153  0.8270 -1.4565
 1447TIP3   OH2 4346   4.005   5.606   3.551  0.2590 -0.4679 -0.5943
 1447TIP3    H1 4347   4.018   5.695   3.582 -1.1688  0.0493 -1.4271
 1447TIP3    H2 4348   4.043   5.604   3.463 -0.0189 -0.5940 -0.7119
 1448TIP3   OH2 4349   3.972   3.466   2.403  0.0020 -0.0827 -0.3076
 1448TIP3    H1 4350   4.062   3.448   2.431  0.3868  0.9067 -0.8046
 1448TIP3    H2 4351   3.955   3.402   2.334 -0.1466 -1.0916  0.6503
 1449TIP3   OH2 4352   5.153   1.052   3.396  0.3894 -0.5785 -0.2194
 1449TIP3    H1 4353   5.083   1.003   3.353 -0.6516 -0.5628  1.3937
 1449TIP3    H2 4354   5.188   0.991   3.461 -0.7294  0.6475  1.6145
 1450TIP3   OH2 4355   4.856   1.291   3.233  0.5125  0.3069 -0.2970
 1450TIP3    H1 4356   4.820   1.227   3.172  1.4148 -1.2460  0.7279
 1450TIP3    H2 4357   4.829   1.260   3.319  1.5153  0.9224  0.2643
 1451TIP3   OH2 4358   2.207   2.184   0.613 -0.1151  0.3592  0.3450
 1451TIP3    H1 4359   2.171   2.120   0.674 -0.9653  0.0625 -0.4461
 1451TIP3    H2 4360   2.172   2.268   0.643 -0.7361  0.1830  0.1209
 1452TIP3   OH2 4361   3.947   1.064   4.695  0.1506 -0.2972  0.5085
 1452TIP3    H1 4362   4.010   1.006   4.737  1.7508  1.3393  0.5078
 1452TIP3    H2 4363   3.986   1.086   4.611 -1.8051 -1.4794 -0.7812
 1453TIP3   OH2 4364   6.262   0.648   0.041  0.1202  0.2128 -0.1159
 1453TIP3    H1 4365   6.264   0.552   0.034  0.9016  0.3042 -1.4400
 1453TIP3    H2 4366   6.173   0.668   0.070  0.4940 -1.0009  2.1105
 1454TIP3   OH2 4367   1.917   1.338   3.523  0.4052  0.1755 -0.3568
 1454TIP3    H1 4368   1.844   1.396   3.544 -0.4702 -1.2380  0.6338
 1454TIP3    H2 4369   1.904   1.315   3.431 -0.4932 -0.1733 -0.1522
 1455TIP3   OH2 4370   0.435   2.922   4.490  0.0928 -0.1424 -0.0052
 1455TIP3    H1 4371   0.392   2.935   4.406  0.5154  1.7548  0.0274
 1455TIP3    H2 4372   0.528   2.917   4.469  0.3315  1.7020  0.4142
 1456TIP3   OH2 4373   0.293   4.526   0.017  0.5989  0.1460 -0.2923
 1456TIP3    H1 4374   0.346   4.474   0.077  2.2921 -0.1826 -1.9584
 1456TIP3    H2 4375   0.249   4.591   0.073  0.6525 -1.2729  1.4717
 1457TIP3   OH2 4376   2.957   3.159   2.567 -0.3311 -0.0858 -1.0677
 1457TIP3    H1 4377   2.903   3.083   2.586 -2.0897  0.9451 -1.6822
 1457TIP3    H2 4378   3.047   3.129   2.580 -1.0689 -1.5279  1.2183
 1458TIP3   OH2 4379   6.094   4.476   0.022 -0.2509 -0.1972 -0.0446
 1458TIP3    H1 4380   6.026   4.465   0.089 -0.0462  1.2860  0.4415
 1458TIP3    H2 4381   6.174   4.444   0.063 -0.1819  0.4327  0.3127
 1459TIP3   OH2 4382   5.185   2.323   1.828  0.7802  0.6384  0.9035
 1459TIP3    H1 4383   5.201   2.416   1.816 -0.0873  0.7272  0.3642
 1459TIP3    H2 4384   5.259   2.292   1.880  1.5093  1.4502  0.3532
 1460TIP3   OH2 4385   3.089   5.346   0.157  0.2597  0.5095  0.0232
 1460TIP3    H1 4386   3.052   5.424   0.199  2.0886  2.2536 -1.3789
 1460TIP3    H2 4387   3.184   5.359   0.163  0.6041 -1.4223 -0.6359
 1461TIP3   OH2 4388   3.865   3.648   3.547  0.2201  0.1718 -0.7612
 1461TIP3    H1 4389   3.957   3.628   3.567  0.4493 -0.8670 -2.5435
 1461TIP3    H2 4390   3.817   3.570   3.574  0.0351  0.2387 -0.8933
 1462TIP3   OH2 4391   4.675   3.677   2.121  0.1630  0.3991  0.2633
 1462TIP3    H1 4392   4.708   3.765   2.138 -0.0374  0.5011  0.1156
 1462TIP3    H2 4393   4.625   3.654   2.199 -1.1520  1.0504 -0.3710
 1463TIP3   OH2 4394   4.209   1.754   0.200 -0.3341  0.5928  0.2888
 1463TIP3    H1 4395   4.295   1.755   0.241 -0.1667 -0.4140 -0.0195
 1463TIP3    H2 4396   4.183   1.662   0.201 -2.3712  1.0941  2.3435
 1464TIP3   OH2 4397   4.974   0.164   4.987 -0.7106 -0.0970 -0.3379
 1464TIP3    H1 4398   4.897   0.191   4.936 -0.5971  0.4335 -0.2389
 1464TIP3    H2 4399   5.048   0.179   4.928 -0.5416  0.8689  0.0880
 1465TIP3   OH2 4400   5.509   0.576   0.306  0.0077  0.4151 -0.0825
 1465TIP3    H1 4401   5.422   0.616   0.305  0.3458  1.1831 -1.2985
 1465TIP3    H2 4402   5.567   0.646   0.338  0.5571  0.8566 -1.9122
 1466TIP3   OH2 4403   4.771   4.329   4.652  0.2242 -0.0588 -0.5929
 1466TIP3    H1 4404   4.754   4.257   4.591  0.7358 -0.2874 -0.4735
 1466TIP3    H2 4405   4.703   4.319   4.719  1.1244 -1.3025  0.1830
 1467TIP3   OH2 4406   0.770   3.317   0.652  0.4034  0.0668 -0.5360
 1467TIP3    H1 4407   0.731   3.231   0.633 -2.1990  0.7719  1.0952
 1467TIP3    H2 4408   0.849   3.297   0.702  0.2210 -1.3724 -0.7669
 1468TIP3   OH2 4409   0.139   3.081   0.548 -0.3025 -0.4774 -0.1445
 1468TIP3    H1 4410   0.111   3.045   0.464  0.7698  1.9069 -1.6227
 1468TIP3    H2 4411   0.064   3.134   0.577  0.3712  1.1775 -1.2150
 1469TIP3   OH2 4412   0.775   5.950   2.525 -0.2626  0.0790  0.0369
 1469TIP3    H1 4413   0.846   6.001   2.566 -0.3319  0.1686  0.0454
 1469TIP3    H2 4414   0.817   5.869   2.497 -0.5102 -0.6301  1.6214
 1470TIP3   OH2 4415   2.843   3.606   1.640 -0.1692 -0.0440  0.3616
 1470TIP3    H1 4416   2.786   3.543   1.595  1.0491 -1.4939  0.7455
 1470TIP3    H2 4417   2.851   3.679   1.580  0.7342 -1.5615 -1.4539
 1471TIP3   OH2 4418   4.852   2.076   3.046  0.1063 -0.2108  0.2746
 1471TIP3    H1 4419   4.875   1.985   3.065 -1.3604 -0.5785  0.3824
 1471TIP3    H2 4420   4.865   2.084   2.951  0.1492 -0.5640  0.2471
 1472TIP3   OH2 4421   1.000   1.293   3.148  0.3855 -0.0943  0.2447
 1472TIP3    H1 4422   0.958   1.356   3.090  3.3758 -0.2813 -2.3789
 1472TIP3    H2 4423   0.982   1.208   3.108 -1.6283 -0.7820  2.4403
 1473TIP3   OH2 4424   4.832   3.724   2.812  0.1069  0.3811 -0.7043
 1473TIP3    H1 4425   4.910   3.676   2.838  0.2440  0.1480 -1.5246
 1473TIP3    H2 4426   4.769   3.657   2.785 -0.2468  0.5840 -0.3968
 1474TIP3   OH2 4427   1.537   3.354   0.157 -0.2544 -0.3110  0.3070
 1474TIP3    H1 4428   1.592   3.297   0.103  0.3363 -0.2696  0.8530
 1474TIP3    H2 4429   1.599   3.406   0.209 -0.7741 -1.7832  2.5552
 1475TIP3   OH2 4430   5.102   3.174   0.897 -0.4689  0.0936 -0.2613
 1475TIP3    H1 4431   5.130   3.188   0.987 -2.1699  2.3623 -0.0140
 1475TIP3    H2 4432   5.012   3.205   0.894 -0.2469  0.7257 -2.8902
 1476TIP3   OH2 4433   5.793   5.479   2.909  0.7245 -0.7055  0.1591
 1476TIP3    H1 4434   5.717   5.425   2.933 -0.6911  0.6007 -1.1997
 1476TIP3    H2 4435   5.841   5.425   2.845  0.3972 -1.1263  0.2624
 1477TIP3   OH2 4436   2.510   3.793   2.418  0.1470  0.2061  0.1635
 1477TIP3    H1 4437   2.467   3.877   2.431 -1.4071 -0.7903  1.7864
 1477TIP3    H2 4438   2.447   3.740   2.369  1.0475 -0.1063 -0.7125
 1478TIP3   OH2 4439   3.808   4.120   3.288  0.1485 -0.2541 -0.1830
 1478TIP3    H1 4440   3.873   4.062   3.327 -1.6199 -0.7097  2.3171
 1478TIP3    H2 4441   3.807   4.197   3.344 -0.7195  0.1961 -0.7850
 1479TIP3   OH2 4442   4.105   1.806   2.702 -0.2839 -0.7139 -0.0388
 1479TIP3    H1 4443   4.170   1.809   2.772 -0.8857 -2.2344  0.6347
 1479TIP3    H2 4444   4.115   1.890   2.656  0.4033  0.1557  1.6068
 1480TIP3   OH2 4445   2.476   3.013   0.939  0.2096 -0.4163  0.0110
 1480TIP3    H1 4446   2.407   3.075   0.913  0.2092 -0.5212 -0.2392
 1480TIP3    H2 4447   2.496   2.965   0.859  1.1351  0.1540 -0.1104
 1481TIP3   OH2 4448   0.151   0.279   3.492  0.2814  0.4323  0.1742
 1481TIP3    H1 4449   0.157   0.249   3.583  0.8781 -0.2819 -0.0869
 1481TIP3    H2 4450   0.062   0.313   3.484 -0.1073 -0.3988  0.7636
 1482TIP3   OH2 4451   2.429   0.789   3.107  0.1356  0.0467  0.2518
 1482TIP3    H1 4452   2.338   0.762   3.118  0.2838 -1.1137 -1.1512
 1482TIP3    H2 4453   2.476   0.747   3.179 -0.4719  1.0610  1.2890
 1483TIP3   OH2 4454   5.661   3.138   4.068  0.4775 -0.3016 -0.4967
 1483TIP3    H1 4455   5.687   3.105   3.982  3.0167 -2.7659  1.0532
 1483TIP3    H2 4456   5.737   3.188   4.099  0.2590 -0.7691  0.8910
 1484TIP3   OH2 4457   5.083   5.162   1.606 -0.2351  0.2932  0.1107
 1484TIP3    H1 4458   5.139   5.105   1.553 -1.4390 -2.0548  1.2445
 1484TIP3    H2 4459   5.144   5.205   1.667  0.4054 -3.0314  2.0632
 1485TIP3   OH2 4460   3.558   4.699   2.206 -0.1489 -0.2858 -0.0034
 1485TIP3    H1 4461   3.472   4.667   2.232 -0.6226  0.1192 -1.0192
 1485TIP3    H2 4462   3.577   4.653   2.124  0.3188  0.0909 -0.1122
 1486TIP3   OH2 4463   1.844   1.672   0.785  0.3175 -0.0302  0.5194
 1486TIP3    H1 4464   1.810   1.761   0.788  0.9545  0.2400 -0.1821
 1486TIP3    H2 4465   1.849   1.646   0.877 -1.5330 -0.0000  0.6654
 1487TIP3   OH2 4466   4.029   2.879   1.204  0.1060  0.1596 -0.2580
 1487TIP3    H1 4467   3.996   2.916   1.285  0.9231  1.0543 -0.3142
 1487TIP3    H2 4468   3.953   2.873   1.146  0.1451  3.1382 -0.7640
 1488TIP3   OH2 4469   5.071   5.775   4.161 -0.1625 -0.5200 -0.1134
 1488TIP3    H1 4470   5.141   5.803   4.220  0.5952  1.4807 -1.8149
 1488TIP3    H2 4471   5.059   5.850   4.102 -1.4648 -2.0807 -1.9417
 1489TIP3   OH2 4472   5.690   4.411   1.451 -0.2622 -0.4220  0.4186
 1489TIP3    H1 4473   5.779   4.431   1.421 -0.2573  1.8197  1.7367
 1489TIP3    H2 4474   5.641   4.395   1.370  0.7827  0.8016 -0.4973
 1490TIP3   OH2 4475   0.300   0.138   4.826 -0.0264 -0.4323  0.3527
 1490TIP3    H1 4476   0.310   0.165   4.735 -1.1345  0.5709  0.5078
 1490TIP3    H2 4477   0.206   0.125   4.838 -0.0031  0.3810  1.6002
 1491TIP3   OH2 4478   4.639   3.231   3.220 -0.3274  0.4533 -0.7297
 1491TIP3    H1 4479   4.666   3.323   3.222 -0.1363  0.4264 -1.6214
 1491TIP3    H2 4480   4.631   3.211   3.127 -0.0088 -0.5404 -0.5493
 1492TIP3   OH2 4481   1.523   0.710   0.402  0.5997  0.2346  0.3683
 1492TIP3    H1 4482   1.486   0.638   0.351  0.7672  1.1018 -1.0405
 1492TIP3    H2 4483   1.618   0.700   0.393  0.6298  0.4662  0.4171
 1493TIP3   OH2 4484   0.292   4.003   2.935  0.9893  0.0771 -0.0776
 1493TIP3    H1 4485   0.211   4.030   2.977  1.1913  1.5210 -0.5540
 1493TIP3    H2 4486   0.264   3.951   2.860  0.3957  1.5781 -0.9621
 1494TIP3   OH2 4487   3.295   1.074   1.704 -0.1639 -0.2227  0.1338
 1494TIP3    H1 4488   3.368   1.031   1.749  0.0961 -0.0832 -0.1535
 1494TIP3    H2 4489   3.258   1.006   1.649  0.7234  0.1033 -0.9033
 1495TIP3   OH2 4490   2.208   5.029   0.975 -0.1002 -0.1605  0.3325
 1495TIP3    H1 4491   2.163   5.020   0.890 -0.1104  0.7462  0.2297
 1495TIP3    H2 4492   2.222   4.939   1.004 -0.2099 -0.4854 -0.5741
 1496TIP3   OH2 4493   2.359   0.758   3.449  0.0777 -0.2647  0.4430
 1496TIP3    H1 4494   2.445   0.745   3.409 -0.5395 -1.1217 -0.6669
 1496TIP3    H2 4495   2.344   0.852   3.445  1.3969  0.0380  1.6314
 1497TIP3   OH2 4496   1.012   2.767   4.461 -0.1486  0.3723 -0.1112
 1497TIP3    H1 4497   1.024   2.678   4.428  0.0928  0.1973  0.4503
 1497TIP3    H2 4498   1.002   2.820   4.381  0.9739  0.0288 -0.4983
 1498TIP3   OH2 4499   1.435   1.256   1.988 -0.0028  0.2827  0.4740
 1498TIP3    H1 4500   1.469   1.167   2.000 -1.5974 -0.3260  0.7372
 1498TIP3    H2 4501   1.496   1.296   1.926 -0.0021 -1.4415 -0.7159
 1499TIP3   OH2 4502   2.965   3.153   1.692 -0.4428 -0.5460  0.4542
 1499TIP3    H1 4503   2.989   3.245   1.685 -3.0238  0.1903 -0.1649
 1499TIP3    H2 4504   2.969   3.133   1.785 -0.0558  0.2715  0.6146
 1500TIP3   OH2 4505   6.168   2.545   4.728 -0.0278  1.2178 -0.2152
 1500TIP3    H1 4506   6.189   2.523   4.638 -0.1191  2.5573 -0.5828
 1500TIP3    H2 4507   6.077   2.517   4.739  0.1060  0.7075 -0.4221
 1501TIP3   OH2 4508   3.729   0.586  -0.003 -0.2092  0.5118  0.7285
 1501TIP3    H1 4509   3.638   0.566  -0.025  0.4940 -2.2543  0.0151
 1501TIP3    H2 4510   3.736   0.566   0.091 -0.4669  1.3167  0.9236
 1502TIP3   OH2 4511   2.950   0.287   5.044  0.7314 -0.1097 -0.0941
 1502TIP3    H1 4512   2.898   0.209   5.024  1.1965 -0.4304 -0.0568
 1502TIP3    H2 4513   2.992   0.268   5.128 -1.1312  1.1832  1.2234
 1503TIP3   OH2 4514   3.792   2.759   4.122  0.5966 -0.2400 -0.6611
 1503TIP3    H1 4515   3.797   2.664   4.124  2.1621 -0.1823 -0.7245
 1503TIP3    H2 4516   3.700   2.779   4.138  0.2609 -1.7559 -0.6085
 1504TIP3   OH2 4517   3.346   0.967   3.588 -0.2327 -0.0968 -0.7328
 1504TIP3    H1 4518   3.428   0.983   3.541  0.0066 -0.8057 -0.5529
 1504TIP3    H2 4519   3.343   0.873   3.601 -1.3087 -0.1331 -1.1599
 1505TIP3   OH2 4520   1.471   1.631   3.051  0.2822 -1.1856  0.8100
 1505TIP3    H1 4521   1.450   1.690   3.123 -0.8120 -0.6911  0.1238
 1505TIP3    H2 4522   1.553   1.664   3.016 -1.9292  2.3142 -1.8118
 1506TIP3   OH2 4523   4.364   2.347   4.136 -0.2728  0.0425 -0.6560
 1506TIP3    H1 4524   4.444   2.353   4.188 -0.6643  1.1878 -0.1682
 1506TIP3    H2 4525   4.377   2.269   4.082  1.0583  0.0587 -0.3977
 1507TIP3   OH2 4526   4.730   2.807   1.509 -0.4295  0.6097 -0.1255
 1507TIP3    H1 4527   4.677   2.731   1.534 -2.2578  1.6796 -0.5760
 1507TIP3    H2 4528   4.804   2.770   1.461 -0.5924 -0.9672  0.7850
 1508TIP3   OH2 4529   0.047   3.004   2.950 -0.1067  0.3897 -0.5602
 1508TIP3    H1 4530  -0.021   2.987   2.885  0.5837 -2.2108 -0.7119
 1508TIP3    H2 4531   0.084   3.088   2.924 -2.1791  1.1312 -1.3902
 1509TIP3   OH2 4532   6.219   4.217   3.298  0.3264  0.4140  0.1744
 1509TIP3    H1 4533   6.139   4.269   3.303 -0.4695 -0.3170 -2.8808
 1509TIP3    H2 4534   6.289   4.282   3.285 -0.3908  0.9153 -1.5364
 1510TIP3   OH2 4535   2.788   5.668   0.669  1.2637 -0.0262 -0.0247
 1510TIP3    H1 4536   2.767   5.713   0.587 -2.4073 -1.1586  0.0864
 1510TIP3    H2 4537   2.826   5.737   0.724  1.0314  1.5118 -1.6707
 1511TIP3   OH2 4538   1.601   4.220   2.313 -0.4326  0.3777 -0.1741
 1511TIP3    H1 4539   1.597   4.238   2.407 -0.6335  1.0749 -0.3137
 1511TIP3    H2 4540   1.694   4.210   2.294 -0.3066  1.3037 -0.0912
 1512TIP3   OH2 4541   0.861   5.092   1.721 -0.4984  0.1591  0.2051
 1512TIP3    H1 4542   0.925   5.059   1.784  1.8001  1.1847 -1.4434
 1512TIP3    H2 4543   0.813   5.159   1.769 -1.5678 -1.7322  1.9727
 1513TIP3   OH2 4544   1.424   5.759   2.861  0.2859 -0.0891 -0.0779
 1513TIP3    H1 4545   1.334   5.788   2.873  0.7435  0.7327  1.7550
 1513TIP3    H2 4546   1.477   5.837   2.882  1.4464 -1.1359  1.0414
 1514TIP3   OH2 4547   2.620   0.193   4.094  0.5260 -0.2462  0.0108
 1514TIP3    H1 4548   2.600   0.210   4.186 -2.1845 -1.3498 -0.2885
 1514TIP3    H2 4549   2.569   0.259   4.046  1.9841  0.3827 -0.7644
 1515TIP3   OH2 4550   6.025   1.277   5.081 -0.1037 -0.0124 -0.2819
 1515TIP3    H1 4551   6.009   1.207   5.019 -0.5501 -0.4284  0.2852
 1515TIP3    H2 4552   6.119   1.277   5.095 -0.3285 -2.9461  2.4435
 1516TIP3   OH2 4553   4.454   1.590   4.221  0.0028 -0.0295  0.0345
 1516TIP3    H1 4554   4.440   1.590   4.127 -0.2432 -0.3516  0.0719
 1516TIP3    H2 4555   4.473   1.499   4.243 -1.8554 -0.3296  0.5679
 1517TIP3   OH2 4556   2.685   3.401   3.559  0.5663  0.7157 -0.0531
 1517TIP3    H1 4557   2.653   3.392   3.649  2.4766  1.8513  0.8179
 1517TIP3    H2 4558   2.656   3.321   3.515 -0.4506  0.1434  1.5498
 1518TIP3   OH2 4559   0.793   0.105   2.899 -0.0834 -0.3244 -0.6688
 1518TIP3    H1 4560   0.819   0.068   2.983 -2.7582 -1.1556 -0.1203
 1518TIP3    H2 4561   0.815   0.198   2.906  0.7857 -0.5934  0.4686
 1519TIP3   OH2 4562   4.936   3.823   0.816 -1.0405  0.2117  0.3867
 1519TIP3    H1 4563   4.875   3.891   0.844 -2.1579  0.6706 -2.7571
 1519TIP3    H2 4564   4.972   3.856   0.734  3.9579  0.2113  2.1953
 1520TIP3   OH2 4565   3.608   2.352   0.681 -0.4804 -0.3551  0.2413
 1520TIP3    H1 4566   3.611   2.306   0.765 -1.5018  1.3734  1.2705
 1520TIP3    H2 4567   3.691   2.401   0.678 -0.8190  0.2435  0.6363
 1521TIP3   OH2 4568   4.423   2.066   0.725  0.1229  0.2090 -0.1328
 1521TIP3    H1 4569   4.408   1.987   0.776  0.1610 -0.4567 -1.1367
 1521TIP3    H2 4570   4.362   2.130   0.762  1.1826  0.2190  1.7304
 1522TIP3   OH2 4571   3.813   0.815   3.665 -0.4661  0.5212 -0.0383
 1522TIP3    H1 4572   3.818   0.721   3.645  0.6907  0.4847  0.3571
 1522TIP3    H2 4573   3.835   0.821   3.758  0.4092  1.2641 -0.2843
 1523TIP3   OH2 4574   0.901   4.324   2.268 -0.4438  0.1217  0.2399
 1523TIP3    H1 4575   0.949   4.367   2.339 -0.4827  0.3460  0.1319
 1523TIP3    H2 4576   0.953   4.342   2.190  0.1595 -1.0276  0.3684
 1524TIP3   OH2 4577   4.632   0.125   2.150 -0.1647 -0.0427 -0.0127
 1524TIP3    H1 4578   4.660   0.034   2.141  2.8818  0.7684  0.1020
 1524TIP3    H2 4579   4.671   0.169   2.075  0.2864  1.5195  1.0807
 1525TIP3   OH2 4580   5.092   0.329   4.642 -0.5986 -0.0053  0.7117
 1525TIP3    H1 4581   5.081   0.243   4.682 -0.7988 -0.0504  0.5635
 1525TIP3    H2 4582   5.112   0.388   4.715  0.8306 -0.4044  0.6634
 1526TIP3   OH2 4583   6.002   0.918   1.144 -0.8161  0.1598 -0.0372
 1526TIP3    H1 4584   5.909   0.899   1.147 -0.9880  0.6752 -1.4078
 1526TIP3    H2 4585   6.018   0.948   1.055  0.2738  1.9750  0.6966
 1527TIP3   OH2 4586   5.632   3.947   3.282 -0.1465  0.4157 -0.0326
 1527TIP3    H1 4587   5.604   4.002   3.209 -0.2483  1.4353  0.7586
 1527TIP3    H2 4588   5.637   3.859   3.244 -3.5442  0.2816 -0.4696
 1528TIP3   OH2 4589   1.879   2.044   4.981 -0.2830 -0.6871 -0.6926
 1528TIP3    H1 4590   1.963   2.086   4.964 -0.4767 -0.6101 -1.5030
 1528TIP3    H2 4591   1.848   2.016   4.895 -1.8792  0.7836 -0.6621
 1529TIP3   OH2 4592   5.233   2.394   0.578  0.7509  0.3550  0.0768
 1529TIP3    H1 4593   5.297   2.461   0.558  1.9360 -0.4639  1.0096
 1529TIP3    H2 4594   5.274   2.312   0.551  0.0619 -0.1716  0.5784
 1530TIP3   OH2 4595   5.196   2.672   4.415  0.2865 -0.1075 -0.1089
 1530TIP3    H1 4596   5.188   2.764   4.389  0.4517  0.4403  1.6519
 1530TIP3    H2 4597   5.112   2.653   4.458  0.6904 -0.4305  0.5426
 1531TIP3   OH2 4598   1.660   5.092   4.885  0.4807 -0.4716  0.0612
 1531TIP3    H1 4599   1.728   5.150   4.852 -0.0666  0.1695  0.0418
 1531TIP3    H2 4600   1.676   5.087   4.980  0.6526 -0.4609  0.0322
 1532TIP3   OH2 4601   2.690   3.044   1.900  0.1743  0.7558  0.2425
 1532TIP3    H1 4602   2.648   2.959   1.910  1.6680 -0.0249  0.1439
 1532TIP3    H2 4603   2.701   3.076   1.990  0.3382  0.4789  0.3200
 1533TIP3   OH2 4604   0.690   1.769   0.239 -0.2533 -0.2590  0.1595
 1533TIP3    H1 4605   0.680   1.864   0.239  0.1354 -0.2160  0.1717
 1533TIP3    H2 4606   0.768   1.754   0.293 -0.1571 -0.5659 -0.0647
 1534TIP3   OH2 4607   5.410   1.837   4.276  0.1955  0.0421 -0.1422
 1534TIP3    H1 4608   5.382   1.860   4.365  2.0729  2.0834  0.0134
 1534TIP3    H2 4609   5.468   1.762   4.288 -0.8558 -0.7487  0.1346
 1535TIP3   OH2 4610   1.576   4.075   1.892  0.2706  0.3717 -0.4470
 1535TIP3    H1 4611   1.530   3.992   1.878  0.1485  0.6468 -1.8439
 1535TIP3    H2 4612   1.668   4.050   1.903  0.0169 -0.0614  0.8503
 1536TIP3   OH2 4613   4.836   3.549   0.896 -0.3697 -0.2292 -0.1460
 1536TIP3    H1 4614   4.845   3.462   0.933  0.5127  0.2875  0.9163
 1536TIP3    H2 4615   4.752   3.580   0.930 -0.0174 -0.1325  0.6679
 1537TIP3   OH2 4616   4.899   1.506   0.898  0.0642  0.8401  0.6232
 1537TIP3    H1 4617   4.946   1.561   0.961  1.1604 -1.2008  1.6895
 1537TIP3    H2 4618   4.827   1.468   0.949 -1.2079  1.8760 -0.3216
 1538TIP3   OH2 4619   5.527   5.555   3.835 -0.3128  0.2457  0.5729
 1538TIP3    H1 4620   5.433   5.549   3.852 -0.9419  1.1249 -2.0736
 1538TIP3    H2 4621   5.537   5.638   3.788  1.3194 -1.1209 -1.6948
 1539TIP3   OH2 4622   3.509   3.105   4.445 -0.1231 -0.3094 -0.0141
 1539TIP3    H1 4623   3.476   3.016   4.459  1.8925 -0.7669  2.3683
 1539TIP3    H2 4624   3.579   3.094   4.381 -1.5685  0.0314 -1.7409
 1540TIP3   OH2 4625   0.525   1.912   4.113 -0.0767 -0.1226  0.4598
 1540TIP3    H1 4626   0.617   1.931   4.096 -0.3316 -0.6147 -1.7501
 1540TIP3    H2 4627   0.525   1.824   4.151  0.3331 -0.2439  0.1800
 1541TIP3   OH2 4628   5.855   4.233   2.506  0.3735  0.1774  0.4898
 1541TIP3    H1 4629   5.944   4.261   2.525  0.3083 -0.0028  1.0875
 1541TIP3    H2 4630   5.820   4.205   2.591 -0.6963  1.4789  0.5175
 1542TIP3   OH2 4631   4.354   5.195   1.462  0.4320  0.4546 -0.0614
 1542TIP3    H1 4632   4.413   5.120   1.467  0.7299  0.7613  2.1723
 1542TIP3    H2 4633   4.372   5.245   1.542 -1.6282  1.4913 -0.1725
 1543TIP3   OH2 4634   4.408   0.502   3.259  0.3073  0.0024  0.1153
 1543TIP3    H1 4635   4.350   0.569   3.223 -1.6828 -2.6241 -1.9699
 1543TIP3    H2 4636   4.385   0.498   3.351 -0.5888  1.1204 -0.0336
 1544TIP3   OH2 4637   6.262   2.853   2.010 -0.3332 -0.0510 -0.0554
 1544TIP3    H1 4638   6.233   2.901   1.933 -1.1969 -0.2922  0.1039
 1544TIP3    H2 4639   6.269   2.919   2.079  1.6115  0.3780 -0.6028
 1545TIP3   OH2 4640   4.474   1.977   4.181 -0.3259  0.2369  0.3005
 1545TIP3    H1 4641   4.405   1.949   4.121  0.6993  0.2750 -0.9549
 1545TIP3    H2 4642   4.535   2.026   4.126  0.7097  0.1966  1.3650
 1546TIP3   OH2 4643   4.713   3.386   3.775  0.0941  0.1304 -0.1683
 1546TIP3    H1 4644   4.804   3.398   3.751  0.4075 -0.2921  0.7645
 1546TIP3    H2 4645   4.682   3.474   3.798  0.4179  0.1966  0.0223
 1547TIP3   OH2 4646   5.977   3.120   4.924  0.0301 -0.4759  0.3513
 1547TIP3    H1 4647   6.011   3.169   4.850 -0.2400 -1.8639 -0.7323
 1547TIP3    H2 4648   5.892   3.159   4.942 -0.5718 -1.0683 -1.0671
 1548TIP3   OH2 4649   3.714   1.195   2.481 -0.0489 -0.7788  0.6969
 1548TIP3    H1 4650   3.716   1.120   2.540  0.0642 -1.1347  0.2499
 1548TIP3    H2 4651   3.745   1.160   2.397  0.9187 -0.0127  0.7264
 1549TIP3   OH2 4652   3.285   2.361   4.054 -0.3510 -0.1061  0.8611
 1549TIP3    H1 4653   3.380   2.368   4.048 -0.2796 -0.3299  1.5581
 1549TIP3    H2 4654   3.255   2.357   3.963  0.3962 -1.1326  0.6415
 1550TIP3   OH2 4655   2.295   2.646   2.545 -0.0319 -0.3028  0.0162
 1550TIP3    H1 4656   2.335   2.672   2.629 -0.9767 -0.1582  0.4342
 1550TIP3    H2 4657   2.319   2.716   2.485 -1.2522  0.8100  0.7515
 1551TIP3   OH2 4658   2.196   4.883   5.151  0.1642  0.1400  0.2201
 1551TIP3    H1 4659   2.211   4.809   5.092 -0.0954 -0.5206  0.9634
 1551TIP3    H2 4660   2.263   4.875   5.218  0.2307  0.6743  0.2245
 1552TIP3   OH2 4661   1.615   3.816   3.126 -0.1844  0.0758 -0.3333
 1552TIP3    H1 4662   1.675   3.766   3.071  1.2272  0.4403  0.7793
 1552TIP3    H2 4663   1.544   3.843   3.068 -0.0892 -1.7158 -1.3454
 1553TIP3   OH2 4664   2.564   5.221   2.771  0.7040 -0.0021  0.4011
 1553TIP3    H1 4665   2.590   5.271   2.848  1.2234  2.5554 -1.3027
 1553TIP3    H2 4666   2.646   5.201   2.726  0.3272  0.0166 -0.3147
 1554TIP3   OH2 4667   0.433   4.008   2.654 -0.6404  0.2287 -0.3341
 1554TIP3    H1 4668   0.375   4.032   2.582 -0.6279 -0.1408 -0.4692
 1554TIP3    H2 4669   0.406   4.065   2.726  0.1987  1.4935 -0.9887
 1555TIP3   OH2 4670   4.732   0.655   2.829 -0.1859  0.0874  0.5822
 1555TIP3    H1 4671   4.639   0.677   2.831 -0.4163 -0.8263  0.3647
 1555TIP3    H2 4672   4.765   0.683   2.914 -0.6181  0.5729  0.5971
 1556TIP3   OH2 4673   3.212   0.577   3.515 -0.6148 -0.4041 -0.5149
 1556TIP3    H1 4674   3.121   0.586   3.488 -1.5163 -2.3809  1.5633
 1556TIP3    H2 4675   3.233   0.485   3.500  0.7291 -0.2003 -0.0552
 1557TIP3   OH2 4676   1.468   1.934   1.170  0.2416 -0.0298  0.7240
 1557TIP3    H1 4677   1.423   1.889   1.099  3.1698  0.1363 -1.4266
 1557TIP3    H2 4678   1.519   1.866   1.214 -0.3491  0.1385  1.7096
 1558TIP3   OH2 4679   0.064   3.001   0.309  0.1777 -0.5071  0.8491
 1558TIP3    H1 4680   0.132   2.949   0.267 -0.5611 -0.7094 -0.1518
 1558TIP3    H2 4681   0.052   3.076   0.250 -0.1302 -0.2174  1.2701
 1559TIP3   OH2 4682   1.389   1.910   4.346 -0.0366 -0.1227 -0.5236
 1559TIP3    H1 4683   1.350   1.914   4.433 -1.3518 -0.4330 -1.0858
 1559TIP3    H2 4684   1.478   1.944   4.358 -0.9902  2.2008  0.4748
 1560TIP3   OH2 4685   5.302   0.776   3.190  0.1248  0.0993 -0.4093
 1560TIP3    H1 4686   5.314   0.745   3.100  0.7429 -0.8020 -0.0282
 1560TIP3    H2 4687   5.209   0.800   3.195 -0.1686 -0.8523 -0.9844
 1561TIP3   OH2 4688   6.216   1.659   0.405 -0.0369 -0.2993 -0.1020
 1561TIP3    H1 4689   6.235   1.585   0.348 -0.3079 -0.0883 -0.4672
 1561TIP3    H2 4690   6.138   1.633   0.453  1.4176 -1.4191  1.8379
 1562TIP3   OH2 4691   5.459   2.301   3.255  0.2514  0.2336 -1.2351
 1562TIP3    H1 4692   5.364   2.296   3.241  0.0706 -1.4274  0.1597
 1562TIP3    H2 4693   5.470   2.278   3.347  2.0907 -0.7604 -1.6596
 1563TIP3   OH2 4694   0.819   3.934   3.171  0.1515  0.1057  0.4302
 1563TIP3    H1 4695   0.897   3.898   3.130  0.9874  1.5202  0.7329
 1563TIP3    H2 4696   0.847   4.017   3.210 -1.5622  0.7967  0.2985
 1564TIP3   OH2 4697   1.512   0.898   5.177  0.1605  0.0872  0.2163
 1564TIP3    H1 4698   1.430   0.947   5.168  0.1238  0.1404  0.7841
 1564TIP3    H2 4699   1.575   0.962   5.209 -0.0638 -0.3630  1.6670
 1565TIP3   OH2 4700   3.263   5.385   0.471 -0.0813  0.6528 -0.2825
 1565TIP3    H1 4701   3.261   5.326   0.546  1.3460 -0.4642 -1.0570
 1565TIP3    H2 4702   3.240   5.470   0.507  0.8011  0.2035  1.4922
 1566TIP3   OH2 4703   6.293   0.593   3.793  0.6541 -0.4571  0.2219
 1566TIP3    H1 4704   6.301   0.681   3.758 -1.0928 -0.9560 -1.5843
 1566TIP3    H2 4705   6.304   0.535   3.717 -2.3255 -1.6222  0.5506
 1567TIP3   OH2 4706   4.745   0.025   3.711  0.6305 -0.2543 -0.5283
 1567TIP3    H1 4707   4.746   0.069   3.626  0.2363  2.0540  0.5648
 1567TIP3    H2 4708   4.813   0.069   3.762 -2.0275  1.6764  1.7448
 1568TIP3   OH2 4709   3.718   1.416   2.968  0.1261  0.4360 -0.2971
 1568TIP3    H1 4710   3.798   1.463   2.991  0.0371  0.9864 -1.0727
 1568TIP3    H2 4711   3.648   1.467   3.007  0.1996 -0.7438  1.4969
 1569TIP3   OH2 4712   3.121   3.529   2.073 -0.2576  0.0174  0.3718
 1569TIP3    H1 4713   3.100   3.582   2.150 -1.8554 -0.2829  0.1648
 1569TIP3    H2 4714   3.100   3.586   1.999  0.1909 -0.1036  0.1478
 1570TIP3   OH2 4715   4.579   1.809   3.916  0.2438 -0.2092 -0.4393
 1570TIP3    H1 4716   4.644   1.811   3.987  0.0730 -1.0161 -0.2539
 1570TIP3    H2 4717   4.498   1.840   3.957  0.6873  1.6855 -0.8898
 1571TIP3   OH2 4718   1.313   5.920   3.202  0.3813 -0.1448  0.1958
 1571TIP3    H1 4719   1.259   5.844   3.223  0.8096 -0.5642 -0.1906
 1571TIP3    H2 4720   1.358   5.896   3.121  0.8927  0.3329  0.3301
 1572TIP3   OH2 4721   5.623   1.667   2.657 -0.1937  0.2483  0.0637
 1572TIP3    H1 4722   5.712   1.639   2.633 -0.9315 -2.8142  0.4985
 1572TIP3    H2 4723   5.566   1.610   2.606 -1.8728  0.0472  2.0658
 1573TIP3   OH2 4724   3.604   5.135   0.482 -0.1971  0.7942 -0.2973
 1573TIP3    H1 4725   3.562   5.220   0.495 -0.6220  0.3027  2.0469
 1573TIP3    H2 4726   3.642   5.114   0.567 -1.3583 -1.9928 -0.3354
 1574TIP3   OH2 4727   6.116   5.098   3.346 -0.5475  0.5660 -0.3036
 1574TIP3    H1 4728   6.193   5.088   3.290 -1.5009 -3.1560 -1.1867
 1574TIP3    H2 4729   6.151   5.129   3.430  1.7731  0.0015 -1.0020
 1575TIP3   OH2 4730   3.192   2.543   2.483 -0.0102 -0.5585  0.1175
 1575TIP3    H1 4731   3.211   2.532   2.390  0.6194  0.3017  0.1295
 1575TIP3    H2 4732   3.147   2.463   2.509  0.5031 -1.1325 -0.7462
 1576TIP3   OH2 4733   5.211   0.397   1.821  0.4625 -0.1945 -0.4301
 1576TIP3    H1 4734   5.289   0.433   1.862 -0.5885  2.8895 -0.8042
 1576TIP3    H2 4735   5.241   0.365   1.736  1.6560 -1.2784  0.3616
 1577TIP3   OH2 4736   1.206   2.705   4.194  0.2238 -0.0005  0.1247
 1577TIP3    H1 4737   1.140   2.639   4.213 -2.4287  1.8936 -1.8605
 1577TIP3    H2 4738   1.289   2.658   4.204 -1.4330 -3.2598  0.0466
 1578TIP3   OH2 4739   1.961   0.913   2.253  0.6260  0.2822 -0.3348
 1578TIP3    H1 4740   2.046   0.883   2.285  0.9524  1.0069 -0.5022
 1578TIP3    H2 4741   1.943   0.993   2.303 -0.2530 -0.2027  0.1420
 1579TIP3   OH2 4742   1.731   3.497   1.472  0.6314 -0.1870  1.0454
 1579TIP3    H1 4743   1.791   3.512   1.545 -1.0339  0.5141  2.3579
 1579TIP3    H2 4744   1.685   3.416   1.496 -0.2015  0.2620  1.0048
 1580TIP3   OH2 4745   1.434   2.540   2.052  0.1797  0.3370 -0.0435
 1580TIP3    H1 4746   1.431   2.609   1.985 -2.0832 -0.8844 -1.3140
 1580TIP3    H2 4747   1.356   2.488   2.036  0.2134 -0.7448  2.8478
 1581TIP3   OH2 4748   2.715   1.042   2.629 -0.3382  0.4641  0.0018
 1581TIP3    H1 4749   2.787   1.007   2.680  0.5813  1.5208 -0.5347
 1581TIP3    H2 4750   2.726   1.006   2.541  0.5796  1.9533 -0.5394
 1582TIP3   OH2 4751   1.963   3.206   4.340  0.7090  0.4986 -0.2310
 1582TIP3    H1 4752   1.974   3.279   4.279 -1.0740 -0.4478 -1.7953
 1582TIP3    H2 4753   1.870   3.206   4.362  0.9129 -0.5389  0.7478
 1583TIP3   OH2 4754   1.013   5.487   2.370 -0.1117 -0.2955  0.3253
 1583TIP3    H1 4755   0.943   5.469   2.432  2.0682 -1.9859  2.4913
 1583TIP3    H2 4756   1.073   5.413   2.379  1.7194  0.8135 -1.7706
 1584TIP3   OH2 4757   1.835   3.979   1.215 -0.4667 -0.1981  0.0941
 1584TIP3    H1 4758   1.899   4.010   1.280  0.3221  0.0266 -0.7790
 1584TIP3    H2 4759   1.787   4.058   1.189  0.4668  0.0406 -0.9504
 1585TIP3   OH2 4760   0.140   3.747   1.337 -0.1752  0.2116  0.4790
 1585TIP3    H1 4761   0.156   3.741   1.431  0.9012  0.2505  0.3119
 1585TIP3    H2 4762   0.169   3.662   1.302 -1.7963 -0.3154  0.3284
 1586TIP3   OH2 4763   3.073   3.574   4.212  0.2631  0.2292  0.2573
 1586TIP3    H1 4764   3.142   3.637   4.232 -0.8991  1.5877  0.1242
 1586TIP3    H2 4765   3.081   3.507   4.280  2.0068  0.0786 -0.0475
 1587TIP3   OH2 4766   2.879   2.553   2.431 -0.0943  0.5698 -0.3181
 1587TIP3    H1 4767   2.922   2.568   2.516 -2.0785 -0.3474  0.9119
 1587TIP3    H2 4768   2.840   2.466   2.439 -1.2228  0.9072 -1.7808
 1588TIP3   OH2 4769   1.395   2.595   0.427  0.4104 -0.7750 -0.0309
 1588TIP3    H1 4770   1.422   2.574   0.337  2.3305 -1.1342  0.5728
 1588TIP3    H2 4771   1.351   2.680   0.420  0.4646 -0.8361 -1.3249
 1589TIP3   OH2 4772   5.415   5.125   0.593 -0.2102 -0.0040  0.0919
 1589TIP3    H1 4773   5.325   5.115   0.621  0.2320  0.0112  1.6122
 1589TIP3    H2 4774   5.467   5.088   0.665  1.0288  1.7046  0.1485
 1590TIP3   OH2 4775   1.915   0.658   2.206 -0.0081  0.0320  0.0869
 1590TIP3    H1 4776   1.820   0.656   2.222 -0.2016 -0.6101 -1.0657
 1590TIP3    H2 4777   1.944   0.739   2.247 -1.2352  0.7792 -0.4728
 1591TIP3   OH2 4778   2.921   3.812   4.498  0.1256  0.1977 -0.2032
 1591TIP3    H1 4779   2.861   3.886   4.494  0.0578  0.2940  1.5579
 1591TIP3    H2 4780   3.008   3.852   4.492  0.1458  0.6368  1.9980
 1592TIP3   OH2 4781   1.917   5.255   5.051 -0.6707 -0.1784 -0.1228
 1592TIP3    H1 4782   1.968   5.181   5.083  0.8808  1.0020  0.2491
 1592TIP3    H2 4783   1.827   5.236   5.079 -0.0979 -1.2839  1.0879
 1593TIP3   OH2 4784   5.217   3.263   4.480  0.0848  0.2709 -0.4968
 1593TIP3    H1 4785   5.251   3.206   4.548  1.3281 -1.6019 -2.5603
 1593TIP3    H2 4786   5.279   3.336   4.476  0.8191 -0.3419 -0.5446
 1594TIP3   OH2 4787   4.475   1.350   3.105  0.4679 -0.5623  0.3044
 1594TIP3    H1 4788   4.502   1.374   3.016  0.9555 -0.5615  0.4454
 1594TIP3    H2 4789   4.381   1.363   3.107  0.6595  0.9894  0.2670
 1595TIP3   OH2 4790   4.881   0.375   0.306 -0.4208  0.5047  0.3888
 1595TIP3    H1 4791   4.801   0.427   0.297 -0.7559 -0.1926 -1.0067
 1595TIP3    H2 4792   4.851   0.284   0.305  0.3378  0.2450  0.5009
 1596TIP3   OH2 4793   2.067   5.008   4.777  0.1111  0.7190  0.1164
 1596TIP3    H1 4794   2.116   4.926   4.771  1.5334  1.5876 -0.8314
 1596TIP3    H2 4795   1.982   4.988   4.738  1.1532  0.1950 -2.0694
 1597TIP3   OH2 4796   0.718   5.653   0.316  0.5179 -0.7317  0.2617
 1597TIP3    H1 4797   0.647   5.599   0.348 -0.0222 -0.2848 -0.1653
 1597TIP3    H2 4798   0.686   5.743   0.324  1.3629 -0.4699  0.8796
 1598TIP3   OH2 4799   2.694   4.539   2.015  0.2489 -0.1077  0.7628
 1598TIP3    H1 4800   2.685   4.558   1.922  1.0426  2.5859  1.1360
 1598TIP3    H2 4801   2.782   4.569   2.037 -0.3245  0.3738  2.5749
 1599TIP3   OH2 4802   3.581   1.996   3.318  0.0220  0.0763 -0.2432
 1599TIP3    H1 4803   3.577   1.918   3.262 -2.7552 -0.3425  0.4142
 1599TIP3    H2 4804   3.520   1.977   3.389  1.1864  1.8570  1.3122
 1600TIP3   OH2 4805   1.618   0.123   1.878  0.1401 -0.8104  0.2116
 1600TIP3    H1 4806   1.696   0.068   1.871  1.7697  1.6186 -3.6434
 1600TIP3    H2 4807   1.643   0.191   1.940  0.6787 -0.6199 -0.2122
 1601TIP3   OH2 4808   3.608   1.659   1.085 -0.1561 -0.5132 -0.7633
 1601TIP3    H1 4809   3.525   1.685   1.124 -0.0133  0.2544 -0.9543
 1601TIP3    H2 4810   3.673   1.674   1.154  0.2941  2.1324 -1.6435
 1602TIP3   OH2 4811   2.442   5.163   3.452 -0.5268  0.3815 -0.4589
 1602TIP3    H1 4812   2.422   5.120   3.535  1.1653 -1.2648 -0.8355
 1602TIP3    H2 4813   2.358   5.167   3.406 -1.2429  0.1249  0.7667
 1603TIP3   OH2 4814   2.066   3.679   3.595 -0.6338 -0.1036 -0.3932
 1603TIP3    H1 4815   2.051   3.763   3.639  0.6211  1.0697 -2.0651
 1603TIP3    H2 4816   2.128   3.633   3.652  0.1731  0.9517 -0.3768
 1604TIP3   OH2 4817   5.058   5.987   2.369  0.2186 -0.1615  0.2840
 1604TIP3    H1 4818   5.013   6.011   2.450  0.4838 -1.4310  0.8264
 1604TIP3    H2 4819   5.028   5.899   2.350  0.1562  0.1155 -1.0233
 1605TIP3   OH2 4820   3.418   1.857   4.178  0.4049  0.1522  0.5352
 1605TIP3    H1 4821   3.409   1.946   4.146 -2.0644  1.3696  3.9748
 1605TIP3    H2 4822   3.341   1.811   4.145  1.0636 -0.3981 -0.2675
 1606TIP3   OH2 4823   1.446   5.871   4.309 -0.9813 -0.3038  0.7489
 1606TIP3    H1 4824   1.381   5.876   4.239  0.1027  0.7227 -0.2375
 1606TIP3    H2 4825   1.491   5.956   4.306  1.2614 -1.4199  0.5343
 1607TIP3   OH2 4826   5.563   5.688   0.439  0.4133 -0.4408  0.2333
 1607TIP3    H1 4827   5.623   5.613   0.443  1.7101  0.3702 -1.9979
 1607TIP3    H2 4828   5.507   5.669   0.363  0.0668  0.3572  0.2833
 1608TIP3   OH2 4829   4.032   1.126   3.685  0.1096  0.3710 -0.2991
 1608TIP3    H1 4830   3.987   1.151   3.765  0.5588  1.3008 -0.3176
 1608TIP3    H2 4831   4.071   1.041   3.704  0.6716  0.8251  0.6602
 1609TIP3   OH2 4832   3.876   5.626   0.448  0.5763 -0.0199 -0.1213
 1609TIP3    H1 4833   3.831   5.581   0.377  0.0927  0.5968 -0.2110
 1609TIP3    H2 4834   3.969   5.608   0.433  0.5430  0.7557 -1.3719
 1610TIP3   OH2 4835   4.056   4.379   3.316  0.0101  0.0405 -0.9503
 1610TIP3    H1 4836   3.978   4.376   3.372  0.3773 -0.5326 -0.4631
 1610TIP3    H2 4837   4.110   4.307   3.346  1.3460  1.2222 -0.3963
 1611TIP3   OH2 4838   5.496   1.285   3.803  0.4465  0.1754 -0.2357
 1611TIP3    H1 4839   5.488   1.213   3.740  0.0342  0.4960 -0.5493
 1611TIP3    H2 4840   5.574   1.263   3.854  0.3906 -0.4346 -0.4077
 1612TIP3   OH2 4841   3.713   3.850   1.321 -0.0769 -0.3803  0.0359
 1612TIP3    H1 4842   3.796   3.832   1.276 -0.3026 -1.0119 -0.1318
 1612TIP3    H2 4843   3.658   3.775   1.301 -0.7394  0.0945  0.0398
 1613TIP3   OH2 4844   5.558   2.598   3.104 -0.0257 -0.1947 -0.3486
 1613TIP3    H1 4845   5.558   2.688   3.071  1.2924  0.6605  1.8072
 1613TIP3    H2 4846   5.484   2.595   3.164 -0.1292 -0.5753 -0.4971
 1614TIP3   OH2 4847   2.545   3.652   3.885  0.3829  0.1795 -0.2338
 1614TIP3    H1 4848   2.555   3.679   3.976 -0.1113 -0.6129  0.0564
 1614TIP3    H2 4849   2.453   3.670   3.865 -0.5301 -2.9947  0.5636
 1615TIP3   OH2 4850   4.828   0.051   3.442  0.4084  0.3704  0.3531
 1615TIP3    H1 4851   4.754  -0.002   3.413  2.0637 -1.7118 -0.3646
 1615TIP3    H2 4852   4.863   0.089   3.362  1.0294  0.0571  0.4703
 1616TIP3   OH2 4853   1.260   2.631   3.901  0.0654  0.1608  0.1143
 1616TIP3    H1 4854   1.261   2.619   3.996 -0.3536  0.0569  0.1051
 1616TIP3    H2 4855   1.340   2.680   3.883 -0.3120  0.9775  0.6202
 1617TIP3   OH2 4856   3.178   2.986   4.295 -0.3820  0.0083 -0.0289
 1617TIP3    H1 4857   3.192   2.912   4.354 -0.5603 -0.1880 -0.2318
 1617TIP3    H2 4858   3.244   3.050   4.322 -0.8742  0.1775  0.7949
 1618TIP3   OH2 4859   5.875   1.366   0.610  0.4577 -0.8929 -0.1361
 1618TIP3    H1 4860   5.902   1.295   0.668  0.1943 -1.3064 -0.5206
 1618TIP3    H2 4861   5.801   1.331   0.560 -1.2488  0.4082  1.3299
 1619TIP3   OH2 4862   5.405   3.959   4.508  0.3322 -0.0609  0.5379
 1619TIP3    H1 4863   5.436   4.015   4.437 -3.7836  1.2009 -0.5483
 1619TIP3    H2 4864   5.434   4.001   4.588  0.1821  1.7783 -0.3379
 1620TIP3   OH2 4865   3.854   2.057   3.390 -0.5433  0.0608 -0.7695
 1620TIP3    H1 4866   3.891   1.989   3.446  0.4519  0.2703 -1.1453
 1620TIP3    H2 4867   3.760   2.039   3.388 -0.4486 -0.5708  0.1060
 1621TIP3   OH2 4868   5.005   1.003   1.094 -0.0816 -0.3515  0.3062
 1621TIP3    H1 4869   5.026   1.067   1.162 -0.1877  1.0547 -0.9072
 1621TIP3    H2 4870   5.088   0.985   1.051  0.0370 -1.4645  0.9811
 1622TIP3   OH2 4871   6.061   4.867   1.391 -0.6755  0.1564  0.2913
 1622TIP3    H1 4872   6.023   4.886   1.477  0.8306  0.5769  0.8968
 1622TIP3    H2 4873   6.115   4.789   1.406 -0.0232  0.5146 -0.1631
 1623TIP3   OH2 4874   4.676   0.631   2.313  0.5508  0.4667 -0.3970
 1623TIP3    H1 4875   4.736   0.636   2.238 -0.0268  0.3734 -0.8691
 1623TIP3    H2 4876   4.592   0.606   2.275  0.2387  0.4711  0.2804
 1624TIP3   OH2 4877   3.883   3.714   0.617 -0.1878 -0.9001  0.3673
 1624TIP3    H1 4878   3.851   3.727   0.528  3.2235  3.0665 -0.6210
 1624TIP3    H2 4879   3.827   3.770   0.671  1.3228  1.6563 -0.4863
 1625TIP3   OH2 4880   2.655   3.289   3.861 -0.1340 -0.2995  0.3498
 1625TIP3    H1 4881   2.684   3.327   3.944 -0.2099 -1.2887  0.8358
 1625TIP3    H2 4882   2.624   3.201   3.884  2.1776 -1.5831 -1.0620
 1626TIP3   OH2 4883   6.136   5.260   3.580 -0.1521  0.0234 -0.2384
 1626TIP3    H1 4884   6.202   5.325   3.555 -0.0478  0.3007  0.7226
 1626TIP3    H2 4885   6.096   5.296   3.659  0.4324 -1.4268  0.7577
 1627TIP3   OH2 4886   2.776   5.898   2.610 -0.1888 -0.1424  0.0306
 1627TIP3    H1 4887   2.753   5.920   2.519  0.6492  0.5976 -0.0221
 1627TIP3    H2 4888   2.735   5.813   2.625  0.8177 -0.9476 -1.5092
 1628TIP3   OH2 4889   4.779   3.229   0.684  0.0136  0.1855 -0.0367
 1628TIP3    H1 4890   4.708   3.215   0.621 -0.6984 -0.0755  0.8007
 1628TIP3    H2 4891   4.858   3.233   0.630 -0.4909 -0.7246 -0.8880
 1629TIP3   OH2 4892   0.541   5.051   3.029  0.1738 -0.4433  1.0234
 1629TIP3    H1 4893   0.535   5.146   3.020  0.0027 -0.5211  0.2015
 1629TIP3    H2 4894   0.622   5.036   3.077  0.4266  0.1052  0.7733
 1630TIP3   OH2 4895   4.870   1.985   1.835 -0.1494 -0.2423  0.4387
 1630TIP3    H1 4896   4.875   1.921   1.906 -0.2993 -0.2433  0.4480
 1630TIP3    H2 4897   4.821   2.059   1.872  0.7957  0.2580  0.7143
 1631TIP3   OH2 4898   1.527   3.868   3.650  0.2702  0.6500  0.7290
 1631TIP3    H1 4899   1.508   3.859   3.743  0.7955 -0.2803  0.7636
 1631TIP3    H2 4900   1.578   3.790   3.629  0.8800  1.2703 -0.1535
 1632TIP3   OH2 4901   1.184   0.084   3.147 -0.1965 -0.2417  0.1001
 1632TIP3    H1 4902   1.197   0.097   3.053  2.0311 -2.2378  0.0277
 1632TIP3    H2 4903   1.270   0.056   3.179 -1.7516 -3.3919  2.0204
 1633TIP3   OH2 4904   0.493   4.949   1.563 -0.2241 -0.1471  0.4991
 1633TIP3    H1 4905   0.507   5.019   1.499 -0.2622 -0.6909 -0.1138
 1633TIP3    H2 4906   0.463   4.875   1.511  0.4494 -0.8260  1.0615
 1634TIP3   OH2 4907   4.911   5.825   4.519  0.0540 -0.0771  0.1225
 1634TIP3    H1 4908   4.954   5.909   4.536 -1.2536  0.6750 -0.1540
 1634TIP3    H2 4909   4.948   5.765   4.585  2.5986  0.0967 -1.0193
 1635TIP3   OH2 4910   4.406   4.115   0.583 -0.0225  0.4477  0.6172
 1635TIP3    H1 4911   4.390   4.202   0.546  0.2395 -0.3069 -1.4358
 1635TIP3    H2 4912   4.501   4.103   0.577 -0.2808 -1.5875 -3.4647
 1636TIP3   OH2 4913   1.828   3.567   1.716 -0.4042  0.2981  0.2769
 1636TIP3    H1 4914   1.906   3.567   1.770 -0.2016 -1.0935  0.0243
 1636TIP3    H2 4915   1.760   3.529   1.772 -0.1249 -1.4212 -0.4783
 1637TIP3   OH2 4916   1.779   5.989   3.311 -0.0892  0.3470  0.5392
 1637TIP3    H1 4917   1.713   6.014   3.376 -1.6542 -1.0805 -0.4164
 1637TIP3    H2 4918   1.757   5.898   3.288  1.0946  0.4362 -1.1475
 1638TIP3   OH2 4919   5.992   5.524   4.744  0.6529  0.7526  0.4460
 1638TIP3    H1 4920   5.990   5.619   4.734 -1.6572  0.6103 -1.3132
 1638TIP3    H2 4921   5.912   5.503   4.792  0.3060 -0.3815 -0.5637
 1639TIP3   OH2 4922   6.094   4.291   3.892  0.3119 -0.3945 -0.2236
 1639TIP3    H1 4923   6.184   4.312   3.865  0.1229 -0.6781 -1.1198
 1639TIP3    H2 4924   6.051   4.263   3.811 -0.4143 -0.8601  0.3120
 1640TIP3   OH2 4925   1.597   2.050   2.000  0.4834  0.2341  0.4665
 1640TIP3    H1 4926   1.620   2.052   1.908 -0.0700  0.3358  0.3251
 1640TIP3    H2 4927   1.503   2.029   2.001  0.5459 -0.0328  1.0122
 1641TIP3   OH2 4928   2.969   1.444   2.411 -0.0025 -0.1245 -0.0792
 1641TIP3    H1 4929   2.920   1.384   2.356 -1.3110  0.0104  0.9027
 1641TIP3    H2 4930   3.057   1.406   2.417 -0.2694 -0.9126 -1.0196
 1642TIP3   OH2 4931   0.744   2.070   0.985  0.2912 -0.1335  0.4700
 1642TIP3    H1 4932   0.689   2.146   0.968 -0.3141 -0.9339 -1.4703
 1642TIP3    H2 4933   0.830   2.106   1.005  0.1319  1.0770 -0.8556
 1643TIP3   OH2 4934   6.228   3.098   4.485 -1.1118  0.1555 -0.5948
 1643TIP3    H1 4935   6.171   3.026   4.512 -0.8294  0.0580 -0.2371
 1643TIP3    H2 4936   6.311   3.055   4.463 -0.7582  0.4125  0.1699
 1644TIP3   OH2 4937   0.767   5.937   3.736 -0.2400  0.5693 -0.2468
 1644TIP3    H1 4938   0.750   5.850   3.770 -0.0160  0.3825 -0.6064
 1644TIP3    H2 4939   0.862   5.942   3.729 -0.3119  0.3339 -1.5375
 1645TIP3   OH2 4940   1.241   0.622   4.472  0.3205 -0.1578  0.0853
 1645TIP3    H1 4941   1.199   0.623   4.558  1.1279 -0.3245  0.4873
 1645TIP3    H2 4942   1.168   0.624   4.410 -0.2924 -0.8751  0.7668
 1646TIP3   OH2 4943   2.547   4.573   0.712 -0.0551 -0.2063 -0.0608
 1646TIP3    H1 4944   2.524   4.649   0.658  0.5621  0.5659  0.7389
 1646TIP3    H2 4945   2.612   4.526   0.661  0.2661  0.3280 -0.1550
 1647TIP3   OH2 4946   6.107   1.248   4.512  0.0517  0.3255 -0.0229
 1647TIP3    H1 4947   6.084   1.218   4.600  0.1803 -0.1173 -0.1372
 1647TIP3    H2 4948   6.153   1.174   4.473 -0.6716  0.2423 -0.7376
 1648TIP3   OH2 4949   1.921   5.894   4.251  0.0398 -0.1138  0.4844
 1648TIP3    H1 4950   1.988   5.952   4.215  0.6471 -1.1420 -0.0955
 1648TIP3    H2 4951   1.845   5.950   4.264  0.3584  0.6464 -0.7942
 1649TIP3   OH2 4952   0.813   5.766   3.394 -0.5130 -0.3226  0.2271
 1649TIP3    H1 4953   0.812   5.721   3.310  0.1014  0.8566 -0.4414
 1649TIP3    H2 4954   0.721   5.775   3.418 -0.7282 -0.0381 -0.6726
 1650TIP3   OH2 4955   0.379   0.056   2.079 -0.3968  0.3040 -0.1395
 1650TIP3    H1 4956   0.312   0.117   2.048 -0.9117 -0.0228  0.2942
 1650TIP3    H2 4957   0.440   0.047   2.006 -1.0344  0.3176 -0.6801
 1651TIP3   OH2 4958   4.026   2.933   1.769 -0.4727 -0.3708  0.5039
 1651TIP3    H1 4959   4.116   2.938   1.736 -0.2574 -1.6438  0.8130
 1651TIP3    H2 4960   3.978   2.889   1.699 -1.0707  1.0774 -0.0254
 1652TIP3   OH2 4961   0.305   5.082   2.553  0.0107  0.4015 -0.5423
 1652TIP3    H1 4962   0.310   5.177   2.540 -1.2369  0.6030  0.3101
 1652TIP3    H2 4963   0.392   5.058   2.586  0.0303  1.4144  0.1806
 1653TIP3   OH2 4964   3.830   3.336   2.627 -0.2284 -0.0463 -0.5432
 1653TIP3    H1 4965   3.895   3.272   2.655 -1.1155 -1.2785 -1.1994
 1653TIP3    H2 4966   3.876   3.391   2.563  0.2164 -0.8117 -0.8905
 1654TIP3   OH2 4967   0.545   0.044   3.142 -0.2844  0.2793  0.0205
 1654TIP3    H1 4968   0.483  -0.003   3.198  0.5731 -0.0982  0.6952
 1654TIP3    H2 4969   0.629   0.001   3.160  0.2531  1.1066 -0.4801
 1655TIP3   OH2 4970   0.555   3.807   4.034 -0.0184  0.0137  0.7608
 1655TIP3    H1 4971   0.633   3.758   4.009  1.1447  2.4936 -0.9014
 1655TIP3    H2 4972   0.586   3.895   4.053 -2.2737  0.7855  1.2349
 1656TIP3   OH2 4973   0.762   1.559   4.501  0.5694  0.8176  0.3926
 1656TIP3    H1 4974   0.845   1.592   4.535  0.6212  1.4276 -0.3053
 1656TIP3    H2 4975   0.774   1.557   4.406 -0.0161  0.3582  0.3191
 1657TIP3   OH2 4976   5.302   3.385   4.043  0.7594  0.6496 -0.4723
 1657TIP3    H1 4977   5.345   3.322   4.100 -1.2123 -1.2269 -0.9257
 1657TIP3    H2 4978   5.209   3.368   4.054  0.2441  1.5912 -2.7140
 1658TIP3   OH2 4979   4.043   5.333   2.112  0.1422 -0.5537  0.2090
 1658TIP3    H1 4980   4.074   5.296   2.194  0.5389 -1.4268 -0.3110
 1658TIP3    H2 4981   3.981   5.268   2.078 -1.5673  0.7164  0.7643
 1659TIP3   OH2 4982   5.892   4.552   0.229  0.0645 -0.2970 -0.0237
 1659TIP3    H1 4983   5.975   4.549   0.277 -0.2013 -0.2297  0.4483
 1659TIP3    H2 4984   5.841   4.620   0.273 -0.5189 -0.8412  0.1570
 1660TIP3   OH2 4985   3.446   2.803   3.140 -0.0954  0.0113  0.3679
 1660TIP3    H1 4986   3.472   2.789   3.048 -1.5426  2.6335 -0.5305
 1660TIP3    H2 4987   3.521   2.773   3.191  0.2612 -2.7591 -1.5441
 1661TIP3   OH2 4988   0.074   2.352   2.925  0.7248 -0.2902  0.2636
 1661TIP3    H1 4989   0.038   2.331   2.839  1.0951 -1.6129  0.4124
 1661TIP3    H2 4990   0.049   2.443   2.940 -2.0781 -0.9294  0.1125
 1662TIP3   OH2 4991   5.876   0.854   4.917 -0.0132 -0.1703  0.7056
 1662TIP3    H1 4992   5.785   0.853   4.948 -0.3816 -1.3003 -0.3423
 1662TIP3    H2 4993   5.923   0.902   4.985 -1.6635  1.9465  0.4738
 1663TIP3   OH2 4994   6.146   0.762   2.914 -0.2086  0.4140 -0.0198
 1663TIP3    H1 4995   6.068   0.719   2.880  0.4161 -1.1353  0.4153
 1663TIP3    H2 4996   6.157   0.840   2.859 -0.9069 -0.4258 -1.3812
 1664TIP3   OH2 4997   0.921   3.885   2.894 -0.1183  0.0705  0.6504
 1664TIP3    H1 4998   0.961   3.832   2.826  0.3614  1.5739 -0.2983
 1664TIP3    H2 4999   0.828   3.861   2.893 -0.5080  1.3744 -1.9003
 1665TIP3   OH2 5000   4.270   0.417   4.095 -0.0210  0.2382 -0.1667
 1665TIP3    H1 5001   4.364   0.427   4.109  0.3444 -1.6389 -0.9959
 1665TIP3    H2 5002   4.263   0.350   4.027 -1.9749 -1.8722  1.9080
 1666TIP3   OH2 5003   1.459   5.228   2.143 -0.1989 -0.1386  0.7011
 1666TIP3    H1 5004   1.435   5.186   2.060 -1.4549 -0.7317  1.3250
 1666TIP3    H2 5005   1.452   5.322   2.126 -0.5316 -0.2584  0.1540
 1667TIP3   OH2 5006   4.651   1.531   1.194  0.2691  0.1567  0.3884
 1667TIP3    H1 5007   4.665   1.481   1.274  1.3963 -0.4392 -0.1572
 1667TIP3    H2 5008   4.642   1.622   1.223  0.8104 -0.0404  1.1840
 1668TIP3   OH2 5009   2.688   2.452   2.222 -0.7039  0.4084  0.0889
 1668TIP3    H1 5010   2.679   2.390   2.294  2.5303 -0.6502 -0.2543
 1668TIP3    H2 5011   2.701   2.537   2.265 -2.2285  0.3986  0.6189
 1669TIP3   OH2 5012   0.722   5.789   2.083  0.1249 -0.6093  0.0073
 1669TIP3    H1 5013   0.747   5.875   2.049  1.7963 -1.2263 -0.4137
 1669TIP3    H2 5014   0.633   5.776   2.050 -0.3418  1.1246  0.4570
 1670TIP3   OH2 5015   5.056   5.308   2.224 -0.4552 -0.0673 -0.1304
 1670TIP3    H1 5016   4.971   5.349   2.242 -0.2240  0.1510  0.5030
 1670TIP3    H2 5017   5.102   5.371   2.168  0.1073  0.8263  1.2736
 1671TIP3   OH2 5018   0.908   6.008   4.591  0.0158 -0.5287 -0.0000
 1671TIP3    H1 5019   0.903   5.912   4.595  0.6268 -0.5951 -0.6057
 1671TIP3    H2 5020   0.832   6.033   4.539  1.1131 -0.8789 -1.8571
 1672TIP3   OH2 5021   0.495   3.958   1.264  0.2480  0.4497 -0.0064
 1672TIP3    H1 5022   0.569   3.998   1.218  0.3816  1.3157  0.9388
 1672TIP3    H2 5023   0.498   3.866   1.237  1.4996  0.5268 -0.2055
 1673TIP3   OH2 5024   1.796   2.775   0.794  0.1809 -0.2275  0.0831
 1673TIP3    H1 5025   1.887   2.760   0.769  0.5380 -0.7583  1.6493
 1673TIP3    H2 5026   1.747   2.761   0.713  1.5533  1.0580 -1.0315
 1674TIP3   OH2 5027   2.866   3.135   0.428  0.4200 -0.1291 -0.3329
 1674TIP3    H1 5028   2.859   3.175   0.515 -0.8416 -0.2894 -0.3471
 1674TIP3    H2 5029   2.789   3.166   0.381  0.3647 -1.1576 -0.9366
 1675TIP3   OH2 5030   2.824   2.400   3.374 -0.0205 -0.3111  0.0945
 1675TIP3    H1 5031   2.863   2.325   3.329  1.8671 -0.6181  2.0711
 1675TIP3    H2 5032   2.898   2.457   3.393 -1.2416  1.4473 -0.1633
 1676TIP3   OH2 5033   5.379   3.714   2.628  0.1013  0.1282  0.3213
 1676TIP3    H1 5034   5.295   3.738   2.589  0.7246 -0.3607 -1.3997
 1676TIP3    H2 5035   5.402   3.631   2.587  2.0101  0.8563 -0.1890
 1677TIP3   OH2 5036   2.087   4.960   3.655 -0.3620  0.3633 -0.0567
 1677TIP3    H1 5037   2.060   5.047   3.686  1.2355  0.6364  0.6966
 1677TIP3    H2 5038   2.091   4.970   3.560  1.4073  1.6738  0.0963
 1678TIP3   OH2 5039   2.659   5.241   0.444 -0.2960 -0.4863 -0.0691
 1678TIP3    H1 5040   2.606   5.317   0.419  0.4251  0.4088  1.0123
 1678TIP3    H2 5041   2.740   5.252   0.393  0.2617  0.1092  0.9156
 1679TIP3   OH2 5042   3.276   5.475   1.948  0.5833  0.2421  0.5541
 1679TIP3    H1 5043   3.193   5.486   1.994 -0.0543  1.3140 -0.7682
 1679TIP3    H2 5044   3.308   5.388   1.975 -2.1046 -1.2253 -0.6348
 1680TIP3   OH2 5045   1.328   1.419   0.719 -0.3902 -0.5933  0.1603
 1680TIP3    H1 5046   1.316   1.512   0.734 -0.0680 -0.5307  0.0374
 1680TIP3    H2 5047   1.339   1.382   0.807 -0.0726 -0.4504  0.1834
 1681TIP3   OH2 5048   3.054   2.563   3.384 -0.2339 -0.1363 -0.4023
 1681TIP3    H1 5049   3.038   2.640   3.439 -0.3665 -0.3765 -0.0988
 1681TIP3    H2 5050   3.135   2.583   3.338  0.7045 -0.5366  0.9962
 1682TIP3   OH2 5051   3.284   5.711   2.703 -0.0371 -0.5728 -0.0295
 1682TIP3    H1 5052   3.285   5.792   2.654 -0.6236 -0.9795 -0.7244
 1682TIP3    H2 5053   3.192   5.697   2.727  0.0531 -1.0383  0.0714
 1683TIP3   OH2 5054   5.422   0.291   0.170 -0.1639 -0.2043  1.0026
 1683TIP3    H1 5055   5.354   0.313   0.234  0.2771 -2.3247  2.2927
 1683TIP3    H2 5056   5.481   0.367   0.172 -1.5769  0.9499  1.0767
 1684TIP3   OH2 5057   0.975   0.784   5.128  0.4386 -0.0479 -0.0723
 1684TIP3    H1 5058   1.063   0.764   5.160  0.4186 -0.5069 -0.2896
 1684TIP3    H2 5059   0.989   0.833   5.047  0.4923  1.7077  0.9566
 1685TIP3   OH2 5060   6.179   2.972   1.787 -0.2026  0.0817  0.5439
 1685TIP3    H1 5061   6.197   3.034   1.717  3.0307 -0.3825  0.8060
 1685TIP3    H2 5062   6.087   2.948   1.775 -0.0004  0.5968 -3.0347
 1686TIP3   OH2 5063   5.288   3.524   3.801 -0.2673  0.0227 -0.0909
 1686TIP3    H1 5064   5.322   3.470   3.872  3.0766  1.0002 -0.8034
 1686TIP3    H2 5065   5.326   3.485   3.722 -0.9621  1.1326 -0.9979
 1687TIP3   OH2 5066   5.069   4.405   1.857  0.6500 -0.6374  1.0609
 1687TIP3    H1 5067   5.039   4.495   1.862 -2.2084 -1.4835  0.4396
 1687TIP3    H2 5068   5.076   4.378   1.949  0.1651 -0.2052  1.2312
 1688TIP3   OH2 5069   5.146   4.335   2.879 -0.2136 -0.2257  0.5110
 1688TIP3    H1 5070   5.112   4.345   2.968 -1.6038  1.8244 -0.1859
 1688TIP3    H2 5071   5.069   4.339   2.823  0.6336 -1.5628 -0.8226
 1689TIP3   OH2 5072   4.758   0.399   4.711 -0.3886 -0.9722 -0.3179
 1689TIP3    H1 5073   4.783   0.404   4.619  0.2561 -0.4086 -0.1156
 1689TIP3    H2 5074   4.740   0.490   4.736 -0.1198 -1.0696  0.2388
 1690TIP3   OH2 5075   0.553   4.074   0.861 -0.5366  0.0573 -0.6810
 1690TIP3    H1 5076   0.573   3.989   0.823  1.6622  0.0204  0.3522
 1690TIP3    H2 5077   0.627   4.091   0.921 -1.5739  2.0881  0.1247
 1691TIP3   OH2 5078   6.132   3.260   4.278  0.2704  0.2661 -0.4629
 1691TIP3    H1 5079   6.163   3.220   4.359 -0.8182 -0.1801 -0.2575
 1691TIP3    H2 5080   6.157   3.352   4.286 -0.3112  0.3379  0.6311
 1692TIP3   OH2 5081   0.102   3.254   3.207 -0.1787  0.3025  0.4199
 1692TIP3    H1 5082   0.037   3.206   3.258  0.2549  1.3869  2.0942
 1692TIP3    H2 5083   0.168   3.280   3.271  2.7790 -2.0321 -1.4471
 1693TIP3   OH2 5084   0.553   5.334   3.072 -0.3138 -0.2453  0.4110
 1693TIP3    H1 5085   0.473   5.336   3.019 -0.3599  0.8662  0.4921
 1693TIP3    H2 5086   0.541   5.404   3.136  1.0272  0.4545 -0.0505
 1694TIP3   OH2 5087   4.500   1.126   5.105  0.1744  0.5264 -0.3360
 1694TIP3    H1 5088   4.508   1.032   5.115 -0.1671  0.7192  2.5547
 1694TIP3    H2 5089   4.462   1.138   5.017  1.5758 -1.8907 -1.3527
 1695TIP3   OH2 5090   4.137   3.862   4.250  0.2599  0.6406 -0.2881
 1695TIP3    H1 5091   4.095   3.783   4.284 -0.0138 -0.2647 -2.5386
 1695TIP3    H2 5092   4.227   3.857   4.281 -0.0613  0.0793  0.5915
 1696TIP3   OH2 5093   0.829   1.758   2.530  0.4171  0.2032 -0.0985
 1696TIP3    H1 5094   0.823   1.850   2.504 -1.2652 -0.2364 -1.4299
 1696TIP3    H2 5095   0.802   1.758   2.622 -0.1000  0.9852 -0.2372
 1697TIP3   OH2 5096   1.931   2.651   2.512 -0.4053  0.0344 -0.1643
 1697TIP3    H1 5097   1.976   2.567   2.512  0.8491  0.6775 -0.3733
 1697TIP3    H2 5098   1.960   2.694   2.432 -0.1703  1.0941  0.4692
 1698TIP3   OH2 5099   5.402   5.218   3.220  0.0593 -0.1631 -0.2762
 1698TIP3    H1 5100   5.455   5.298   3.226 -0.2867  0.0572 -0.1036
 1698TIP3    H2 5101   5.458   5.156   3.174  1.0463 -0.4265  1.2317
 1699TIP3   OH2 5102   6.172   1.038   0.298 -0.8117 -0.5029  0.7123
 1699TIP3    H1 5103   6.251   1.086   0.272 -1.4916  0.9078  1.1613
 1699TIP3    H2 5104   6.159   0.974   0.227 -2.0364  2.5183 -2.0314
 1700TIP3   OH2 5105   5.653   1.457   3.626  0.1727  0.6132 -0.7543
 1700TIP3    H1 5106   5.714   1.388   3.652  1.1421  2.0101  0.8219
 1700TIP3    H2 5107   5.604   1.418   3.553  0.9027 -1.6094 -0.1584
 1701TIP3   OH2 5108   2.127   4.467   0.352  0.0153 -0.0824 -0.5654
 1701TIP3    H1 5109   2.104   4.545   0.303 -0.5994 -0.7073 -1.3075
 1701TIP3    H2 5110   2.189   4.420   0.296 -0.3189 -0.5652 -0.5397
 1702TIP3   OH2 5111   2.378   2.724   0.899  0.4644  0.4046 -0.3410
 1702TIP3    H1 5112   2.460   2.727   0.948  1.0563 -0.1142 -1.2540
 1702TIP3    H2 5113   2.399   2.767   0.816  0.0010 -0.3017 -0.8327
 1703TIP3   OH2 5114   3.896   0.343   0.948  0.7289  0.4359 -0.5742
 1703TIP3    H1 5115   3.859   0.262   0.984 -0.9317  1.9196  1.2445
 1703TIP3    H2 5116   3.913   0.398   1.024 -0.3348  2.6658 -1.8388
 1704TIP3   OH2 5117   3.262   0.106   3.597 -0.1085  0.0114  0.0636
 1704TIP3    H1 5118   3.240   0.165   3.524  1.0183 -0.8870 -1.0320
 1704TIP3    H2 5119   3.225   0.022   3.572 -0.5157 -0.1052  0.9954
 1705TIP3   OH2 5120   4.532   3.608   3.869  0.2468  0.0757  0.2048
 1705TIP3    H1 5121   4.603   3.598   3.932  1.3557  2.1509 -0.6302
 1705TIP3    H2 5122   4.477   3.677   3.905  0.2205  0.4292 -0.4987
 1706TIP3   OH2 5123   3.400   4.298   1.167  0.2064  0.2738  0.3683
 1706TIP3    H1 5124   3.415   4.392   1.160  2.3376 -0.0942 -0.5327
 1706TIP3    H2 5125   3.397   4.267   1.077 -0.2861 -0.5612  0.6640
 1707TIP3   OH2 5126   0.817   3.141   0.308  0.2922  0.2790 -0.2318
 1707TIP3    H1 5127   0.857   3.221   0.342  0.2568  0.1405  0.1434
 1707TIP3    H2 5128   0.834   3.144   0.214  1.3470  0.1379 -0.0618
 1708TIP3   OH2 5129   4.060   4.958   3.961  0.5201 -0.2395  0.8227
 1708TIP3    H1 5130   4.032   5.047   3.939 -0.6815 -1.1229 -1.6233
 1708TIP3    H2 5131   4.002   4.930   4.031 -0.5266  0.1878  0.1420
 1709TIP3   OH2 5132   1.484   4.919   3.326 -0.0695  0.1048 -0.4286
 1709TIP3    H1 5133   1.503   4.859   3.399  1.2468  1.2714  0.2352
 1709TIP3    H2 5134   1.498   5.006   3.362  1.0322  0.7046 -2.1695
 1710TIP3   OH2 5135   3.011   3.107   5.142  0.2907 -0.4109 -0.8797
 1710TIP3    H1 5136   3.041   3.020   5.116  1.7711 -0.5859  1.1598
 1710TIP3    H2 5137   2.983   3.096   5.233 -0.4449  1.0601 -0.8946
 1711TIP3   OH2 5138   3.083   3.986   4.768 -1.0181 -0.2894 -0.3806
 1711TIP3    H1 5139   2.991   3.966   4.749 -0.9692 -0.3313 -0.5738
 1711TIP3    H2 5140   3.096   4.073   4.731 -1.4169  0.4272  1.0541
 1712TIP3   OH2 5141   1.449   0.689   0.670  0.1501  0.0483 -0.4240
 1712TIP3    H1 5142   1.471   0.758   0.608 -0.2190 -0.9652 -1.7261
 1712TIP3    H2 5143   1.531   0.640   0.681  0.7795  1.4071  1.5257
 1713TIP3   OH2 5144   1.613   5.247   4.275 -0.3050  0.2501  0.4934
 1713TIP3    H1 5145   1.689   5.275   4.325  0.5215 -0.2451 -0.4325
 1713TIP3    H2 5146   1.623   5.152   4.266 -1.1545  0.1438  0.5531
 1714TIP3   OH2 5147   5.849   2.432   2.157 -0.2905 -0.3059 -0.4616
 1714TIP3    H1 5148   5.809   2.459   2.239 -0.4362 -1.0911 -0.2702
 1714TIP3    H2 5149   5.893   2.350   2.177  1.2762  0.4333 -0.7189
 1715TIP3   OH2 5150   3.778   1.841   5.175 -0.0079  0.2277  0.0560
 1715TIP3    H1 5151   3.788   1.867   5.084  0.4489  0.0524  0.0535
 1715TIP3    H2 5152   3.684   1.850   5.193  0.1039  1.7552  0.0259
 1716TIP3   OH2 5153   0.259   0.107   1.416 -0.1712 -0.3844 -0.4065
 1716TIP3    H1 5154   0.173   0.145   1.430 -0.1463  0.0554 -1.4020
 1716TIP3    H2 5155   0.247   0.013   1.435 -0.1493  0.0859  2.3596
 1717TIP3   OH2 5156   4.980   4.544   4.201  0.1414 -0.6541  0.5128
 1717TIP3    H1 5157   5.038   4.590   4.263 -1.2051  0.4753  0.9918
 1717TIP3    H2 5158   4.952   4.612   4.140  1.5108 -1.7601 -1.4828
 1718TIP3   OH2 5159   5.066   5.262   4.162  0.4439  0.1723  0.2636
 1718TIP3    H1 5160   5.025   5.343   4.133  0.9645  0.2187 -0.3631
 1718TIP3    H2 5161   5.129   5.288   4.229 -0.2873  0.1411  0.9677
 1719TIP3   OH2 5162   1.368   4.928   3.089 -0.0529 -0.3371 -0.5985
 1719TIP3    H1 5163   1.405   4.919   3.177  3.1518 -0.2536 -1.8031
 1719TIP3    H2 5164   1.355   4.838   3.060 -0.4722 -0.3760 -0.3026
 1720TIP3   OH2 5165   4.177   2.253   2.659  0.6322 -0.5183 -0.4538
 1720TIP3    H1 5166   4.253   2.249   2.717  0.1931  1.0537  0.2693
 1720TIP3    H2 5167   4.177   2.342   2.625 -1.0606 -0.3922 -0.2161
 1721TIP3   OH2 5168   3.407   5.881   1.815  0.0766  0.2016 -0.1367
 1721TIP3    H1 5169   3.472   5.902   1.749 -0.0267  0.0281 -0.2955
 1721TIP3    H2 5170   3.428   5.792   1.843 -0.7071 -0.2534 -0.9314
 1722TIP3   OH2 5171   3.970   1.249   0.835  0.9244 -0.3783  0.3313
 1722TIP3    H1 5172   3.926   1.187   0.893  0.2751 -0.2647 -0.0240
 1722TIP3    H2 5173   3.913   1.255   0.758  1.3095  0.1578  0.0762
 1723TIP3   OH2 5174   4.796   5.572   1.337  0.5106  0.5575 -0.1984
 1723TIP3    H1 5175   4.745   5.493   1.355  1.4937 -0.0355  0.0803
 1723TIP3    H2 5176   4.840   5.553   1.254 -1.4177  1.9644 -1.6488
 1724TIP3   OH2 5177   5.894   2.713   2.165  0.1873 -0.2660  0.1429
 1724TIP3    H1 5178   5.987   2.691   2.176  0.2582  0.3612  0.9176
 1724TIP3    H2 5179   5.856   2.637   2.122  1.4009  0.1329 -1.7841
 1725TIP3   OH2 5180   4.502   2.048   3.672  0.4818  0.2520  0.5247
 1725TIP3    H1 5181   4.580   2.017   3.626  0.1344  1.0742 -0.6832
 1725TIP3    H2 5182   4.445   1.972   3.677 -0.0505  0.4280 -1.7152
 1726TIP3   OH2 5183   5.698   5.301   3.519 -0.5908  0.7262 -0.0558
 1726TIP3    H1 5184   5.653   5.277   3.601 -0.5875  0.5462 -0.1050
 1726TIP3    H2 5185   5.790   5.280   3.536 -0.5719  0.8104 -0.0598
 1727TIP3   OH2 5186   5.865   0.553   2.568  0.5499 -0.0167  0.5015
 1727TIP3    H1 5187   5.917   0.629   2.596 -0.5642  1.2593 -0.7700
 1727TIP3    H2 5188   5.833   0.576   2.481 -0.6758 -1.5320  0.5060
 1728TIP3   OH2 5189   0.405   4.658   5.046 -0.2215  0.0639  0.2338
 1728TIP3    H1 5190   0.379   4.576   5.004 -0.0973  1.1693 -2.1526
 1728TIP3    H2 5191   0.437   4.631   5.132 -2.7393 -2.0931  0.6428
 1729TIP3   OH2 5192   4.243   2.748   1.334  0.1653  0.4896  0.1418
 1729TIP3    H1 5193   4.181   2.796   1.279 -0.1999  1.0492  1.0108
 1729TIP3    H2 5194   4.306   2.814   1.362 -1.0635  0.8286  2.3949
 1730TIP3   OH2 5195   2.908   1.756   1.826  0.0070  0.2647  0.2357
 1730TIP3    H1 5196   2.922   1.680   1.771  1.6123  0.8931 -0.2760
 1730TIP3    H2 5197   2.951   1.828   1.780  2.7690  0.5346  2.9221
 1731TIP3   OH2 5198   3.593   0.953   2.844 -0.4111  0.0966 -0.7453
 1731TIP3    H1 5199   3.602   1.049   2.848 -0.7068  0.0813  1.0183
 1731TIP3    H2 5200   3.619   0.931   2.754  1.2413  1.6647 -0.7317
 1732TIP3   OH2 5201   4.696   5.447   2.497  0.1552  0.1282 -0.0834
 1732TIP3    H1 5202   4.699   5.489   2.583  1.2105  0.1089 -0.0970
 1732TIP3    H2 5203   4.714   5.355   2.515  1.0148  0.2265 -0.3746
 1733TIP3   OH2 5204   3.114   4.377   2.206  0.0520  0.0162 -0.1715
 1733TIP3    H1 5205   3.151   4.419   2.284  0.2989 -0.7307  0.1123
 1733TIP3    H2 5206   3.053   4.443   2.171  0.0104  0.3963  0.5916
 1734TIP3   OH2 5207   4.636   4.495   0.323  0.2202  0.6656 -0.6277
 1734TIP3    H1 5208   4.591   4.501   0.407 -0.4414  0.8864 -0.9928
 1734TIP3    H2 5209   4.697   4.569   0.324  0.2062  0.6756 -0.3471
 1735TIP3   OH2 5210   0.068   2.299   3.478  0.1395  0.3539  0.3442
 1735TIP3    H1 5211   0.133   2.246   3.432  0.6000  0.7470  0.5381
 1735TIP3    H2 5212   0.086   2.389   3.450 -0.8188  0.3916 -0.2079
 1736TIP3   OH2 5213   2.042   1.165   0.197  0.0420 -0.1921 -0.1518
 1736TIP3    H1 5214   1.965   1.206   0.238 -0.2171 -0.8328  0.0124
 1736TIP3    H2 5215   2.042   1.076   0.231  2.0115  0.3470  1.4295
 1737TIP3   OH2 5216   4.803   1.011   3.366  0.0285 -0.0443 -0.2773
 1737TIP3    H1 5217   4.846   0.942   3.316 -0.4784 -0.8143  0.3322
 1737TIP3    H2 5218   4.732   1.041   3.309  0.8617  0.7185 -0.9739
 1738TIP3   OH2 5219   0.870   2.668   3.572 -0.1307  0.3007 -0.0593
 1738TIP3    H1 5220   0.908   2.701   3.491 -0.5028  0.3524 -0.2175
 1738TIP3    H2 5221   0.927   2.701   3.641 -0.1798  0.8128 -0.2569
 1739TIP3   OH2 5222   4.036   3.259   4.936  0.1357 -0.4722 -0.0815
 1739TIP3    H1 5223   3.955   3.234   4.981  1.2207 -2.6436  0.7754
 1739TIP3    H2 5224   4.062   3.182   4.887  1.6417  0.2318 -0.4512
 1740TIP3   OH2 5225   4.125   2.683   3.575  0.2983 -0.0181 -0.2787
 1740TIP3    H1 5226   4.197   2.621   3.585 -0.1299 -0.7930 -1.6310
 1740TIP3    H2 5227   4.046   2.628   3.574 -0.0104  0.3299 -2.7375
 1741TIP3   OH2 5228   1.955   2.516   3.120 -0.2041  0.7933  0.6618
 1741TIP3    H1 5229   1.953   2.507   3.025 -1.3237  2.4685  0.4770
 1741TIP3    H2 5230   2.032   2.466   3.148 -2.2948 -3.5875 -0.6083
 1742TIP3   OH2 5231   3.312   3.181   3.403  0.1601  0.1132 -0.2230
 1742TIP3    H1 5232   3.274   3.145   3.322 -0.1257  1.5346 -0.7397
 1742TIP3    H2 5233   3.397   3.138   3.410  0.7536  0.9028 -1.9828
 1743TIP3   OH2 5234   1.456   4.979   4.193 -0.0155  0.6003  0.5767
 1743TIP3    H1 5235   1.421   4.916   4.257 -1.3961  3.0935  2.4358
 1743TIP3    H2 5236   1.419   4.951   4.109 -0.9871 -0.7475  1.4125
 1744TIP3   OH2 5237   2.925   0.925   2.845 -0.5109  0.5877  0.0126
 1744TIP3    H1 5238   2.925   0.863   2.918  2.1625  2.4501  1.7684
 1744TIP3    H2 5239   3.006   0.906   2.797  0.1667  2.3919  0.3690
 1745TIP3   OH2 5240   0.717   4.039   4.218  0.1652 -0.5619  0.8345
 1745TIP3    H1 5241   0.812   4.030   4.216  0.2601  0.4579  0.1141
 1745TIP3    H2 5242   0.701   4.123   4.261 -0.4005 -0.5513  0.6138
 1746TIP3   OH2 5243   1.218   4.363   4.462 -0.3446  0.0976 -0.4898
 1746TIP3    H1 5244   1.235   4.411   4.543 -1.7134  0.1466 -0.2049
 1746TIP3    H2 5245   1.277   4.403   4.398 -1.0456  1.8257 -0.1274
 1747TIP3   OH2 5246   1.855   0.201   2.628 -0.4307  0.0088  0.1374
 1747TIP3    H1 5247   1.830   0.174   2.717  1.6785  1.2057  1.1808
 1747TIP3    H2 5248   1.776   0.245   2.594 -1.2761 -0.4330  1.4303
 1748TIP3   OH2 5249   5.596   2.459   0.938 -0.9224 -0.3992  0.2188
 1748TIP3    H1 5250   5.648   2.482   0.861 -1.7860  1.6483  0.1708
 1748TIP3    H2 5251   5.523   2.408   0.903 -1.8916  1.4132 -0.5509
 1749TIP3   OH2 5252   3.986   0.389   2.525  0.3577  0.4151 -0.3788
 1749TIP3    H1 5253   3.994   0.324   2.595 -0.7448 -0.9585 -1.4564
 1749TIP3    H2 5254   4.071   0.431   2.521  0.9713 -0.6638  0.6512
 1750TIP3   OH2 5255   5.403   4.718   1.085  0.4546  0.1196  0.3977
 1750TIP3    H1 5256   5.400   4.695   1.178 -1.3773  1.8699  0.8353
 1750TIP3    H2 5257   5.398   4.814   1.084 -2.5079  0.0768 -1.5084
 1751TIP3   OH2 5258   0.363   5.371   0.749 -0.2570 -0.1587 -0.0515
 1751TIP3    H1 5259   0.393   5.301   0.808 -1.4953 -1.6147 -1.0697
 1751TIP3    H2 5260   0.431   5.438   0.755  0.5897 -1.0943  1.5673
 1752TIP3   OH2 5261   2.063   2.865   3.535  0.1656  0.2010 -0.1062
 1752TIP3    H1 5262   2.092   2.954   3.514 -2.4592  1.0869 -0.3417
 1752TIP3    H2 5263   2.109   2.809   3.472 -0.1171  1.7185 -1.7239
 1753TIP3   OH2 5264   0.270   0.543   0.727 -0.4355 -0.1107 -0.5355
 1753TIP3    H1 5265   0.357   0.504   0.734 -1.1207 -1.4125  1.8185
 1753TIP3    H2 5266   0.271   0.589   0.643  3.1893  1.6390  0.2845
 1754TIP3   OH2 5267   3.294   5.159   0.068  0.0506  0.2684  0.1423
 1754TIP3    H1 5268   3.372   5.109   0.093 -1.1729 -1.9418 -0.1650
 1754TIP3    H2 5269   3.236   5.151   0.144 -0.9582 -0.5796 -0.6827
 1755TIP3   OH2 5270   1.868   1.637   2.776  0.4233 -0.0832 -0.7490
 1755TIP3    H1 5271   1.787   1.686   2.762  0.1394  0.1271  1.3473
 1755TIP3    H2 5272   1.934   1.703   2.797  1.5925 -0.1013 -3.8844
 1756TIP3   OH2 5273   1.360   0.908   4.625 -0.1716  0.3205  0.1960
 1756TIP3    H1 5274   1.390   0.882   4.711 -0.3510  1.1977  0.5333
 1756TIP3    H2 5275   1.305   0.835   4.596  1.2521 -0.7450  0.0810
 1757TIP3   OH2 5276   5.665   0.467   2.741 -0.2045 -0.0340 -0.1432
 1757TIP3    H1 5277   5.736   0.495   2.684  0.1811 -0.3234  0.1904
 1757TIP3    H2 5278   5.708   0.426   2.816 -0.4578  3.7245  2.3522
 1758TIP3   OH2 5279   1.644   3.384   1.847 -0.0269 -0.0946  0.2336
 1758TIP3    H1 5280   1.649   3.386   1.943  2.7864  2.1886  0.1852
 1758TIP3    H2 5281   1.558   3.419   1.826 -0.6133 -0.4404  1.9177
 1759TIP3   OH2 5282   2.275   5.189   4.352 -0.0960  0.1588  0.4936
 1759TIP3    H1 5283   2.183   5.185   4.326 -0.4743  2.9644  1.0979
 1759TIP3    H2 5284   2.274   5.183   4.447  0.6591 -2.5459  0.4156
 1760TIP3   OH2 5285   3.475   1.615   4.351 -0.2640 -0.2090 -0.2179
 1760TIP3    H1 5286   3.556   1.612   4.300  0.7741  1.4058  1.2351
 1760TIP3    H2 5287   3.421   1.679   4.305 -1.2357 -2.0712 -1.8086
 1761TIP3   OH2 5288   0.517   1.631   2.379 -0.5276  0.1705  0.1314
 1761TIP3    H1 5289   0.441   1.598   2.331  0.1549 -0.1027 -0.7863
 1761TIP3    H2 5290   0.558   1.553   2.416  0.2339  0.1256 -0.7708
 1762TIP3   OH2 5291   1.144   1.336   1.087 -0.1057  0.1324  0.6436
 1762TIP3    H1 5292   1.163   1.286   1.167 -1.7529 -1.0928  0.3205
 1762TIP3    H2 5293   1.198   1.294   1.020 -0.6162 -0.4877  0.6122
 1763TIP3   OH2 5294   1.497   5.551   3.845 -0.4883  0.3193 -0.1949
 1763TIP3    H1 5295   1.513   5.626   3.902 -0.2820  0.6971 -0.7396
 1763TIP3    H2 5296   1.481   5.478   3.904  0.6022  0.5088  0.3464
 1764TIP3   OH2 5297   0.141   2.544   3.421  0.3731  0.2124 -0.3825
 1764TIP3    H1 5298   0.217   2.601   3.415 -0.5324  1.5697  0.6055
 1764TIP3    H2 5299   0.095   2.573   3.500  0.8834 -3.1445  1.3484
 1765TIP3   OH2 5300   5.910   1.300   4.230 -0.2552  0.4713  0.8943
 1765TIP3    H1 5301   5.934   1.212   4.257  0.4205  0.8298  1.4828
 1765TIP3    H2 5302   5.814   1.299   4.229 -0.3154 -1.1643 -2.1345
 1766TIP3   OH2 5303   2.228   2.138   2.990 -0.3231 -0.0662 -0.2740
 1766TIP3    H1 5304   2.184   2.208   3.038  0.5042 -0.8680  1.7904
 1766TIP3    H2 5305   2.315   2.133   3.029 -0.1556 -1.8233 -0.7671
 1767TIP3   OH2 5306   5.049   1.593   1.797 -0.0338  0.3832  0.5437
 1767TIP3    H1 5307   5.056   1.522   1.734  1.2874 -0.5005  1.6328
 1767TIP3    H2 5308   5.126   1.647   1.781  0.1650  0.3052  1.2024
 1768TIP3   OH2 5309   2.300   5.212   2.111  0.3332  0.5271 -0.1608
 1768TIP3    H1 5310   2.228   5.255   2.157  1.4937  2.7291 -0.2385
 1768TIP3    H2 5311   2.311   5.264   2.031  0.3151 -1.3922 -1.4847
 1769TIP3   OH2 5312   1.175   2.424   2.777 -0.8167 -0.5993 -0.3175
 1769TIP3    H1 5313   1.253   2.462   2.737  0.5592 -1.3293  1.4939
 1769TIP3    H2 5314   1.193   2.330   2.780 -1.0514 -0.6327  1.4571
 1770TIP3   OH2 5315   2.646   5.146   0.043  0.1156 -0.2683  0.4189
 1770TIP3    H1 5316   2.612   5.202   0.113  0.3042  0.0731  0.2425
 1770TIP3    H2 5317   2.665   5.063   0.085  0.9323  0.1642  0.9344
 1771TIP3   OH2 5318   0.696   4.880   1.757  0.2229 -0.3465 -0.4149
 1771TIP3    H1 5319   0.747   4.961   1.756 -0.8076  0.3430  0.4336
 1771TIP3    H2 5320   0.607   4.907   1.734 -0.5724 -0.8928  1.8295
 1772TIP3   OH2 5321   2.937   4.071   3.833 -0.4891 -0.0705  0.0621
 1772TIP3    H1 5322   2.904   3.992   3.790 -0.4213 -1.2384  2.0577
 1772TIP3    H2 5323   2.969   4.041   3.918 -1.2832  2.2482  1.2590
 1773TIP3   OH2 5324   4.134   2.409   2.142 -0.5484 -0.2139 -0.1680
 1773TIP3    H1 5325   4.158   2.329   2.188 -0.3662  1.0220  2.0540
 1773TIP3    H2 5326   4.121   2.382   2.051  1.7192 -2.3145  0.0280
 1774TIP3   OH2 5327   6.251   3.928   4.815  0.3741 -0.3902 -0.2263
 1774TIP3    H1 5328   6.210   3.883   4.889  1.2684  0.2870  0.7203
 1774TIP3    H2 5329   6.253   4.020   4.842  0.8013 -0.1523 -1.0535
 1775TIP3   OH2 5330   2.383   5.405   1.452  0.4612  0.0243 -0.0451
 1775TIP3    H1 5331   2.293   5.373   1.445  0.3047  0.4904 -0.2622
 1775TIP3    H2 5332   2.397   5.416   1.546 -0.0180  0.7646 -0.0476
 1776TIP3   OH2 5333   1.293   0.604   3.154 -0.5207 -0.0817  0.4912
 1776TIP3    H1 5334   1.259   0.582   3.240 -0.8034  0.9101  0.6410
 1776TIP3    H2 5335   1.241   0.678   3.125 -0.8500 -0.7882 -0.8108
 1777TIP3   OH2 5336   6.131   5.651   4.992 -0.3889  0.1536 -0.1336
 1777TIP3    H1 5337   6.195   5.582   4.974 -1.1285 -0.6046  0.0699
 1777TIP3    H2 5338   6.107   5.684   4.906 -0.2219 -0.0292 -0.2512
 1778TIP3   OH2 5339   5.520   5.037   3.486  0.0949  0.6999 -0.6405
 1778TIP3    H1 5340   5.550   5.031   3.576  1.3757  0.6147 -1.0521
 1778TIP3    H2 5341   5.583   5.094   3.443  0.6886 -0.8473 -1.9542
 1779TIP3   OH2 5342   0.431   0.972   1.852 -0.4936 -0.0362 -0.1836
 1779TIP3    H1 5343   0.505   0.914   1.866 -0.4137 -0.5973 -2.5315
 1779TIP3    H2 5344   0.465   1.043   1.797 -1.6511 -0.3323 -1.3535
 1780TIP3   OH2 5345   0.767   3.263   1.193  0.0256  0.4141  0.4627
 1780TIP3    H1 5346   0.724   3.208   1.128 -0.2703 -0.0432  1.0381
 1780TIP3    H2 5347   0.749   3.220   1.276 -0.5880  1.6280  0.9764
 1781TIP3   OH2 5348   2.345   2.350   3.626 -0.3593  0.7268 -0.1456
 1781TIP3    H1 5349   2.310   2.275   3.577  2.3957 -0.8122  0.0325
 1781TIP3    H2 5350   2.433   2.362   3.591  1.5515 -0.0475  3.8755
 1782TIP3   OH2 5351   2.861   4.749   1.597 -0.0807  0.1166  0.2136
 1782TIP3    H1 5352   2.877   4.812   1.526 -2.4018  1.1129  0.4999
 1782TIP3    H2 5353   2.883   4.664   1.559  1.5391  0.8819 -0.7151
 1783TIP3   OH2 5354   1.699   0.799   4.542  0.0476  0.0951  0.6463
 1783TIP3    H1 5355   1.624   0.750   4.576  0.0136 -2.4289 -2.5290
 1783TIP3    H2 5356   1.664   0.884   4.518 -1.8361 -0.9793 -0.6214
 1784TIP3   OH2 5357   5.060   3.971   0.637  0.2733 -0.1605 -0.9972
 1784TIP3    H1 5358   5.135   3.953   0.581  2.5979  1.8793  1.2147
 1784TIP3    H2 5359   5.014   4.043   0.594  1.1765  0.3984 -1.0460
 1785TIP3   OH2 5360   0.172   3.180   0.998 -0.0678  0.7323  0.1294
 1785TIP3    H1 5361   0.079   3.194   0.980  0.1235  0.8847 -0.8177
 1785TIP3    H2 5362   0.211   3.166   0.912  0.6398 -0.2729  0.5934
 1786TIP3   OH2 5363   4.536   1.137   4.445  0.3005  0.1402  0.4807
 1786TIP3    H1 5364   4.490   1.205   4.494  0.9088  0.3711  0.7375
 1786TIP3    H2 5365   4.584   1.088   4.511  1.7181  0.9104  0.0526
 1787TIP3   OH2 5366   6.150   1.954   4.192 -0.0536  0.0764 -0.3774
 1787TIP3    H1 5367   6.190   1.878   4.151 -0.2946 -1.3001  1.7956
 1787TIP3    H2 5368   6.207   2.027   4.167  1.5722 -1.1969 -0.5894
 1788TIP3   OH2 5369   4.926   1.258   2.856 -0.1318 -0.5753  0.1446
 1788TIP3    H1 5370   4.944   1.164   2.860  1.0829 -0.3674 -0.1073
 1788TIP3    H2 5371   4.976   1.296   2.928  0.0622 -0.0281 -0.2707
 1789TIP3   OH2 5372   0.407   0.789   0.527 -0.2164  0.0403 -0.5566
 1789TIP3    H1 5373   0.363   0.713   0.488  1.7936 -0.7545 -1.3881
 1789TIP3    H2 5374   0.408   0.855   0.457 -1.3523  0.6165 -0.0558
 1790TIP3   OH2 5375   2.064   3.744   4.440  0.0451  0.5978 -0.2355
 1790TIP3    H1 5376   2.017   3.687   4.499  0.4805  1.3242  0.8380
 1790TIP3    H2 5377   2.087   3.688   4.365 -1.7197  0.0228 -0.3869
 1791TIP3   OH2 5378   2.783   0.623   1.881  0.3550  0.0780  0.1949
 1791TIP3    H1 5379   2.749   0.712   1.886  2.2194  0.7598  1.5117
 1791TIP3    H2 5380   2.797   0.608   1.787 -2.1395  0.2431 -0.2944
 1792TIP3   OH2 5381   5.009   2.766   0.716  0.4800 -0.4510  0.8461
 1792TIP3    H1 5382   4.975   2.796   0.631  0.3005 -0.6397  0.8496
 1792TIP3    H2 5383   4.981   2.674   0.722 -0.5599 -0.0972  1.6482
 1793TIP3   OH2 5384   1.726   2.007   1.750  0.7604  0.2776  0.6423
 1793TIP3    H1 5385   1.781   2.086   1.745  0.6511  0.2996 -0.3943
 1793TIP3    H2 5386   1.749   1.957   1.672 -1.5781  0.8958 -0.5396
 1794TIP3   OH2 5387   5.825   1.095   0.453 -0.3788  0.3406 -0.2261
 1794TIP3    H1 5388   5.833   1.056   0.366 -1.5599 -1.8617  0.5614
 1794TIP3    H2 5389   5.890   1.049   0.506 -1.2998 -0.1102  0.5623
 1795TIP3   OH2 5390   4.016   2.925   4.963 -0.5311  0.3090 -0.2681
 1795TIP3    H1 5391   3.970   2.945   5.045 -0.4319  1.0742 -0.3949
 1795TIP3    H2 5392   4.011   2.829   4.956 -0.6919  0.2492  0.5419
 1796TIP3   OH2 5393   5.917   5.010   4.199 -0.1032  0.0573 -0.1829
 1796TIP3    H1 5394   5.903   5.063   4.121 -1.6314 -0.1759 -0.1057
 1796TIP3    H2 5395   5.949   5.072   4.265 -1.5742  0.8691 -0.1794
 1797TIP3   OH2 5396   5.003   2.073   1.358 -0.3022 -0.2757 -0.6140
 1797TIP3    H1 5397   5.026   2.157   1.398 -1.7860 -0.9627  1.9060
 1797TIP3    H2 5398   5.084   2.022   1.361  0.0379  0.2878 -0.0316
 1798TIP3   OH2 5399   4.738   0.724   3.312  0.0143  0.1347 -0.6565
 1798TIP3    H1 5400   4.741   0.748   3.405  0.2892  1.6885 -1.0368
 1798TIP3    H2 5401   4.648   0.741   3.286 -0.1722 -0.6999 -0.5958
 1799TIP3   OH2 5402   4.099   2.024   2.533  0.4237 -0.4030  0.4754
 1799TIP3    H1 5403   4.133   2.105   2.570  0.8277 -0.2331 -0.2380
 1799TIP3    H2 5404   4.169   1.994   2.474  1.6677 -2.9315  3.0249
 1800TIP3   OH2 5405   0.229   4.700   0.858 -0.0879 -0.4980 -0.1878
 1800TIP3    H1 5406   0.236   4.637   0.787  1.3732  1.0090 -1.4508
 1800TIP3    H2 5407   0.209   4.647   0.935  1.1678 -2.4952 -1.1725
 1801TIP3   OH2 5408   3.890   4.582   2.154 -0.3159 -0.0606 -0.0119
 1801TIP3    H1 5409   3.901   4.559   2.246  2.7198  0.1695 -0.2120
 1801TIP3    H2 5410   3.863   4.674   2.155  1.1355  0.3995  0.7124
 1802TIP3   OH2 5411   1.234   0.549   1.448  0.5493 -0.2691  0.0978
 1802TIP3    H1 5412   1.154   0.496   1.451 -0.2854  0.9542  0.8745
 1802TIP3    H2 5413   1.205   0.633   1.411  1.2379  0.5201  1.2575
 1803TIP3   OH2 5414   1.604   5.157   4.003 -0.0023 -0.5504  0.3256
 1803TIP3    H1 5415   1.594   5.247   3.972 -1.6948 -0.7446  0.2427
 1803TIP3    H2 5416   1.567   5.103   3.933  0.6821 -1.3012  0.5299
 1804TIP3   OH2 5417   4.693   4.838   3.859  0.0014  0.0552  0.3961
 1804TIP3    H1 5418   4.640   4.888   3.922 -2.2065  0.0250 -1.2892
 1804TIP3    H2 5419   4.696   4.894   3.781  0.1397 -1.1132 -0.4661
 1805TIP3   OH2 5420   3.650   2.227   2.010 -0.4774  0.3531  0.1167
 1805TIP3    H1 5421   3.602   2.201   2.088 -0.4924  0.8627  0.2806
 1805TIP3    H2 5422   3.673   2.145   1.967 -3.0411  0.0592 -0.9208
 1806TIP3   OH2 5423   1.896   1.387   5.109  0.2814 -0.5668 -0.2940
 1806TIP3    H1 5424   1.813   1.383   5.158  0.9912  3.4461  1.6997
 1806TIP3    H2 5425   1.870   1.419   5.023 -0.3742  0.2255  0.1698
 1807TIP3   OH2 5426   4.154   0.200   2.011  0.4287  0.5470  0.5735
 1807TIP3    H1 5427   4.106   0.223   1.932  0.8087  1.4820  0.5919
 1807TIP3    H2 5428   4.177   0.285   2.050  0.2742  0.1052  1.6678
 1808TIP3   OH2 5429   5.053   1.777   3.406 -0.7519  0.3863 -0.1222
 1808TIP3    H1 5430   5.054   1.795   3.312 -0.4562 -1.4088 -0.5035
 1808TIP3    H2 5431   4.995   1.701   3.415  0.6501 -0.6041  0.8918
 1809TIP3   OH2 5432   3.777   1.023   1.775 -0.0925 -0.1773 -0.9214
 1809TIP3    H1 5433   3.830   1.101   1.764  0.4798  0.1954  3.0912
 1809TIP3    H2 5434   3.838   0.956   1.805 -1.4501 -0.1547  2.3050
 1810TIP3   OH2 5435   4.802   5.442   5.088  0.0726 -0.4760 -0.0064
 1810TIP3    H1 5436   4.850   5.375   5.040  1.5920  0.7490 -0.2765
 1810TIP3    H2 5437   4.870   5.502   5.120 -1.1800  0.6067  0.7243
 1811TIP3   OH2 5438   3.775   3.141   1.191  0.5375  0.1347  0.4449
 1811TIP3    H1 5439   3.803   3.110   1.104 -1.7477  0.1112 -0.3417
 1811TIP3    H2 5440   3.769   3.061   1.244  0.4251 -0.0505  0.1567
 1812TIP3   OH2 5441   4.855   0.040   4.094 -0.5041  0.1981  0.1854
 1812TIP3    H1 5442   4.876   0.133   4.086  0.7836 -0.0932 -0.0812
 1812TIP3    H2 5443   4.873   0.003   4.008  0.1860 -0.5150  0.6188
 1813TIP3   OH2 5444   0.078   1.905   4.054  0.1239  0.2815 -0.0535
 1813TIP3    H1 5445   0.048   1.830   4.002  0.3571  0.5422 -0.5628
 1813TIP3    H2 5446   0.134   1.955   3.995  1.6222 -0.2186  0.9043
 1814TIP3   OH2 5447   2.706   2.182   0.690  0.4919  0.3398  0.0083
 1814TIP3    H1 5448   2.653   2.121   0.741  2.8365 -1.0146  1.0311
 1814TIP3    H2 5449   2.758   2.229   0.756  2.0267  0.1156 -0.9981
 1815TIP3   OH2 5450   1.920   1.929   2.121 -0.0574  0.0162  0.2832
 1815TIP3    H1 5451   1.895   1.891   2.037  1.2014  0.4104 -0.2950
 1815TIP3    H2 5452   1.879   1.871   2.186 -1.3051 -0.1168 -0.5798
 1816TIP3   OH2 5453   0.509   1.627   1.520 -0.2769  0.1159  0.5024
 1816TIP3    H1 5454   0.575   1.584   1.466 -0.9186  2.1778 -2.1274
 1816TIP3    H2 5455   0.526   1.594   1.608  1.7083 -2.4089 -0.6728
 1817TIP3   OH2 5456   2.268   0.040   1.578  0.0840 -0.3100 -0.0135
 1817TIP3    H1 5457   2.237   0.085   1.656 -2.1028  0.6389 -1.3210
 1817TIP3    H2 5458   2.320   0.106   1.531 -0.8004 -0.0025 -0.5885
 1818TIP3   OH2 5459   4.447   1.442   2.822  0.1736  0.5715 -0.1928
 1818TIP3    H1 5460   4.506   1.368   2.806  0.6029  0.6681  0.9026
 1818TIP3    H2 5461   4.388   1.442   2.746  0.8377 -0.2418 -0.7250
 1819TIP3   OH2 5462   0.886   4.876   0.681  0.5638 -0.7880 -0.1073
 1819TIP3    H1 5463   0.891   4.865   0.776 -0.4738 -2.0767 -0.1681
 1819TIP3    H2 5464   0.888   4.971   0.667 -1.5467 -0.4467  1.3755
 1820TIP3   OH2 5465   4.725   4.093   3.339 -0.5205 -0.2336  0.1553
 1820TIP3    H1 5466   4.791   4.122   3.276  0.5014 -1.5672  0.5697
 1820TIP3    H2 5467   4.710   4.001   3.317 -0.1335 -0.7373  1.8463
 1821TIP3   OH2 5468   2.695   2.459   0.435 -0.0017  0.4299 -0.0740
 1821TIP3    H1 5469   2.787   2.483   0.429 -0.1327  0.7180 -1.0914
 1821TIP3    H2 5470   2.695   2.377   0.484  0.7840  0.4626 -0.0055
 1822TIP3   OH2 5471   2.184   3.100   0.984  0.2310  0.0165 -0.1164
 1822TIP3    H1 5472   2.109   3.148   0.951 -1.2992 -0.5567  2.2393
 1822TIP3    H2 5473   2.233   3.164   1.036 -0.8836 -0.4588  1.6214
 1823TIP3   OH2 5474   4.812   3.820   0.436  0.2032  0.1723  0.3759
 1823TIP3    H1 5475   4.865   3.740   0.438  2.2027  1.4550  1.5299
 1823TIP3    H2 5476   4.750   3.810   0.509  0.3497 -0.3650  0.4313
 1824TIP3   OH2 5477   5.564   0.351   0.470 -0.0765 -0.0640  0.4741
 1824TIP3    H1 5478   5.546   0.414   0.401  2.8677  0.7550  0.3394
 1824TIP3    H2 5479   5.479   0.339   0.514 -0.9665  3.2036 -0.1061
 1825TIP3   OH2 5480   4.141   4.209   2.386  0.0900  0.0229 -0.4513
 1825TIP3    H1 5481   4.057   4.192   2.343 -1.3454 -2.0174  2.7327
 1825TIP3    H2 5482   4.118   4.253   2.468  2.0760 -0.8014  0.6234
 1826TIP3   OH2 5483   3.201   0.536   2.823 -0.0139 -0.4719 -0.2255
 1826TIP3    H1 5484   3.257   0.510   2.897 -0.3785  0.1833  0.2934
 1826TIP3    H2 5485   3.149   0.458   2.804 -1.1615 -0.1549  1.3678
 1827TIP3   OH2 5486   4.069   5.276   3.117 -0.2756 -0.1379 -0.1038
 1827TIP3    H1 5487   4.136   5.313   3.059 -0.9406  1.2776 -0.0009
 1827TIP3    H2 5488   3.993   5.262   3.060 -0.5716  0.2451  0.1878
 1828TIP3   OH2 5489   5.715   4.772   3.632 -0.1897  0.0440  0.9034
 1828TIP3    H1 5490   5.692   4.848   3.685  3.2113  1.0896  1.0978
 1828TIP3    H2 5491   5.704   4.698   3.692 -0.9577  0.6682  1.5621
 1829TIP3   OH2 5492   2.151   2.499   1.895  0.1563 -0.0714 -0.3390
 1829TIP3    H1 5493   2.124   2.417   1.935  0.6762  0.2845  0.7851
 1829TIP3    H2 5494   2.070   2.546   1.877 -0.0934  0.6410  2.2392
 1830TIP3   OH2 5495   0.228   0.824   1.086 -0.0544  0.1583 -0.5013
 1830TIP3    H1 5496   0.254   0.909   1.122 -0.3737  0.0187  0.0756
 1830TIP3    H2 5497   0.156   0.844   1.026 -0.2617  0.2753 -0.2151
 1831TIP3   OH2 5498   6.209   4.081   4.117 -0.0277  0.1842  0.1127
 1831TIP3    H1 5499   6.251   4.061   4.201 -1.2643  1.6583  1.1571
 1831TIP3    H2 5500   6.196   4.176   4.119 -3.6305 -0.1558  0.0732
 1832TIP3   OH2 5501   6.187   1.179   1.087  0.5155  0.1190 -0.8677
 1832TIP3    H1 5502   6.214   1.139   1.004  2.8414  0.0064 -0.1219
 1832TIP3    H2 5503   6.141   1.259   1.060  0.4598 -0.3482 -2.2696
 1833TIP3   OH2 5504   3.603   2.054   0.618  0.0397  0.0549  0.1106
 1833TIP3    H1 5505   3.623   2.147   0.628 -0.8296  0.1999  0.5650
 1833TIP3    H2 5506   3.629   2.033   0.528  1.6954  0.3533  0.4816
 1834TIP3   OH2 5507   2.037   5.378   0.284  0.1022  0.3595 -0.3268
 1834TIP3    H1 5508   2.123   5.337   0.284  0.7530  1.6592 -1.8507
 1834TIP3    H2 5509   2.013   5.384   0.192 -1.2872  0.7380  0.0412
 1835TIP3   OH2 5510   2.237   5.777   2.337  0.4580  0.2808  0.2649
 1835TIP3    H1 5511   2.190   5.855   2.306 -0.4411 -0.4927 -0.3828
 1835TIP3    H2 5512   2.313   5.811   2.383 -0.1544  1.5562  0.3626
 1836TIP3   OH2 5513   2.298   3.067   0.524  0.2984  0.6534 -0.4822
 1836TIP3    H1 5514   2.270   3.151   0.561 -2.5758  0.0759 -1.1161
 1836TIP3    H2 5515   2.249   3.060   0.442 -1.2833 -2.5700  0.6002
 1837TIP3   OH2 5516   4.464   3.636   3.360 -0.1585  0.0196 -0.4817
 1837TIP3    H1 5517   4.454   3.642   3.455  1.3799 -1.1342 -0.1948
 1837TIP3    H2 5518   4.471   3.727   3.331  0.7347  0.3665  0.7104
 1838TIP3   OH2 5519   3.978   4.493   2.911  0.6616  0.3696 -0.1461
 1838TIP3    H1 5520   3.969   4.557   2.841 -1.1786 -0.1234 -0.4056
 1838TIP3    H2 5521   3.946   4.411   2.873 -0.9858  0.2219  1.4236
 1839TIP3   OH2 5522   4.642   0.537   1.768  0.0910 -0.1694  0.1556
 1839TIP3    H1 5523   4.687   0.609   1.812 -0.2033 -0.4888  0.9919
 1839TIP3    H2 5524   4.710   0.497   1.713  0.1260  1.0556 -0.7170
 1840TIP3   OH2 5525   2.385   0.014   4.371 -0.7200 -0.3461 -0.4719
 1840TIP3    H1 5526   2.293   0.002   4.393 -0.6845  1.1824  0.7120
 1840TIP3    H2 5527   2.406   0.102   4.403  1.0629 -0.5170 -1.0420
 1841TIP3   OH2 5528   3.969   1.000   1.359  0.2213 -0.7002  0.4090
 1841TIP3    H1 5529   4.022   1.077   1.343 -0.4754 -0.3477 -0.2961
 1841TIP3    H2 5530   3.962   0.957   1.273 -0.1856 -1.0204  0.5953
 1842TIP3   OH2 5531   6.134   5.927   0.043 -0.5521 -0.2586  0.7524
 1842TIP3    H1 5532   6.151   5.835   0.025 -1.3486  0.1089 -2.4725
 1842TIP3    H2 5533   6.211   5.957   0.091  0.3743 -2.2833  0.6086
 1843TIP3   OH2 5534   1.994   2.224   2.284  0.2786 -0.1677  0.1150
 1843TIP3    H1 5535   2.061   2.230   2.353 -1.1011 -0.0314  1.5043
 1843TIP3    H2 5536   2.000   2.133   2.253  0.3035 -0.5253  1.1099
 1844TIP3   OH2 5537   5.576   0.982   0.929 -0.4034 -0.1448 -0.3900
 1844TIP3    H1 5538   5.546   0.953   0.843  1.3801  0.0486 -1.1214
 1844TIP3    H2 5539   5.525   1.060   0.948 -0.1313  0.3655 -1.7292
 1845TIP3   OH2 5540   3.770   2.629   2.700 -0.2346  0.1283  0.2456
 1845TIP3    H1 5541   3.758   2.538   2.729 -0.9314  0.0376 -0.3016
 1845TIP3    H2 5542   3.721   2.635   2.618  0.6050  0.7429 -0.2312
 1846TIP3   OH2 5543   4.745   5.225   3.857 -0.3716  0.1409 -0.2109
 1846TIP3    H1 5544   4.835   5.242   3.827 -0.1388 -0.1057  0.3402
 1846TIP3    H2 5545   4.755   5.171   3.935 -0.9149  1.8208  1.0701
 1847TIP3   OH2 5546   5.939   4.469   2.206  0.0307  0.3178 -0.4147
 1847TIP3    H1 5547   5.998   4.533   2.246  1.0829 -1.4594  1.0107
 1847TIP3    H2 5548   5.973   4.456   2.118  2.1289 -0.9822  0.5139
 1848TIP3   OH2 5549   1.903   2.835   2.973  0.3907  0.1492 -0.1508
 1848TIP3    H1 5550   1.847   2.847   2.897  0.3607 -0.0029 -0.1525
 1848TIP3    H2 5551   1.981   2.791   2.940  0.2673 -0.1470 -0.0489
 1849TIP3   OH2 5552   4.604   5.837   2.932 -0.0157 -0.4596  0.0183
 1849TIP3    H1 5553   4.689   5.858   2.893  0.0594 -1.7920 -0.5833
 1849TIP3    H2 5554   4.540   5.867   2.867  0.0734 -1.5861 -0.5992
 1850TIP3   OH2 5555   4.907   3.202   1.828  0.2211  0.2151  0.2754
 1850TIP3    H1 5556   4.850   3.184   1.753 -0.9467  3.1507  0.3147
 1850TIP3    H2 5557   4.991   3.227   1.789  0.7775 -1.7088  0.1378
 1851TIP3   OH2 5558   5.406   0.569   2.657  0.3905 -1.0664  0.1736
 1851TIP3    H1 5559   5.343   0.598   2.723  0.2814  0.9061 -0.7354
 1851TIP3    H2 5560   5.485   0.548   2.707  0.4627  0.8464  0.9194
 1852TIP3   OH2 5561   3.703   1.267   3.457  0.0577  0.6891 -0.1100
 1852TIP3    H1 5562   3.639   1.238   3.392  1.5282 -0.3079 -1.1796
 1852TIP3    H2 5563   3.692   1.206   3.530 -1.5046  1.7250  0.5703
 1853TIP3   OH2 5564   5.875   4.509   0.974 -0.0472  0.2495  0.1049
 1853TIP3    H1 5565   5.780   4.501   0.982 -0.1223  0.7859 -0.2033
 1853TIP3    H2 5566   5.889   4.596   0.937  0.5565  0.0902 -0.0536
 1854TIP3   OH2 5567   3.498   1.826   1.303  0.2353 -0.0637 -0.2982
 1854TIP3    H1 5568   3.411   1.799   1.332  0.4553 -0.6492 -0.1713
 1854TIP3    H2 5569   3.515   1.908   1.350  0.1114 -0.3990  0.3274
 1855TIP3   OH2 5570   4.033   3.067   4.333  0.1378 -0.0882 -0.1238
 1855TIP3    H1 5571   4.020   3.113   4.416 -0.4038 -0.1095 -0.1961
 1855TIP3    H2 5572   4.057   2.978   4.359  0.0120 -0.0842  0.0104
 1856TIP3   OH2 5573   2.776   1.303   2.234 -0.3214 -0.3234 -0.0656
 1856TIP3    H1 5574   2.850   1.319   2.174  0.1256  0.0005  0.5622
 1856TIP3    H2 5575   2.715   1.374   2.217  0.8842  1.1653  1.5151
 1857TIP3   OH2 5576   1.480   3.692   4.756  0.6096 -0.1215 -0.4904
 1857TIP3    H1 5577   1.396   3.738   4.760  0.9234  0.3805  1.4073
 1857TIP3    H2 5578   1.512   3.693   4.846  1.3402 -2.7765 -0.6331
 1858TIP3   OH2 5579   2.676   5.046   3.146 -0.3683 -0.0744 -0.0573
 1858TIP3    H1 5580   2.584   5.029   3.125 -0.0142 -1.3648 -0.6813
 1858TIP3    H2 5581   2.698   4.979   3.211 -0.0679  0.7480  0.7263
 1859TIP3   OH2 5582   3.096   5.752   1.310 -0.2592 -0.0745  0.1824
 1859TIP3    H1 5583   3.107   5.784   1.221 -0.3849 -0.5504 -0.0096
 1859TIP3    H2 5584   3.171   5.786   1.358  0.9400 -1.5153 -0.5914
 1860TIP3   OH2 5585   3.899   5.371   4.828  0.3141  0.2756 -0.3694
 1860TIP3    H1 5586   3.868   5.296   4.879 -2.3302 -0.1724 -2.3887
 1860TIP3    H2 5587   3.870   5.447   4.878  0.7665 -0.0641  0.4350
 1861TIP3   OH2 5588   3.885   3.264   2.253  0.3023  0.3883  0.2492
 1861TIP3    H1 5589   3.822   3.329   2.222  0.2115  0.7305  1.1171
 1861TIP3    H2 5590   3.830   3.191   2.284  0.4113 -0.2393 -0.9929
 1862TIP3   OH2 5591   5.177   3.606   1.321  0.4150 -0.6730  0.6091
 1862TIP3    H1 5592   5.219   3.690   1.339  0.0919  0.1512 -2.0562
 1862TIP3    H2 5593   5.246   3.542   1.336  1.8065  0.4124 -0.8016
 1863TIP3   OH2 5594   4.038   2.087   1.213 -0.0599 -0.1506 -0.3367
 1863TIP3    H1 5595   4.102   2.018   1.229  0.2011  0.3241  0.8459
 1863TIP3    H2 5596   4.089   2.158   1.173  0.3184  0.4525  1.1422
 1864TIP3   OH2 5597   5.532   1.995   0.138 -0.5115  0.1404  0.4840
 1864TIP3    H1 5598   5.560   2.069   0.084  0.0693 -1.0211 -0.8692
 1864TIP3    H2 5599   5.519   1.923   0.076  0.1146 -1.2366  1.8680
 1865TIP3   OH2 5600   4.469   1.438   4.921  0.1090  0.5467 -0.1444
 1865TIP3    H1 5601   4.470   1.473   5.010  1.1033  0.2709 -0.0304
 1865TIP3    H2 5602   4.476   1.515   4.864 -0.2647  0.7029  0.0172
 1866TIP3   OH2 5603   5.307   0.699   5.059  0.2069  0.1275 -0.2343
 1866TIP3    H1 5604   5.300   0.622   5.116  0.0143  1.6629  1.9438
 1866TIP3    H2 5605   5.364   0.671   4.987 -2.0368 -2.8440 -1.0522
 1867TIP3   OH2 5606   5.315   0.933   4.345 -0.3292 -0.0157  0.3090
 1867TIP3    H1 5607   5.326   0.917   4.439 -2.2188  1.8970  0.9409
 1867TIP3    H2 5608   5.249   0.869   4.318  1.3783 -1.6509 -0.1334
 1868TIP3   OH2 5609   5.867   4.025   1.747  0.5752  0.0389  0.0676
 1868TIP3    H1 5610   5.912   4.106   1.772  2.6317 -1.1323  0.4345
 1868TIP3    H2 5611   5.838   3.986   1.829  0.7431 -0.2213  0.0045
 1869TIP3   OH2 5612   5.091   0.805   0.776 -0.2731  0.3752 -0.1785
 1869TIP3    H1 5613   5.145   0.879   0.802  0.5332 -0.5899  1.0097
 1869TIP3    H2 5614   5.029   0.794   0.847  0.6803 -1.0803  0.4836
 1870TIP3   OH2 5615   5.520   3.506   0.084 -0.6022 -0.2980  0.0235
 1870TIP3    H1 5616   5.444   3.523   0.028 -0.2110  0.3332 -0.3289
 1870TIP3    H2 5617   5.510   3.568   0.157 -0.6559 -0.5147  0.1995
 1871TIP3   OH2 5618   0.663   0.249   4.103  0.1810  0.3404  0.2187
 1871TIP3    H1 5619   0.729   0.208   4.047  0.5031 -0.9822  1.5066
 1871TIP3    H2 5620   0.650   0.187   4.174 -1.9268  0.9240  0.3964
 1872TIP3   OH2 5621   1.174   2.181   3.092  0.3832  0.0392  0.5330
 1872TIP3    H1 5622   1.191   2.113   3.026  0.3069 -0.3659  0.9218
 1872TIP3    H2 5623   1.131   2.251   3.043 -1.8066 -1.1830  0.5278
 1873TIP3   OH2 5624   2.664   3.528   4.332 -0.3404  0.3213 -0.6323
 1873TIP3    H1 5625   2.703   3.554   4.416  0.9038 -2.7528 -0.1122
 1873TIP3    H2 5626   2.725   3.559   4.266  1.0424 -1.0673 -0.0626
 1874TIP3   OH2 5627   2.629   5.650   0.893 -0.7581 -0.1532  0.1468
 1874TIP3    H1 5628   2.702   5.636   0.953 -1.9351 -0.2764  1.6151
 1874TIP3    H2 5629   2.668   5.643   0.805  1.0486  0.2694  0.8759
 1875TIP3   OH2 5630   3.797   3.765   2.966 -0.2724  0.0161  0.1685
 1875TIP3    H1 5631   3.775   3.674   2.945  0.6849  0.1025 -1.3102
 1875TIP3    H2 5632   3.851   3.759   3.045 -1.4903 -0.5497  1.0012
 1876TIP3   OH2 5633   2.112   1.426   2.215  0.5531  0.3938  0.4191
 1876TIP3    H1 5634   2.198   1.463   2.232  0.0800  0.5929  2.8108
 1876TIP3    H2 5635   2.129   1.336   2.187  1.5471  0.6143  0.3010
 1877TIP3   OH2 5636   5.918   4.573   3.573  0.3640 -0.6065 -0.2372
 1877TIP3    H1 5637   5.893   4.530   3.655 -0.2408  0.4276  0.1433
 1877TIP3    H2 5638   5.858   4.647   3.565  0.8815 -0.2670 -1.2575
 1878TIP3   OH2 5639   6.086   2.245   4.609 -0.1290 -0.0794 -0.2037
 1878TIP3    H1 5640   6.052   2.160   4.584 -0.8804 -0.3963  1.6976
 1878TIP3    H2 5641   6.177   2.229   4.632 -0.5422 -0.6258  1.1580
 1879TIP3   OH2 5642   1.368   5.912   1.205  0.1457  0.0522  0.0157
 1879TIP3    H1 5643   1.457   5.942   1.219 -0.1844  2.4253 -2.1643
 1879TIP3    H2 5644   1.336   5.888   1.292  2.5628  0.0536  0.9600
 1880TIP3   OH2 5645   1.348   2.148   4.886 -0.0171  0.2881  0.0498
 1880TIP3    H1 5646   1.281   2.084   4.908 -0.8060  0.7930 -0.8267
 1880TIP3    H2 5647   1.420   2.096   4.850 -0.9397 -0.0909 -1.3525
 1881TIP3   OH2 5648   3.935   1.334   1.471  0.4698 -0.0513  0.0677
 1881TIP3    H1 5649   4.013   1.297   1.514 -1.3854 -1.0486  2.8300
 1881TIP3    H2 5650   3.902   1.262   1.417  0.3965 -0.2776  0.4113
 1882TIP3   OH2 5651   1.225   3.417   3.992  0.2960 -0.1638 -0.0296
 1882TIP3    H1 5652   1.149   3.373   4.032 -0.3291 -0.5567 -1.5831
 1882TIP3    H2 5653   1.238   3.372   3.909  1.1695  1.0274 -0.5703
 1883TIP3   OH2 5654   2.991   1.363   0.580 -0.5311 -0.8419  0.3568
 1883TIP3    H1 5655   3.056   1.368   0.649 -0.2089 -0.8639  0.0599
 1883TIP3    H2 5656   2.946   1.447   0.583  0.9114  0.0202 -0.7825
 1884TIP3   OH2 5657   0.787   5.484   1.756  0.3075 -0.0098 -0.0608
 1884TIP3    H1 5658   0.814   5.503   1.666  0.2426  0.8949  0.1074
 1884TIP3    H2 5659   0.697   5.515   1.761  0.5539  0.6311  0.5288
 1885TIP3   OH2 5660   6.034   0.044   2.401  0.2261 -0.5620  0.4566
 1885TIP3    H1 5661   5.982   0.079   2.474 -1.3214  1.1547 -1.3574
 1885TIP3    H2 5662   6.031   0.113   2.335  1.1077 -2.2785 -1.4671
 1886TIP3   OH2 5663   5.029   0.587   3.308 -0.0978  0.0480 -0.2651
 1886TIP3    H1 5664   5.004   0.550   3.392  0.5979 -0.5904 -0.3337
 1886TIP3    H2 5665   5.123   0.573   3.302  0.0349  1.0323 -0.6920
 1887TIP3   OH2 5666   2.127   0.350   1.221  0.5538 -0.5333 -0.5568
 1887TIP3    H1 5667   2.196   0.416   1.211  0.7415 -0.8865 -1.7360
 1887TIP3    H2 5668   2.050   0.390   1.182  0.4304 -0.6613 -0.4425
 1888TIP3   OH2 5669   1.279   1.652   4.289 -0.1137  0.0123 -0.1257
 1888TIP3    H1 5670   1.311   1.738   4.319 -0.1387  0.2205 -0.6756
 1888TIP3    H2 5671   1.349   1.591   4.313 -0.6204 -0.0283  1.3782
 1889TIP3   OH2 5672   3.486   4.868   1.726 -0.0248  0.3524 -0.4068
 1889TIP3    H1 5673   3.536   4.887   1.646  0.1873 -0.3953 -0.4630
 1889TIP3    H2 5674   3.413   4.930   1.724  1.5304  2.3422  0.2879
 1890TIP3   OH2 5675   2.623   4.567   1.744 -0.1760  0.0100  0.0438
 1890TIP3    H1 5676   2.700   4.530   1.701  0.9993  1.5922  0.6862
 1890TIP3    H2 5677   2.557   4.573   1.675  0.7144 -0.1345 -0.8445
 1891TIP3   OH2 5678   3.575   5.743   0.692  0.0102 -0.1288  0.0978
 1891TIP3    H1 5679   3.578   5.677   0.762  1.6038 -1.6441 -1.3160
 1891TIP3    H2 5680   3.537   5.821   0.734 -0.1731 -1.3407  2.3197
 1892TIP3   OH2 5681   0.569   5.276   5.158 -0.7106  0.1408 -0.4278
 1892TIP3    H1 5682   0.582   5.313   5.246 -0.0267 -1.2634  0.1005
 1892TIP3    H2 5683   0.651   5.296   5.112 -0.2140 -0.9086 -0.0425
 1893TIP3   OH2 5684   2.676   2.178   0.297 -0.0671 -0.2549  0.0503
 1893TIP3    H1 5685   2.712   2.095   0.330 -1.1843 -1.3633 -1.4091
 1893TIP3    H2 5686   2.591   2.186   0.340  0.8588  1.1866  1.7118
 1894TIP3   OH2 5687   4.902   0.369   3.462  0.4151  0.1610  0.5028
 1894TIP3    H1 5688   4.909   0.399   3.553  0.1056  1.7794  0.0252
 1894TIP3    H2 5689   4.813   0.334   3.455  0.6563 -0.5856  0.9664
 1895TIP3   OH2 5690   4.885   3.923   1.859 -0.3145 -0.3034  0.2886
 1895TIP3    H1 5691   4.941   3.856   1.899 -1.7887 -0.0213  3.1273
 1895TIP3    H2 5692   4.803   3.877   1.840 -0.9185  0.4033  1.1329
 1896TIP3   OH2 5693   3.971   4.134   4.506  0.2225  0.2526 -0.2478
 1896TIP3    H1 5694   3.965   4.075   4.431  1.6014  0.0005 -0.1868
 1896TIP3    H2 5695   3.927   4.088   4.577 -0.0271 -0.0415 -0.5910
 1897TIP3   OH2 5696   0.080   2.152   2.380 -0.1229 -0.1509 -0.3123
 1897TIP3    H1 5697   0.119   2.238   2.364 -1.2530  0.1645 -1.5731
 1897TIP3    H2 5698   0.089   2.106   2.296 -0.8425 -0.7198 -0.0852
 1898TIP3   OH2 5699   3.088   4.723   3.312  0.2934 -0.6530  0.3303
 1898TIP3    H1 5700   3.143   4.696   3.385 -0.4328 -0.8367  0.8148
 1898TIP3    H2 5701   3.000   4.730   3.349  0.0555  0.0431 -0.3353
 1899TIP3   OH2 5702   0.831   0.094   3.541  0.9343  0.3220  0.4621
 1899TIP3    H1 5703   0.762   0.155   3.515  1.1035 -0.0671 -1.0170
 1899TIP3    H2 5704   0.854   0.119   3.630  1.4854  2.8850 -0.3185
 1900TIP3   OH2 5705   3.075   4.241   1.818  0.0722  0.0353 -0.2826
 1900TIP3    H1 5706   3.142   4.271   1.757 -2.3232  2.8535 -1.7918
 1900TIP3    H2 5707   3.048   4.156   1.784  0.2399  0.6179 -1.9570
 1901TIP3   OH2 5708   3.104   0.618   0.510  0.3148 -0.8527 -0.0649
 1901TIP3    H1 5709   3.123   0.685   0.576  0.3974 -1.1229  0.1890
 1901TIP3    H2 5710   3.140   0.653   0.429 -2.6464  1.0223 -0.7387
 1902TIP3   OH2 5711   0.724   0.955   1.439  0.2246 -0.2853 -0.4127
 1902TIP3    H1 5712   0.675   0.885   1.395  0.7619 -0.7165 -0.3358
 1902TIP3    H2 5713   0.761   0.914   1.516  0.2125  0.1939 -0.1453
 1903TIP3   OH2 5714   5.549   5.950   4.877  0.0870 -0.7693  0.3053
 1903TIP3    H1 5715   5.617   6.016   4.888 -0.2687 -0.1666 -0.8616
 1903TIP3    H2 5716   5.561   5.890   4.950  1.1790 -0.0751  0.7211
 1904TIP3   OH2 5717   0.623   0.440   0.916  0.3962  0.7943  0.3969
 1904TIP3    H1 5718   0.629   0.532   0.889  1.3431  1.2353  1.9785
 1904TIP3    H2 5719   0.647   0.391   0.838 -2.3624  1.7448 -1.1964
 1905TIP3   OH2 5720   2.621   0.060   1.885  0.4760 -0.3048  0.2550
 1905TIP3    H1 5721   2.644   0.141   1.931 -1.1251  1.4353 -1.7536
 1905TIP3    H2 5722   2.528   0.071   1.863  0.8523 -1.5091 -2.3039
 1906TIP3   OH2 5723   3.770   4.292   0.383  0.5776 -0.0963  0.6951
 1906TIP3    H1 5724   3.734   4.204   0.386 -0.3813  0.2876  0.8661
 1906TIP3    H2 5725   3.864   4.280   0.393  0.5255 -1.1435  0.0199
 1907TIP3   OH2 5726   4.072   2.025   4.057 -0.1968  0.1005 -0.4334
 1907TIP3    H1 5727   4.132   1.989   3.992  0.5625  1.4853 -0.5329
 1907TIP3    H2 5728   4.022   1.949   4.088  1.5107 -1.0814 -0.4277
 1908TIP3   OH2 5729   5.809   2.178   0.839  0.0948 -0.0110  0.6841
 1908TIP3    H1 5730   5.731   2.221   0.805  0.9417  1.3292  0.3564
 1908TIP3    H2 5731   5.857   2.150   0.762  0.6631  0.5346  0.8275
 1909TIP3   OH2 5732   0.531   2.882   1.804  0.1100  0.1101  0.1013
 1909TIP3    H1 5733   0.566   2.941   1.870  1.4379 -0.8157  0.2649
 1909TIP3    H2 5734   0.604   2.868   1.743 -0.7461  0.0838 -0.9644
 1910TIP3   OH2 5735   3.986   5.215   3.931 -0.3864  0.2990 -0.1213
 1910TIP3    H1 5736   4.047   5.287   3.915 -0.7494  1.0897  1.8254
 1910TIP3    H2 5737   3.913   5.232   3.871  0.5602  0.2362 -1.3171
 1911TIP3   OH2 5738   5.887   5.081   0.742  0.0627 -0.4290  0.0251
 1911TIP3    H1 5739   5.892   5.056   0.834 -0.1196  1.6646  0.6599
 1911TIP3    H2 5740   5.977   5.101   0.717 -0.1067  0.8699  0.3591
 1912TIP3   OH2 5741   4.223   4.025   1.963 -0.1927  0.1549  0.0361
 1912TIP3    H1 5742   4.312   4.052   1.985 -0.6232  1.7752 -0.0724
 1912TIP3    H2 5743   4.189   3.989   2.045  0.5816 -0.5910  0.0484
 1913TIP3   OH2 5744   4.142   3.460   4.790  0.1724  0.0079  0.1366
 1913TIP3    H1 5745   4.206   3.421   4.731 -0.2743 -0.9142  0.2482
 1913TIP3    H2 5746   4.109   3.387   4.842  0.4831  0.7732  1.4740
 1914TIP3   OH2 5747   5.106   1.960   0.903  0.3634  0.3576  0.0924
 1914TIP3    H1 5748   5.042   1.977   0.972 -2.4271 -2.5503 -1.5152
 1914TIP3    H2 5749   5.114   2.043   0.856 -0.2100  1.4704  1.8810
 1915TIP3   OH2 5750   0.799   0.401   0.260  0.0020  0.1911 -0.3864
 1915TIP3    H1 5751   0.802   0.358   0.174  0.7281 -0.0610 -0.2448
 1915TIP3    H2 5752   0.891   0.410   0.285 -0.1382  1.7434 -0.3504
 1916TIP3   OH2 5753   1.693   3.379   3.381 -0.1178  0.0793 -0.1331
 1916TIP3    H1 5754   1.651   3.458   3.413  0.7606  0.2663  0.6291
 1916TIP3    H2 5755   1.777   3.409   3.346  0.2894 -0.5298  0.3069
 1917TIP3   OH2 5756   0.800   0.847   2.997 -0.1229 -0.1119  0.2279
 1917TIP3    H1 5757   0.828   0.932   2.963 -1.1121  0.4247  0.7124
 1917TIP3    H2 5758   0.707   0.859   3.017 -0.6014 -1.6872 -0.8874
 1918TIP3   OH2 5759   4.780   5.946   0.905  0.4558  0.0239 -0.1824
 1918TIP3    H1 5760   4.848   6.013   0.910 -0.7689  1.2293  2.1729
 1918TIP3    H2 5761   4.731   5.955   0.988 -1.2787 -2.1567 -0.8636
 1919TIP3   OH2 5762   2.340   0.964   0.799  0.1327 -0.7406 -0.4800
 1919TIP3    H1 5763   2.307   0.990   0.713 -0.5665  0.9782  0.2529
 1919TIP3    H2 5764   2.261   0.944   0.849  0.1718  1.8919  0.8217
 1920TIP3   OH2 5765   5.505   2.793   0.709 -0.3332 -0.3108 -0.2080
 1920TIP3    H1 5766   5.489   2.862   0.645 -0.5587  0.1825  0.3678
 1920TIP3    H2 5767   5.596   2.804   0.735 -0.2907 -0.4003 -0.3208
 1921TIP3   OH2 5768   4.783   5.260   2.724 -0.1461 -0.4667 -0.4895
 1921TIP3    H1 5769   4.770   5.297   2.811  0.3355 -2.5703  0.5425
 1921TIP3    H2 5770   4.877   5.270   2.707 -0.2422 -0.0436 -0.7895
 1922TIP3   OH2 5771   0.792   2.199   1.373  0.4358 -0.5217 -0.4494
 1922TIP3    H1 5772   0.853   2.253   1.321  2.3552 -1.9434  0.2067
 1922TIP3    H2 5773   0.803   2.111   1.338 -0.6615 -0.9588  0.2694
 1923TIP3   OH2 5774   4.902   2.257   4.603 -0.1746  0.1520  0.0722
 1923TIP3    H1 5775   4.964   2.293   4.540  0.6002 -1.8967 -0.4077
 1923TIP3    H2 5776   4.956   2.215   4.670 -0.9891 -1.7414 -0.3950
 1924TIP3   OH2 5777   3.998   0.261   3.280 -0.3171 -0.2114 -0.0270
 1924TIP3    H1 5778   3.947   0.342   3.283 -0.0461  0.0550 -1.8942
 1924TIP3    H2 5779   3.933   0.192   3.264 -0.1680  0.1037 -2.1923
 1925TIP3   OH2 5780   5.015   3.388   4.088 -0.6017  0.0295  0.4447
 1925TIP3    H1 5781   4.935   3.438   4.103  1.0131  2.0446  3.4975
 1925TIP3    H2 5782   5.006   3.310   4.141 -1.8041 -1.5204 -1.8608
 1926TIP3   OH2 5783   1.989   4.840  -0.001 -0.5008  0.1471  0.5794
 1926TIP3    H1 5784   2.049   4.902   0.041  1.0832 -0.8894 -0.0322
 1926TIP3    H2 5785   1.908   4.846   0.049 -0.4346  2.7273  0.5082
 1927TIP3   OH2 5786   3.997   4.858   2.298  0.2054 -0.1255  0.1158
 1927TIP3    H1 5787   3.904   4.864   2.316  0.3748  1.0587  0.7080
 1927TIP3    H2 5788   4.024   4.774   2.335 -0.4926 -0.1533  0.5783
 1928TIP3   OH2 5789   2.882   2.021   4.872 -0.0428 -0.0025  0.4415
 1928TIP3    H1 5790   2.923   2.099   4.835 -0.8362 -0.4158 -1.4036
 1928TIP3    H2 5791   2.837   1.980   4.798  1.2943 -2.8574  1.0713
 1929TIP3   OH2 5792   3.727   0.015   4.042  0.4083 -0.1242  0.0621
 1929TIP3    H1 5793   3.786   0.082   4.006 -1.0228  0.9245 -0.3969
 1929TIP3    H2 5794   3.680   0.060   4.112  0.1828 -0.9610  0.4569
 1930TIP3   OH2 5795   5.631   5.763   0.748 -0.3194  0.3232 -0.1621
 1930TIP3    H1 5796   5.621   5.673   0.716 -1.4977  0.0360  0.9221
 1930TIP3    H2 5797   5.686   5.756   0.825 -0.6670  0.4739  0.1065
 1931TIP3   OH2 5798   5.051   3.610   5.057  0.1274  0.2018 -0.1531
 1931TIP3    H1 5799   5.005   3.637   5.136  0.6094  0.1340  0.1584
 1931TIP3    H2 5800   5.096   3.689   5.027  1.7337 -0.2565  0.8939
 1932TIP3   OH2 5801   2.868   3.469   4.055  0.5800 -0.2834  0.1556
 1932TIP3    H1 5802   2.872   3.534   3.985 -2.3874 -0.3186 -0.2027
 1932TIP3    H2 5803   2.931   3.500   4.120  2.1164  0.7379 -1.6928
 1933TIP3   OH2 5804   2.806   3.566   2.588 -0.3859  0.1852 -0.5311
 1933TIP3    H1 5805   2.761   3.488   2.621  1.0541 -1.3177 -1.9227
 1933TIP3    H2 5806   2.794   3.563   2.493  0.2321  1.3210 -0.6605
 1934TIP3   OH2 5807   5.266   2.560   3.475  0.2262  0.3313 -1.1250
 1934TIP3    H1 5808   5.313   2.516   3.546  0.5309  2.2486 -0.0942
 1934TIP3    H2 5809   5.335   2.594   3.418  0.0186  0.7239 -1.1389
 1935TIP3   OH2 5810   2.962   5.402   3.591  0.2214 -0.1381 -0.7619
 1935TIP3    H1 5811   2.915   5.349   3.655  0.3295  1.6890  0.9422
 1935TIP3    H2 5812   2.912   5.391   3.510 -2.0346  0.1574  0.4929
 1936TIP3   OH2 5813   0.936   2.445   2.050 -0.0525  0.1735  0.5302
 1936TIP3    H1 5814   0.948   2.534   2.081  0.0890  0.1708  0.4831
 1936TIP3    H2 5815   0.898   2.454   1.963  1.1337  0.2177 -0.0085
 1937TIP3   OH2 5816   5.834   0.161   2.551  0.2349  0.1300  0.0804
 1937TIP3    H1 5817   5.812   0.083   2.601  0.0843 -2.0071 -3.0203
 1937TIP3    H2 5818   5.754   0.182   2.503  0.9988  0.6770 -0.9883
 1938TIP3   OH2 5819   0.570   4.675   0.766 -0.1148 -0.4388  0.0424
 1938TIP3    H1 5820   0.527   4.599   0.804  0.7143 -0.8845  0.0811
 1938TIP3    H2 5821   0.587   4.733   0.840  1.1973 -1.1608  0.3328
 1939TIP3   OH2 5822   1.986   3.679   1.343 -0.4589 -0.0106 -0.4872
 1939TIP3    H1 5823   1.990   3.749   1.408 -0.0221  0.5214 -1.0737
 1939TIP3    H2 5824   1.893   3.670   1.322 -0.6356 -0.4112  0.4457
 1940TIP3   OH2 5825   2.465   1.341   2.906 -0.0588 -0.1875  0.1644
 1940TIP3    H1 5826   2.480   1.290   2.986 -0.8325 -1.5894 -0.5448
 1940TIP3    H2 5827   2.372   1.327   2.887  0.2648 -0.4055 -1.3305
 1941TIP3   OH2 5828   0.124   1.766   0.729 -0.0117 -0.5330 -0.6062
 1941TIP3    H1 5829   0.163   1.789   0.645  1.2575  1.6075  0.4840
 1941TIP3    H2 5830   0.186   1.799   0.794 -1.5990 -0.9206  1.1944
 1942TIP3   OH2 5831   1.795   3.234   5.049 -0.2055 -0.0948  0.2430
 1942TIP3    H1 5832   1.779   3.201   5.138  0.6557  0.6341  0.6727
 1942TIP3    H2 5833   1.781   3.158   4.993 -2.0022 -0.2793  0.8707
 1943TIP3   OH2 5834   0.507   2.062   1.213  0.2750 -0.3380 -0.1473
 1943TIP3    H1 5835   0.519   2.013   1.132 -1.6867  0.4421 -0.9756
 1943TIP3    H2 5836   0.589   2.049   1.262  1.2039 -1.4355 -1.9026
 1944TIP3   OH2 5837   0.914   3.449   0.094  0.1852  0.0443 -0.8769
 1944TIP3    H1 5838   0.864   3.510   0.148  1.3696 -0.2700  0.6509
 1944TIP3    H2 5839   0.863   3.368   0.095  0.7507 -0.3258  0.8008
 1945TIP3   OH2 5840   6.303   2.202   4.106  0.3868  0.6374  0.2714
 1945TIP3    H1 5841   6.373   2.258   4.071  1.4709  0.4168  1.9523
 1945TIP3    H2 5842   6.313   2.208   4.201 -1.3627 -0.0994  0.5411
 1946TIP3   OH2 5843   4.519   3.132   0.821 -0.4609  0.7766 -0.0875
 1946TIP3    H1 5844   4.485   3.052   0.862  0.1323  0.4330 -0.2562
 1946TIP3    H2 5845   4.612   3.113   0.805 -0.1539  1.7447  0.4861
 1947TIP3   OH2 5846   5.236   0.050   4.169  0.4171 -0.4617 -0.0025
 1947TIP3    H1 5847   5.164   0.091   4.121  0.3035 -0.3046  0.3029
 1947TIP3    H2 5848   5.208   0.049   4.260 -0.2893 -2.7248 -0.1897
 1948TIP3   OH2 5849   1.196   3.278   2.471  0.6233  0.2542 -0.2097
 1948TIP3    H1 5850   1.170   3.269   2.379 -0.7643  0.8317  0.1024
 1948TIP3    H2 5851   1.254   3.353   2.472  2.1596 -0.8780 -0.8842
 1949TIP3   OH2 5852   5.191   4.666   3.073  0.6248 -0.4253 -0.3092
 1949TIP3    H1 5853   5.110   4.698   3.032 -0.7481 -0.1638  2.3427
 1949TIP3    H2 5854   5.233   4.612   3.006 -1.1070  0.4387 -2.1970
 1950TIP3   OH2 5855   4.304   5.999   4.791 -0.2150  0.2529  0.1319
 1950TIP3    H1 5856   4.301   5.911   4.828  2.1022  1.0598  2.5849
 1950TIP3    H2 5857   4.358   5.990   4.712 -0.1055 -0.5293  0.2896
 1951TIP3   OH2 5858   1.365   0.967   0.774 -0.8687 -0.1684  0.3927
 1951TIP3    H1 5859   1.437   0.997   0.718 -1.5383 -0.6564 -0.7729
 1951TIP3    H2 5860   1.297   1.034   0.763 -0.6290  0.2747  1.4626
 1952TIP3   OH2 5861   3.874   0.227   1.900  0.1324  0.3768 -0.1355
 1952TIP3    H1 5862   3.868   0.320   1.923 -2.0528 -0.0408  1.2182
 1952TIP3    H2 5863   3.812   0.216   1.828 -1.1013 -0.3533  0.9946
 1953TIP3   OH2 5864   3.614   2.744   4.678  0.5927 -0.6893 -0.1663
 1953TIP3    H1 5865   3.539   2.787   4.637 -0.6919 -1.3577  1.4039
 1953TIP3    H2 5866   3.621   2.660   4.633 -0.8197 -1.4276  0.9336
 1954TIP3   OH2 5867   3.619   4.381   4.996 -0.1117 -0.1519 -0.1629
 1954TIP3    H1 5868   3.585   4.414   5.079  1.0289  1.9205 -0.4758
 1954TIP3    H2 5869   3.547   4.328   4.961 -1.5194  0.8795  1.0386
 1955TIP3   OH2 5870   2.064   3.432   4.205 -0.0386 -0.2393 -0.0721
 1955TIP3    H1 5871   2.032   3.522   4.197 -1.6597 -0.8424 -0.8505
 1955TIP3    H2 5872   2.112   3.417   4.123  0.3871 -0.0401  0.1361
 1956TIP3   OH2 5873   2.184   2.039   3.949  0.1250  0.3804 -0.3015
 1956TIP3    H1 5874   2.116   2.052   3.882  0.0212 -0.1012 -0.2944
 1956TIP3    H2 5875   2.159   1.957   3.993  0.0228  0.8497  0.5337
 1957TIP3   OH2 5876   2.523   2.556   4.240  0.0314  0.2513 -0.0342
 1957TIP3    H1 5877   2.523   2.475   4.189  0.3698 -0.1327  0.5646
 1957TIP3    H2 5878   2.615   2.577   4.251 -0.0581  0.7919 -0.2880
 1958TIP3   OH2 5879   1.266   2.198   3.405  0.4577 -0.1039 -0.7006
 1958TIP3    H1 5880   1.249   2.179   3.312 -2.5766 -1.0733 -0.0506
 1958TIP3    H2 5881   1.211   2.274   3.424 -0.9232 -1.4306  0.8411
 1959TIP3   OH2 5882   2.035   2.636   1.102 -0.2467  0.1720  0.4149
 1959TIP3    H1 5883   2.051   2.639   1.196  2.1818 -1.0886  0.1086
 1959TIP3    H2 5884   2.035   2.728   1.075 -0.8158  0.5366  1.6028
 1960TIP3   OH2 5885   2.000   1.608   2.389  0.7150 -0.3228 -0.2713
 1960TIP3    H1 5886   2.010   1.548   2.463 -1.0340 -0.6240 -0.2171
 1960TIP3    H2 5887   2.059   1.574   2.322 -0.1798 -2.1189 -0.2110
 1961TIP3   OH2 5888   0.476   4.095   5.161  0.2102 -0.7164 -0.2893
 1961TIP3    H1 5889   0.563   4.093   5.122  0.7704  1.1736  0.6695
 1961TIP3    H2 5890   0.452   4.188   5.159 -1.3592 -1.0821  0.3378
 1962TIP3   OH2 5891   3.263   4.393   4.206 -0.5351 -0.0978 -0.4214
 1962TIP3    H1 5892   3.359   4.385   4.204 -0.4292  1.0764 -1.5756
 1962TIP3    H2 5893   3.242   4.402   4.299  0.7465  2.2308 -0.2828
 1963TIP3   OH2 5894   5.052   1.208   4.895  0.0029 -0.3440 -0.2864
 1963TIP3    H1 5895   4.975   1.155   4.915 -0.0151  0.5185  2.2704
 1963TIP3    H2 5896   5.016   1.288   4.857 -0.4620  0.1992  1.2061
 1964TIP3   OH2 5897   1.410   0.611   4.085 -0.5323 -0.2954 -0.8769
 1964TIP3    H1 5898   1.327   0.578   4.119  0.0071 -0.9766 -0.1842
 1964TIP3    H2 5899   1.430   0.555   4.010  0.3010 -1.5103  0.1978
 1965TIP3   OH2 5900   0.305   1.691   4.724  0.1421 -0.3575  0.4040
 1965TIP3    H1 5901   0.365   1.733   4.785 -0.9305  0.3914  0.9718
 1965TIP3    H2 5902   0.279   1.761   4.663 -2.0100 -0.0122  1.6325
 1966TIP3   OH2 5903   6.008   2.155   2.905 -0.2365  0.0825 -0.3531
 1966TIP3    H1 5904   6.012   2.154   3.001 -2.2152 -1.9817 -0.1998
 1966TIP3    H2 5905   6.033   2.067   2.879  1.3253  0.9080 -1.8695
 1967TIP3   OH2 5906   2.894   3.650   3.127 -0.3089 -0.0197 -0.5721
 1967TIP3    H1 5907   2.838   3.605   3.191  0.7900 -0.4436  0.1097
 1967TIP3    H2 5908   2.836   3.716   3.089 -0.9594  0.3785  0.9902
 1968TIP3   OH2 5909   2.700   2.666   3.701 -0.1723  0.2946  0.6482
 1968TIP3    H1 5910   2.781   2.620   3.681 -0.2902  0.1253  0.5485
 1968TIP3    H2 5911   2.727   2.755   3.723 -0.0240  0.4721 -0.1991
 1969TIP3   OH2 5912   2.787   0.452   2.496  0.1035  0.0403 -0.1709
 1969TIP3    H1 5913   2.789   0.419   2.586  1.6421  0.0347 -0.1822
 1969TIP3    H2 5914   2.729   0.528   2.500 -0.7126 -0.5982  0.5900
 1970TIP3   OH2 5915   5.785   5.211   0.513 -0.1743 -0.6944 -0.0921
 1970TIP3    H1 5916   5.803   5.179   0.601 -1.9609 -1.0950  0.1494
 1970TIP3    H2 5917   5.747   5.136   0.467  0.5081 -0.4218 -1.1549
 1971TIP3   OH2 5918   4.062   3.482   3.359 -0.1368  0.0343  0.5804
 1971TIP3    H1 5919   4.007   3.435   3.422 -1.0815 -0.6690 -0.7049
 1971TIP3    H2 5920   4.014   3.475   3.276  0.7620  1.4487 -0.0971
 1972TIP3   OH2 5921   1.243   2.265   0.124 -0.5505  0.3303 -0.1534
 1972TIP3    H1 5922   1.260   2.359   0.122  2.1416 -0.0986 -0.3235
 1972TIP3    H2 5923   1.329   2.224   0.129 -1.6870 -2.1290  1.4264
 1973TIP3   OH2 5924   4.953   5.824   2.036  0.7228 -0.2654 -0.9735
 1973TIP3    H1 5925   4.889   5.754   2.016 -0.8706  0.4299  1.3195
 1973TIP3    H2 5926   4.905   5.885   2.092  2.8106  1.4410 -0.9286
 1974TIP3   OH2 5927   4.872   0.383   0.890 -0.1736 -0.6937  0.4747
 1974TIP3    H1 5928   4.852   0.302   0.843 -0.3566 -1.2802  1.5280
 1974TIP3    H2 5929   4.816   0.449   0.850  0.8581 -0.7943 -1.2301
 1975TIP3   OH2 5930   4.571   2.677   2.264 -0.1177 -0.4897  0.0732
 1975TIP3    H1 5931   4.611   2.762   2.284  0.7085 -0.1537 -2.6362
 1975TIP3    H2 5932   4.482   2.684   2.300  0.5708  0.6849  1.7077
 1976TIP3   OH2 5933   3.538   2.509   5.084  0.6497  0.3890 -0.0605
 1976TIP3    H1 5934   3.593   2.431   5.095 -1.3914 -0.9135  1.6063
 1976TIP3    H2 5935   3.588   2.578   5.127  1.6741 -0.3987  0.0705
 1977TIP3   OH2 5936   4.899   4.248   1.719  0.1834  0.5189 -0.1975
 1977TIP3    H1 5937   4.932   4.245   1.629  0.6809 -1.4619  0.0097
 1977TIP3    H2 5938   4.967   4.294   1.768  1.0414 -0.4608 -0.4279
 1978TIP3   OH2 5939   0.612   3.058   1.038  0.0397 -0.0139 -0.4284
 1978TIP3    H1 5940   0.567   2.975   1.027  1.4226 -0.8154 -0.2619
 1978TIP3    H2 5941   0.590   3.108   0.960 -1.2092 -0.3262 -0.2950
 1979TIP3   OH2 5942   4.099   5.471   0.358 -0.4823 -0.1039  0.6295
 1979TIP3    H1 5943   4.030   5.421   0.314  0.4607 -0.3561 -0.6022
 1979TIP3    H2 5944   4.158   5.497   0.288  0.4338  0.5105  1.6074
 1980TIP3   OH2 5945   2.793   4.763   1.126  0.2058  0.1324 -0.9808
 1980TIP3    H1 5946   2.760   4.680   1.161  0.4502 -0.0286 -1.1289
 1980TIP3    H2 5947   2.751   4.772   1.041 -1.7076  1.3423  0.0068
 1981TIP3   OH2 5948   0.812   1.436   2.735  0.3262  0.0630 -0.2155
 1981TIP3    H1 5949   0.871   1.397   2.670 -0.4124  0.0181 -0.8713
 1981TIP3    H2 5950   0.759   1.363   2.766 -0.1557  0.3016 -0.4671
 1982TIP3   OH2 5951   3.249   4.836   0.107 -0.7010  0.4492 -0.3744
 1982TIP3    H1 5952   3.280   4.839   0.016 -1.5308  1.5854 -0.6324
 1982TIP3    H2 5953   3.323   4.801   0.156  0.1544  0.8737 -1.3257
 1983TIP3   OH2 5954   6.091   1.256   0.442 -0.1903 -0.3817  0.1630
 1983TIP3    H1 5955   5.997   1.275   0.442  0.0248  1.1838 -2.5980
 1983TIP3    H2 5956   6.102   1.186   0.378  0.5479 -0.4394  0.3395
 1984TIP3   OH2 5957   1.001   0.703   1.082  0.0135 -0.7021 -0.0336
 1984TIP3    H1 5958   1.084   0.671   1.116  0.5589  0.5539 -0.1308
 1984TIP3    H2 5959   0.983   0.647   1.007  1.1412 -0.5281 -0.4499
 1985TIP3   OH2 5960   2.909   2.909   2.369 -0.0033 -0.1154  0.2963
 1985TIP3    H1 5961   2.963   2.839   2.406 -0.4554 -0.4961  0.2466
 1985TIP3    H2 5962   2.969   2.959   2.312  1.1000  1.3302  2.5413
 1986TIP3   OH2 5963   4.579   5.834   0.466  0.3109 -0.3289 -0.2909
 1986TIP3    H1 5964   4.509   5.796   0.518 -0.6377  2.3228  0.5470
 1986TIP3    H2 5965   4.657   5.826   0.522 -0.2330  0.4742  0.6078
 1987TIP3   OH2 5966   1.640   0.004   3.096 -0.0970  0.0758  0.2496
 1987TIP3    H1 5967   1.644   0.095   3.126 -0.7435  0.4772 -0.8562
 1987TIP3    H2 5968   1.725  -0.011   3.055 -0.5391  0.6707 -0.9130
 1988TIP3   OH2 5969   5.962   2.907   0.856  0.2931  0.2751 -0.1680
 1988TIP3    H1 5970   6.028   2.926   0.789 -1.2346  1.7725 -1.3450
 1988TIP3    H2 5971   5.938   2.993   0.890  1.1491 -0.4523  2.5100
 1989TIP3   OH2 5972   1.331   2.925   2.176  0.0961 -0.6522 -0.4699
 1989TIP3    H1 5973   1.337   2.899   2.268 -1.2636  0.8408  0.1106
 1989TIP3    H2 5974   1.419   2.953   2.152  0.3565 -0.5645  0.5584
 1990TIP3   OH2 5975   0.447   0.701   2.295 -0.1684  0.0889  0.0964
 1990TIP3    H1 5976   0.515   0.671   2.235 -1.0025  1.3335 -1.5710
 1990TIP3    H2 5977   0.471   0.792   2.315 -1.5360  0.7213 -0.9207
 1991TIP3   OH2 5978   5.665   3.108   0.628 -0.3176 -0.2570 -0.6490
 1991TIP3    H1 5979   5.674   3.109   0.533 -0.5354  2.1204 -0.7154
 1991TIP3    H2 5980   5.572   3.121   0.644 -0.1541  0.3524 -0.1433
 1992TIP3   OH2 5981   3.164   4.786   5.036 -0.5497  0.4320 -0.5451
 1992TIP3    H1 5982   3.192   4.824   5.119  0.2634  0.3855 -0.7924
 1992TIP3    H2 5983   3.195   4.696   5.038 -0.9542  0.2841 -0.7000
 1993TIP3   OH2 5984   0.040   4.199   5.123 -0.6592 -0.8216  0.2430
 1993TIP3    H1 5985   0.110   4.252   5.161  0.9252 -0.5385 -2.8062
 1993TIP3    H2 5986   0.075   4.110   5.121 -1.0298 -0.9673  0.1686
 1994TIP3   OH2 5987   3.512   3.024   2.444 -0.4499  0.3923  0.1677
 1994TIP3    H1 5988   3.475   3.108   2.470 -0.0577  1.0597 -1.3822
 1994TIP3    H2 5989   3.469   2.961   2.502 -1.3747  1.5457  0.7847
 1995TIP3   OH2 5990   0.094   1.087   1.766  0.3453 -0.2901  0.6813
 1995TIP3    H1 5991   0.085   1.141   1.844 -2.0340 -0.5816  0.6825
 1995TIP3    H2 5992   0.013   1.101   1.717  1.2242 -1.0904 -1.1300
 1996TIP3   OH2 5993   4.650   0.491   0.184  0.1256 -0.3279 -0.7635
 1996TIP3    H1 5994   4.612   0.571   0.222 -0.5573 -0.8583 -0.3072
 1996TIP3    H2 5995   4.693   0.521   0.105 -1.3726  0.3083 -1.3840
 1997TIP3   OH2 5996   5.868   1.502   1.743  0.3164  0.0382 -0.3865
 1997TIP3    H1 5997   5.885   1.492   1.649  0.6796 -1.3561 -0.1959
 1997TIP3    H2 5998   5.951   1.479   1.785  0.4573  1.6190  0.2539
 1998TIP3   OH2 5999   4.309   5.916   4.308 -0.2449 -0.1644  0.0486
 1998TIP3    H1 6000   4.328   5.943   4.398 -1.2729  2.6381 -0.4816
 1998TIP3    H2 6001   4.290   5.998   4.262  2.0636 -1.2717 -3.2164
 1999TIP3   OH2 6002   0.391   1.288   0.831  0.5740 -0.0265 -0.0018
 1999TIP3    H1 6003   0.414   1.321   0.918  0.2706 -1.9135  0.8515
 1999TIP3    H2 6004   0.308   1.242   0.844  1.0308 -1.1949 -1.0583
 2000TIP3   OH2 6005   3.246   2.114   3.095  0.1709  0.0733 -0.4861
 2000TIP3    H1 6006   3.264   2.184   3.157  2.3290  0.3335 -1.3485
 2000TIP3    H2 6007   3.156   2.132   3.065 -0.5902  0.4589  1.8026
 2001TIP3   OH2 6008   1.626   1.802   0.530 -0.3339  0.1746 -0.6067
 2001TIP3    H1 6009   1.620   1.717   0.487 -1.1310  0.1928 -0.5420
 2001TIP3    H2 6010   1.548   1.849   0.502  0.1646  0.9370 -0.7390
 2002TIP3   OH2 6011   0.194   5.536   0.907 -0.2341  0.2638 -0.3734
 2002TIP3    H1 6012   0.120   5.570   0.857  0.0073 -0.0703 -0.9674
 2002TIP3    H2 6013   0.242   5.482   0.845 -0.1184 -0.4405  0.3184
 2003TIP3   OH2 6014   3.059   5.161   3.857  0.5827 -0.3341 -0.5833
 2003TIP3    H1 6015   2.982   5.186   3.807 -1.1956 -1.3733  1.4418
 2003TIP3    H2 6016   3.038   5.185   3.948  2.3101 -1.3170  0.1378
 2004TIP3   OH2 6017   2.937   2.231   2.065 -0.0059 -0.0820  0.1549
 2004TIP3    H1 6018   2.898   2.243   2.151  1.3835  0.0460  0.7975
 2004TIP3    H2 6019   2.952   2.137   2.058 -2.3507 -0.4229 -0.9965
 2005TIP3   OH2 6020   2.010   3.594   1.893  0.3716 -0.4852  0.2693
 2005TIP3    H1 6021   2.024   3.571   1.984  0.7219  0.3105  0.4254
 2005TIP3    H2 6022   2.094   3.577   1.850  0.5586  0.2235  0.3363
 2006TIP3   OH2 6023   3.614   4.552   2.465 -0.5628 -0.2271 -0.3269
 2006TIP3    H1 6024   3.568   4.588   2.389 -1.1545  0.5383  0.3757
 2006TIP3    H2 6025   3.547   4.504   2.514 -1.0181  2.0499  1.4373
 2007TIP3   OH2 6026   6.117   3.670   3.226  0.0285  0.9441  0.2976
 2007TIP3    H1 6027   6.177   3.606   3.188 -0.3996  1.4132 -1.2085
 2007TIP3    H2 6028   6.168   3.709   3.298  0.9830  0.2974  0.0066
 2008TIP3   OH2 6029   2.411   1.484   3.276 -0.6270 -0.1089  0.1007
 2008TIP3    H1 6030   2.473   1.412   3.262  0.7727  1.0588  0.0770
 2008TIP3    H2 6031   2.455   1.541   3.340 -1.8945  0.5052  0.4442
 2009TIP3   OH2 6032   0.571   5.178   4.564 -0.1939  0.4422 -0.2148
 2009TIP3    H1 6033   0.507   5.113   4.535  0.7302 -0.1807 -0.8894
 2009TIP3    H2 6034   0.636   5.181   4.494  0.9034  0.5446  0.7818
 2010TIP3   OH2 6035   3.033   3.429   3.021 -0.0209  0.0483  0.0720
 2010TIP3    H1 6036   2.998   3.414   2.933 -0.0363  0.9640 -0.0926
 2010TIP3    H2 6037   2.989   3.509   3.051 -2.1322 -1.7041  2.0590
 2011TIP3   OH2 6038   3.694   0.244   2.437 -0.0626  0.0771 -0.2621
 2011TIP3    H1 6039   3.737   0.159   2.424 -1.0311 -0.6344  0.9484
 2011TIP3    H2 6040   3.766   0.306   2.445  0.6633 -0.3124 -2.8767
 2012TIP3   OH2 6041   2.360   4.388   3.621 -0.4303 -0.3791 -0.3919
 2012TIP3    H1 6042   2.373   4.319   3.556 -2.1132 -0.1642 -1.0042
 2012TIP3    H2 6043   2.449   4.413   3.647  0.3244 -0.1021 -2.9867
 2013TIP3   OH2 6044   5.095   5.817   1.375 -0.1600  0.3849  0.4456
 2013TIP3    H1 6045   5.138   5.740   1.337 -1.3157  0.5040 -1.2030
 2013TIP3    H2 6046   5.152   5.843   1.447  1.5641 -0.5370 -0.5220
 2014TIP3   OH2 6047   5.725   3.993   2.333 -0.5146 -0.3834 -0.0453
 2014TIP3    H1 6048   5.765   4.061   2.388 -1.7680 -0.8200  1.4629
 2014TIP3    H2 6049   5.705   3.922   2.394  0.3873 -1.9825 -1.5263
 2015TIP3   OH2 6050   0.198   1.531   2.435 -0.2784  0.0314 -0.6942
 2015TIP3    H1 6051   0.232   1.572   2.355  0.4775 -1.7594 -1.3353
 2015TIP3    H2 6052   0.103   1.541   2.428 -0.1569  1.0788 -1.1282
 2016TIP3   OH2 6053   3.389   0.999   2.405  0.0608  0.2976  0.6648
 2016TIP3    H1 6054   3.350   1.071   2.455  0.4190 -1.0360  2.9985
 2016TIP3    H2 6055   3.327   0.927   2.416  0.9750 -0.5104  0.5520
 2017TIP3   OH2 6056   4.771   4.489   1.360  0.1493 -0.3423 -0.0574
 2017TIP3    H1 6057   4.707   4.515   1.293  0.4131 -0.2895 -0.2881
 2017TIP3    H2 6058   4.769   4.560   1.425 -0.9184 -0.9128  0.5676
 2018TIP3   OH2 6059   1.101   3.414   4.338 -0.1550 -0.1512 -0.2094
 2018TIP3    H1 6060   1.131   3.380   4.423  1.8701  0.2219 -0.7194
 2018TIP3    H2 6061   1.095   3.337   4.283 -0.1936 -0.2423 -0.0795
 2019TIP3   OH2 6062   2.210   1.829   1.442 -0.3664  0.1333 -0.1165
 2019TIP3    H1 6063   2.168   1.743   1.447  0.0062 -0.2122 -2.1734
 2019TIP3    H2 6064   2.213   1.850   1.348 -0.3965  2.3766  0.3205
 2020TIP3   OH2 6065   3.924   2.340   2.321  0.7419  0.4967  0.4790
 2020TIP3    H1 6066   3.921   2.364   2.229 -0.8379  0.1011  0.4050
 2020TIP3    H2 6067   4.004   2.288   2.330 -0.1454 -1.2733 -1.1443
 2021TIP3   OH2 6068   3.850   5.876   3.236 -0.7307  0.3670  0.3896
 2021TIP3    H1 6069   3.896   5.878   3.320  0.7670  0.1524 -0.3818
 2021TIP3    H2 6070   3.891   5.804   3.188 -1.6145  0.4331 -0.5006
 2022TIP3   OH2 6071   4.396   2.327   4.810 -0.2386  0.6964  0.0734
 2022TIP3    H1 6072   4.439   2.243   4.825  0.2754  1.4039  3.1428
 2022TIP3    H2 6073   4.302   2.306   4.810 -0.1402  0.1835  1.4406
 2023TIP3   OH2 6074   1.681   0.642   0.824  0.0179  0.1929 -0.7151
 2023TIP3    H1 6075   1.609   0.694   0.858  0.6332  0.6313 -0.0480
 2023TIP3    H2 6076   1.671   0.557   0.867  0.4093  0.5375  0.0889
 2024TIP3   OH2 6077   3.311   3.664   0.042 -0.4772  0.4421  0.5326
 2024TIP3    H1 6078   3.405   3.681   0.047  0.0549 -2.1314  0.7154
 2024TIP3    H2 6079   3.300   3.578   0.083 -2.7503  0.1353 -0.5673
 2025TIP3   OH2 6080   2.880   5.628   1.556 -0.6704 -0.4539  0.1878
 2025TIP3    H1 6081   2.953   5.682   1.525 -0.3717 -2.0152 -2.1466
 2025TIP3    H2 6082   2.917   5.574   1.626  0.8250 -1.9852 -1.6736
 2026TIP3   OH2 6083   5.781   3.629   4.097 -0.2980 -0.0495  0.5217
 2026TIP3    H1 6084   5.796   3.652   4.189 -0.1010 -1.3778  0.8426
 2026TIP3    H2 6085   5.692   3.594   4.095  0.2387 -1.4787  0.5262
 2027TIP3   OH2 6086   5.663   5.356   4.025  0.1373 -0.2591 -0.0403
 2027TIP3    H1 6087   5.583   5.405   4.007  0.2925  0.6602  1.5554
 2027TIP3    H2 6088   5.634   5.277   4.071  0.0165 -0.9367 -1.2334
 2028TIP3   OH2 6089   0.490   3.699   1.221 -0.4609  0.0210  0.0302
 2028TIP3    H1 6090   0.478   3.668   1.311 -1.2767  0.6579  0.1445
 2028TIP3    H2 6091   0.518   3.621   1.173  2.1429  0.0925  1.2313
 2029TIP3   OH2 6092   3.430   2.694   3.858  0.8401 -0.4367  0.0200
 2029TIP3    H1 6093   3.430   2.719   3.766  1.8059  2.2762  0.6616
 2029TIP3    H2 6094   3.339   2.674   3.878  0.1029  1.7513 -0.8922
 2030TIP3   OH2 6095   4.962   5.066   3.772 -0.2204  0.0382 -0.9339
 2030TIP3    H1 6096   5.034   5.103   3.721  0.6198 -0.9100 -0.4600
 2030TIP3    H2 6097   4.958   4.974   3.745 -0.6174 -0.1552 -0.2477
 2031TIP3   OH2 6098   3.492   1.188   4.123  0.3652  0.0703  0.1886
 2031TIP3    H1 6099   3.439   1.258   4.163  1.6621  1.0981  0.1713
 2031TIP3    H2 6100   3.517   1.224   4.038  1.7892 -0.0346  0.5519
 2032TIP3   OH2 6101   3.706   3.957   3.914  0.1465 -0.1709 -0.0597
 2032TIP3    H1 6102   3.714   3.912   3.830 -0.8787 -0.0633 -0.2331
 2032TIP3    H2 6103   3.758   3.905   3.975  0.6455 -0.4243 -0.6955
 2033TIP3   OH2 6104   0.527   2.249   4.975 -0.4039  0.0960 -0.0622
 2033TIP3    H1 6105   0.495   2.338   4.968 -0.7468  0.0034  0.2845
 2033TIP3    H2 6106   0.511   2.225   5.067  0.9018  0.1417  0.1890
 2034TIP3   OH2 6107   2.411   5.075   3.740 -0.7014  0.4487 -0.0993
 2034TIP3    H1 6108   2.331   5.044   3.783 -0.5100  1.7025  1.2521
 2034TIP3    H2 6109   2.450   5.135   3.803  1.6070 -0.5234 -0.4919
 2035TIP3   OH2 6110   5.986   1.281   3.338 -0.2582  0.3987  0.2643
 2035TIP3    H1 6111   5.939   1.347   3.288 -0.2936 -1.1673 -1.9252
 2035TIP3    H2 6112   6.053   1.330   3.385 -1.4920  2.1921  0.2651
 2036TIP3   OH2 6113   6.055   3.570   2.081  0.1411 -0.3922  0.2085
 2036TIP3    H1 6114   5.983   3.632   2.097 -1.1552 -1.6833 -0.4147
 2036TIP3    H2 6115   6.049   3.508   2.154 -1.3241 -2.2193 -1.3638
 2037TIP3   OH2 6116   4.405   4.417   1.432 -0.5894 -0.1726  0.0201
 2037TIP3    H1 6117   4.317   4.382   1.445 -0.7491 -0.0758 -0.7961
 2037TIP3    H2 6118   4.450   4.398   1.514 -1.3346 -0.3233  0.4030
 2038TIP3   OH2 6119   0.960   2.068   2.831  0.1515 -0.7295  0.0044
 2038TIP3    H1 6120   1.022   2.069   2.758  0.4575  0.5420  0.2626
 2038TIP3    H2 6121   1.015   2.077   2.909 -0.2445 -1.1783  0.3400
 2039TIP3   OH2 6122   4.697   5.412   0.348 -0.0844 -0.3172  0.0641
 2039TIP3    H1 6123   4.740   5.414   0.434 -1.9721  0.0754  1.0551
 2039TIP3    H2 6124   4.653   5.497   0.341 -0.0208 -0.3666 -1.2927
 2040TIP3   OH2 6125   5.906   3.144   2.379  0.1515  0.2823 -0.2663
 2040TIP3    H1 6126   5.932   3.088   2.306  0.7777 -0.0562  0.2016
 2040TIP3    H2 6127   5.828   3.101   2.415  0.3581 -0.0333 -0.1954
 2041TIP3   OH2 6128   2.843   3.887   4.853 -0.7763 -0.0506  0.0738
 2041TIP3    H1 6129   2.827   3.806   4.902 -0.2601 -0.8781 -1.0757
 2041TIP3    H2 6130   2.775   3.887   4.784 -1.6847  1.2440  0.9147
 2042TIP3   OH2 6131   0.928   0.425   2.219  0.3498 -0.0176  0.3501
 2042TIP3    H1 6132   0.850   0.406   2.166  1.1078 -0.2336 -0.7213
 2042TIP3    H2 6133   0.976   0.342   2.222  1.3152  0.4994 -0.3294
 2043TIP3   OH2 6134   3.643   2.665   2.942 -0.4349 -0.2684  0.0799
 2043TIP3    H1 6135   3.691   2.650   2.861  2.3435  2.2691  1.0637
 2043TIP3    H2 6136   3.663   2.588   2.997  0.9068 -0.1933 -0.2730
 2044TIP3   OH2 6137   4.271   0.990   1.984 -0.0738 -0.1965  0.0558
 2044TIP3    H1 6138   4.256   0.956   2.072  1.8612  2.8821  1.7700
 2044TIP3    H2 6139   4.283   0.912   1.930 -2.1803 -2.2390  2.2558
 2045TIP3   OH2 6140   5.773   1.764   5.116  0.4816 -0.1184 -0.5966
 2045TIP3    H1 6141   5.742   1.684   5.073 -0.4423  0.0724 -0.3042
 2045TIP3    H2 6142   5.731   1.763   5.202  0.0384  0.9324 -0.7800
 2046TIP3   OH2 6143   1.195   0.842   0.282  0.4874 -0.4141  0.2398
 2046TIP3    H1 6144   1.132   0.774   0.259 -0.7560  1.0025 -0.6908
 2046TIP3    H2 6145   1.270   0.827   0.224  2.0706 -3.3804  2.7348
 2047TIP3   OH2 6146   2.156   1.176   4.822  0.2003 -0.3486  0.4230
 2047TIP3    H1 6147   2.179   1.135   4.905  0.6243 -1.0393 -0.0296
 2047TIP3    H2 6148   2.184   1.113   4.756  0.0610  0.2912 -0.2508
 2048TIP3   OH2 6149   4.547   4.407   1.657 -0.0170 -0.3660  0.1399
 2048TIP3    H1 6150   4.595   4.489   1.657  0.0969 -0.4294  0.5405
 2048TIP3    H2 6151   4.555   4.374   1.747  0.8855 -1.3550 -0.2730
 2049TIP3   OH2 6152   0.121   4.625   4.912 -0.3415 -0.4765  0.1388
 2049TIP3    H1 6153   0.129   4.717   4.887 -0.2507 -0.6166 -0.3498
 2049TIP3    H2 6154   0.199   4.583   4.877  0.4593 -0.4363  1.7873
 2050TIP3   OH2 6155   5.071   5.570   1.977  0.6261 -0.7883  0.4102
 2050TIP3    H1 6156   5.161   5.546   1.998  2.4541  2.4355 -2.6420
 2050TIP3    H2 6157   5.043   5.627   2.048  0.8638 -1.9322  1.4515
 2051TIP3   OH2 6158   3.084   4.915   3.821 -0.5062 -0.3868  0.5221
 2051TIP3    H1 6159   3.046   4.888   3.737  0.7131 -0.5918  0.0068
 2051TIP3    H2 6160   3.074   5.011   3.821  0.4423 -0.2603 -0.3803
 2052TIP3   OH2 6161   1.311   2.920   4.784  0.3403 -0.3022 -0.1223
 2052TIP3    H1 6162   1.362   2.930   4.865  1.1072 -0.9473 -0.5114
 2052TIP3    H2 6163   1.249   2.993   4.786  2.1450  1.3177 -0.2571
 2053TIP3   OH2 6164   0.762   2.242   3.464 -0.5459 -0.4588 -0.2849
 2053TIP3    H1 6165   0.727   2.309   3.405 -0.2490  0.4242  0.5264
 2053TIP3    H2 6166   0.810   2.291   3.531 -0.6208 -1.4639  0.5271
 2054TIP3   OH2 6167   1.260   1.693   0.737 -0.3222  0.4550  0.0423
 2054TIP3    H1 6168   1.169   1.670   0.758 -1.3416  2.9694 -1.1125
 2054TIP3    H2 6169   1.258   1.709   0.642  1.4553  0.1248 -0.0690
 2055TIP3   OH2 6170   5.179   2.576   0.141 -0.7733  0.3538  0.2626
 2055TIP3    H1 6171   5.148   2.583   0.231 -4.1348  1.2103 -0.8175
 2055TIP3    H2 6172   5.110   2.617   0.088  1.1087  0.0023 -2.7164
 2056TIP3   OH2 6173   3.933   5.972   4.503 -0.4267  0.0142 -0.1590
 2056TIP3    H1 6174   3.917   6.022   4.583 -0.8049  2.1303 -1.4729
 2056TIP3    H2 6175   3.997   5.906   4.528 -0.6585  0.5111  1.9096
 2057TIP3   OH2 6176   6.190   2.852   0.371  0.1554  0.2662 -0.0895
 2057TIP3    H1 6177   6.275   2.892   0.356  0.6102 -0.3971  0.6088
 2057TIP3    H2 6178   6.178   2.793   0.297  0.3019  0.3660 -0.1937
 2058TIP3   OH2 6179   5.657   3.778   2.492  0.3447  0.2962  0.1298
 2058TIP3    H1 6180   5.567   3.786   2.523  0.7387 -0.2622  1.4662
 2058TIP3    H2 6181   5.700   3.719   2.554  1.8174  1.0640 -0.1001
 2059TIP3   OH2 6182   0.967   3.973   2.433 -0.3414 -0.1152 -0.2051
 2059TIP3    H1 6183   1.052   4.018   2.434 -0.8450  0.8832 -0.7485
 2059TIP3    H2 6184   0.986   3.885   2.464  1.5754 -1.1225 -3.7277
 2060TIP3   OH2 6185   2.103   2.506   4.890  0.2034 -0.2490  0.0711
 2060TIP3    H1 6186   2.197   2.520   4.891  0.2556 -0.6293  0.9934
 2060TIP3    H2 6187   2.066   2.583   4.934 -0.2152  1.7145 -3.3514
 2061TIP3   OH2 6188   2.652   1.285   4.906 -0.1541 -0.2788 -0.2094
 2061TIP3    H1 6189   2.641   1.326   4.992 -1.8528 -0.4864 -0.2987
 2061TIP3    H2 6190   2.580   1.321   4.853 -1.0794 -2.5521 -0.5981
 2062TIP3   OH2 6191   1.631   1.707   0.263 -0.0609 -0.0183 -0.0685
 2062TIP3    H1 6192   1.539   1.685   0.245  0.3044 -1.6302 -0.0919
 2062TIP3    H2 6193   1.681   1.637   0.222  1.1380  0.2379  0.8988
 2063TIP3   OH2 6194   3.632   3.248   0.655 -0.1118 -0.0153 -0.0733
 2063TIP3    H1 6195   3.664   3.319   0.600 -0.4511  0.4434  0.3025
 2063TIP3    H2 6196   3.654   3.276   0.744  2.3466 -1.7090 -0.0477
 2064TIP3   OH2 6197   4.949   0.709   3.020  0.3745 -0.4333 -0.0903
 2064TIP3    H1 6198   4.956   0.641   3.086  0.1686 -0.2235  0.1495
 2064TIP3    H2 6199   5.019   0.689   2.957 -0.2663 -1.3847 -0.5165
 2065TIP3   OH2 6200   5.648   3.345   4.982  0.4469  0.2623  0.3212
 2065TIP3    H1 6201   5.741   3.325   4.984  0.5481 -0.3256 -3.1678
 2065TIP3    H2 6202   5.614   3.294   4.908 -2.4251  1.3019  0.7924
 2066TIP3   OH2 6203   4.177   0.988   1.068  0.1469  0.2540  0.0441
 2066TIP3    H1 6204   4.084   0.967   1.058  0.4635 -0.3527 -1.9132
 2066TIP3    H2 6205   4.223   0.909   1.039  1.2900  1.3939 -1.4064
 2067TIP3   OH2 6206   4.405   3.237   2.840  0.0344  0.4372 -0.0486
 2067TIP3    H1 6207   4.371   3.165   2.787 -1.1638  1.6430 -1.0059
 2067TIP3    H2 6208   4.327   3.275   2.881  0.7520  0.6189  1.1892
 2068TIP3   OH2 6209   5.488   1.196   4.752  0.2897  0.5473 -0.2466
 2068TIP3    H1 6210   5.460   1.282   4.720 -0.9636  0.3714  0.3200
 2068TIP3    H2 6211   5.426   1.175   4.822 -0.1703 -1.3303 -1.1425
 2069TIP3   OH2 6212   2.638   2.378   3.850 -0.9762 -0.2617  0.4231
 2069TIP3    H1 6213   2.592   2.381   3.766 -1.1497 -1.3406  0.4579
 2069TIP3    H2 6214   2.695   2.455   3.850 -0.9996 -0.2322 -0.6670
 2070TIP3   OH2 6215   2.559   1.576   0.286  0.0503  0.0578 -0.0540
 2070TIP3    H1 6216   2.573   1.634   0.212  0.3701  1.5439  1.1351
 2070TIP3    H2 6217   2.464   1.567   0.292  0.0353 -0.5886 -0.9977
 2071TIP3   OH2 6218   5.281   1.463   3.770 -0.1095  0.0580  0.2257
 2071TIP3    H1 6219   5.272   1.447   3.676 -0.7619 -0.6241  0.3919
 2071TIP3    H2 6220   5.371   1.440   3.790  0.0584  0.2942 -0.2487
 2072TIP3   OH2 6221   3.130   5.902   3.509  0.0785  0.0489 -0.1898
 2072TIP3    H1 6222   3.041   5.872   3.529  0.2725 -0.0180  0.5825
 2072TIP3    H2 6223   3.130   5.995   3.532 -0.5006  0.6927 -2.5095
 2073TIP3   OH2 6224   1.551   2.434   0.837 -0.3075 -0.3163 -0.0818
 2073TIP3    H1 6225   1.504   2.367   0.887  0.4304 -0.0738  0.9672
 2073TIP3    H2 6226   1.631   2.450   0.888  0.0811  0.5143 -0.9350
 2074TIP3   OH2 6227   4.397   4.855   0.707 -0.0318 -0.2161  0.2100
 2074TIP3    H1 6228   4.411   4.761   0.700  0.4115 -0.1625  0.3604
 2074TIP3    H2 6229   4.476   4.894   0.670 -0.5535  0.1058 -0.5808
 2075TIP3   OH2 6230   3.585   5.372   0.625 -0.4220 -0.4605  0.4119
 2075TIP3    H1 6231   3.539   5.431   0.565  0.5816 -1.0688 -1.0270
 2075TIP3    H2 6232   3.667   5.417   0.643 -0.4190 -0.6116  0.7696
 2076TIP3   OH2 6233   5.321   1.072   2.403  0.1297  0.0412 -0.0521
 2076TIP3    H1 6234   5.348   0.985   2.431 -1.1152 -0.0654  0.8816
 2076TIP3    H2 6235   5.316   1.123   2.484 -2.8063 -0.0784 -0.0222
 2077TIP3   OH2 6236   5.061   0.891   2.122 -0.2989 -0.2037  1.0407
 2077TIP3    H1 6237   5.116   0.889   2.200 -0.4044 -1.4414  1.0914
 2077TIP3    H2 6238   5.089   0.815   2.071 -0.2075  0.6043 -0.1533
 2078TIP3   OH2 6239   0.301   3.401   4.085  0.0217 -0.0128  0.3402
 2078TIP3    H1 6240   0.266   3.490   4.096 -1.7686 -0.5581 -0.4833
 2078TIP3    H2 6241   0.265   3.371   4.001 -1.1596 -2.2303  1.5251
 2079TIP3   OH2 6242   5.399   3.165   0.694 -0.0976 -0.3671 -0.2054
 2079TIP3    H1 6243   5.343   3.092   0.720  1.2255 -1.3164  0.0300
 2079TIP3    H2 6244   5.366   3.240   0.745  0.8578 -1.6171  2.3950
 2080TIP3   OH2 6245   0.716   5.349   1.196 -0.1282 -0.4738 -0.5656
 2080TIP3    H1 6246   0.784   5.402   1.153 -0.8454  0.9410 -0.0463
 2080TIP3    H2 6247   0.679   5.408   1.262 -1.1329 -1.5758 -0.1135
 2081TIP3   OH2 6248   2.726   5.715   4.136 -0.4613  0.3564 -0.3264
 2081TIP3    H1 6249   2.761   5.798   4.104  0.0718  0.0799 -0.4839
 2081TIP3    H2 6250   2.632   5.721   4.121 -0.6618  1.5856  1.1768
 2082TIP3   OH2 6251   3.762   3.362   1.335  0.0070  0.2371 -0.4319
 2082TIP3    H1 6252   3.767   3.290   1.272 -0.4333 -0.6591  0.5215
 2082TIP3    H2 6253   3.771   3.320   1.420  1.5915  1.5265  0.0954
 2083TIP3   OH2 6254   3.019   1.174   2.808  0.2746  0.4536 -0.1981
 2083TIP3    H1 6255   2.976   1.092   2.832 -1.1761  1.4648  0.7881
 2083TIP3    H2 6256   2.961   1.242   2.840  1.2310  1.8950 -1.3934
 2084TIP3   OH2 6257   1.711   0.504   4.871 -0.2508 -0.3252  0.6018
 2084TIP3    H1 6258   1.716   0.555   4.951  0.0457 -0.2600  0.5431
 2084TIP3    H2 6259   1.778   0.436   4.881  0.7976  0.5541 -0.1998
 2085TIP3   OH2 6260   5.059   2.495   0.913 -0.6871 -0.5748 -0.2521
 2085TIP3    H1 6261   5.134   2.554   0.907  0.4032 -1.8985 -0.2564
 2085TIP3    H2 6262   5.023   2.492   0.825 -0.5419 -0.1743 -0.3234
 2086TIP3   OH2 6263   2.138   3.106   0.310  0.1514  0.3140 -0.9586
 2086TIP3    H1 6264   2.059   3.157   0.330  0.2856  0.3731 -0.5734
 2086TIP3    H2 6265   2.128   3.081   0.219 -0.1929  0.5426 -0.9840
 2087TIP3   OH2 6266   1.202   5.614   3.680 -0.3525  0.5969  0.0950
 2087TIP3    H1 6267   1.271   5.612   3.746 -0.7055  1.0951  0.4813
 2087TIP3    H2 6268   1.248   5.598   3.597  0.1851  0.6406  0.3817
 2088TIP3   OH2 6269   4.211   2.532   1.698 -0.2473  0.3746  0.2748
 2088TIP3    H1 6270   4.270   2.474   1.746 -0.0225  0.3071 -0.0821
 2088TIP3    H2 6271   4.261   2.613   1.687  0.3878 -0.2143 -1.4031
 2089TIP3   OH2 6272   5.696   0.526   3.384 -0.1157 -0.1794 -0.0351
 2089TIP3    H1 6273   5.672   0.586   3.454 -1.5699 -0.8497  0.0836
 2089TIP3    H2 6274   5.621   0.527   3.325  1.0016  0.2341 -1.5115
 2090TIP3   OH2 6275   0.481   3.563   2.816  0.2783  0.3114 -0.0379
 2090TIP3    H1 6276   0.522   3.647   2.798 -0.4388  0.5360 -0.6329
 2090TIP3    H2 6277   0.392   3.571   2.782  0.2655 -0.7562 -0.2997
 2091TIP3   OH2 6278   3.553   3.890   3.095  0.3806  0.1704  0.3284
 2091TIP3    H1 6279   3.629   3.865   3.043 -0.9982 -1.5210 -0.9930
 2091TIP3    H2 6280   3.551   3.826   3.167  0.9600  1.0811  1.1874
 2092TIP3   OH2 6281   4.808   2.270   0.934  0.1520  0.1702 -0.4662
 2092TIP3    H1 6282   4.816   2.185   0.892  0.0800  0.6613 -1.4935
 2092TIP3    H2 6283   4.893   2.311   0.921 -0.4058  1.0022 -1.6799
 2093TIP3   OH2 6284   1.027   5.294   3.845 -0.6704  0.1954 -0.0782
 2093TIP3    H1 6285   1.084   5.370   3.840  0.2537 -0.4839 -0.1571
 2093TIP3    H2 6286   1.078   5.223   3.806 -0.9473 -0.7910  1.2657
 2094TIP3   OH2 6287   0.010   0.947   1.461  0.1713  0.0262 -0.4604
 2094TIP3    H1 6288   0.104   0.952   1.474 -0.1383 -0.6280  3.1453
 2094TIP3    H2 6289  -0.018   1.038   1.451  1.1477  0.2114 -1.7859
 2095TIP3   OH2 6290   4.091   5.278   4.186  0.1395 -0.2043  0.1023
 2095TIP3    H1 6291   4.007   5.303   4.223  0.3562  0.4021  0.1889
 2095TIP3    H2 6292   4.070   5.221   4.113 -0.3650  0.4430 -0.2612
 2096TIP3   OH2 6293   0.802   5.354   2.236 -0.6680 -0.5378  0.1033
 2096TIP3    H1 6294   0.848   5.435   2.256 -2.6994  0.1586  2.4088
 2096TIP3    H2 6295   0.767   5.367   2.148 -0.2767  0.7185  0.1241
 2097TIP3   OH2 6296   3.144   0.536   3.170 -0.4352  0.6993  0.5427
 2097TIP3    H1 6297   3.139   0.448   3.207 -1.6932  1.0752  1.3269
 2097TIP3    H2 6298   3.211   0.581   3.223 -0.7666  0.6233  1.0266
 2098TIP3   OH2 6299   0.658   0.096   2.171  0.1044  0.0397 -0.1522
 2098TIP3    H1 6300   0.579   0.105   2.224  0.0951  2.6662 -0.5319
 2098TIP3    H2 6301   0.724   0.062   2.233 -1.0826 -1.5888  0.3024
 2099TIP3   OH2 6302   3.568   4.043   3.524 -0.2764  0.1183 -0.0484
 2099TIP3    H1 6303   3.585   4.014   3.613  0.9946 -1.0606 -0.6399
 2099TIP3    H2 6304   3.636   4.002   3.471 -0.4750  1.4738 -1.4571
 2100TIP3   OH2 6305   2.141   3.384   4.908  0.6817  0.6948  0.4079
 2100TIP3    H1 6306   2.214   3.339   4.951  1.4066  0.6924 -0.7772
 2100TIP3    H2 6307   2.138   3.346   4.821 -2.2632 -0.9788  1.1169
 2101TIP3   OH2 6308   2.449   5.469   1.713 -0.1938 -0.6032  0.4758
 2101TIP3    H1 6309   2.539   5.446   1.738 -0.0685 -1.3064 -0.5607
 2101TIP3    H2 6310   2.439   5.559   1.742  1.0179 -0.3472  0.1752
 2102TIP3   OH2 6311   0.891   5.759   0.637  0.3607 -0.3113 -0.1941
 2102TIP3    H1 6312   0.948   5.735   0.710  0.6605 -0.5446 -0.5035
 2102TIP3    H2 6313   0.941   5.823   0.587  0.4805 -0.7525 -0.6417
 2103TIP3   OH2 6314   2.464   3.706   4.417 -0.1209  0.0838 -0.0897
 2103TIP3    H1 6315   2.433   3.682   4.505 -0.6348 -1.8497 -0.7351
 2103TIP3    H2 6316   2.531   3.641   4.397 -0.2280  0.3060 -1.2378
 2104TIP3   OH2 6317   4.644   3.799   1.781  0.1095 -0.0333 -0.0967
 2104TIP3    H1 6318   4.576   3.781   1.845  1.7641 -0.1759  1.7339
 2104TIP3    H2 6319   4.664   3.714   1.742 -0.2198 -0.1166 -0.0885
 2105TIP3   OH2 6320   5.651   2.924   1.901  0.1278  0.0932 -0.0598
 2105TIP3    H1 6321   5.632   2.903   1.810 -0.1271 -0.4745  0.1207
 2105TIP3    H2 6322   5.741   2.895   1.915  0.1400  0.1086 -0.1077
 2106TIP3   OH2 6323   3.480   5.029   2.304  0.3112  0.0428 -1.1661
 2106TIP3    H1 6324   3.420   4.958   2.279 -0.9710 -0.0811  1.8191
 2106TIP3    H2 6325   3.438   5.109   2.273 -1.3453 -0.0671  0.6656
 2107TIP3   OH2 6326   1.147   5.753   5.179 -0.0220 -0.2550  0.4954
 2107TIP3    H1 6327   1.077   5.792   5.126  0.2301 -0.8077 -0.2678
 2107TIP3    H2 6328   1.103   5.688   5.234 -0.0499 -0.9714 -0.3572
 2108TIP3   OH2 6329   5.307   3.482   2.404  0.1850  0.3999 -0.2445
 2108TIP3    H1 6330   5.348   3.396   2.405 -1.0411 -0.2182  1.3883
 2108TIP3    H2 6331   5.291   3.500   2.311  2.1069 -0.2828 -0.7487
 2109TIP3   OH2 6332   2.329   1.584   4.355 -0.1608  0.5303  0.5762
 2109TIP3    H1 6333   2.233   1.588   4.364 -0.3190 -2.5232  1.1798
 2109TIP3    H2 6334   2.362   1.604   4.442 -0.4380 -1.4382  1.1709
 2110TIP3   OH2 6335   2.352   5.087   1.308 -0.3438  0.1324  0.5747
 2110TIP3    H1 6336   2.352   5.128   1.222 -0.6796 -1.4059 -0.1824
 2110TIP3    H2 6337   2.308   5.150   1.365 -0.7017  0.8847 -0.5131
 2111TIP3   OH2 6338   1.506   4.131   4.298  0.0620 -0.2696  0.2843
 2111TIP3    H1 6339   1.424   4.085   4.317 -0.1485 -0.0528 -0.1047
 2111TIP3    H2 6340   1.565   4.103   4.368  0.3674 -2.1894 -0.6759
 2112TIP3   OH2 6341   3.932   4.534   4.022  0.0141  0.2558 -0.6405
 2112TIP3    H1 6342   3.998   4.469   3.998  1.2338  2.0203 -2.3580
 2112TIP3    H2 6343   3.966   4.574   4.102 -1.8014 -2.5057  1.7391
 2113TIP3   OH2 6344   2.538   2.605   3.090  0.5889 -0.5769  0.3727
 2113TIP3    H1 6345   2.508   2.546   3.159  1.7786 -1.2479  0.3490
 2113TIP3    H2 6346   2.616   2.562   3.055  0.3646  0.0667 -0.9672
 2114TIP3   OH2 6347   4.975   2.881   2.073  0.6052 -0.0342 -0.2622
 2114TIP3    H1 6348   4.982   2.837   1.988  0.7673  0.1300 -0.3359
 2114TIP3    H2 6349   4.891   2.928   2.068  0.2530 -0.6331 -0.0373
 2115TIP3   OH2 6350   0.871   1.867   4.935 -0.8338 -0.6878  0.2242
 2115TIP3    H1 6351   0.782   1.840   4.959 -1.2797 -0.6187 -1.1923
 2115TIP3    H2 6352   0.858   1.922   4.857  0.3777  0.1855  0.6194
 2116TIP3   OH2 6353   1.184   4.026   2.671 -0.2780 -0.1793  0.2326
 2116TIP3    H1 6354   1.269   3.995   2.704  0.1317  1.1269  0.4331
 2116TIP3    H2 6355   1.143   3.947   2.635  1.5867 -0.6321 -1.0827
 2117TIP3   OH2 6356   0.575   3.306   2.677 -0.1413 -0.0796 -0.3616
 2117TIP3    H1 6357   0.540   3.393   2.694 -2.7105 -0.5444 -2.6272
 2117TIP3    H2 6358   0.646   3.320   2.615  1.1525  0.5178  1.1672
 2118TIP3   OH2 6359   1.282   3.025   3.541  0.4475  0.1807  0.1293
 2118TIP3    H1 6360   1.344   3.098   3.549  1.3854 -0.2903 -2.1270
 2118TIP3    H2 6361   1.245   3.034   3.454 -1.6806 -0.3813  0.9089
 2119TIP3   OH2 6362   5.603   5.753   4.278  0.3327  0.6407 -0.4888
 2119TIP3    H1 6363   5.568   5.841   4.264  0.1616  0.5588 -0.5856
 2119TIP3    H2 6364   5.672   5.764   4.343 -0.1394  0.7485  0.0023
 2120TIP3   OH2 6365   5.663   2.697   1.400 -0.0042 -0.4822  0.2558
 2120TIP3    H1 6366   5.728   2.633   1.373  0.2971 -0.2047  0.3219
 2120TIP3    H2 6367   5.582   2.668   1.358  0.5498  0.1868 -1.3166
 2121TIP3   OH2 6368   1.445   4.370   1.030 -0.4150 -0.8163  0.2431
 2121TIP3    H1 6369   1.386   4.384   0.957  0.4089  1.4086 -0.0601
 2121TIP3    H2 6370   1.528   4.410   1.003  0.9838 -2.9570  1.0448
 2122TIP3   OH2 6371   1.902   3.006   3.895  0.2690 -0.4949  0.2195
 2122TIP3    H1 6372   1.849   2.976   3.821  0.6219 -0.2550 -0.1303
 2122TIP3    H2 6373   1.966   2.936   3.908 -1.6580 -2.0526  2.2742
 2123TIP3   OH2 6374   6.174   0.172   3.088 -0.4453  0.3482  0.4264
 2123TIP3    H1 6375   6.082   0.150   3.076 -0.1095 -0.0714 -1.5916
 2123TIP3    H2 6376   6.216   0.089   3.108 -0.2352  0.2540 -0.4003
 2124TIP3   OH2 6377   0.884   4.655   3.352 -0.1197 -0.0089 -0.0504
 2124TIP3    H1 6378   0.821   4.585   3.333 -0.3964  0.2594 -0.1357
 2124TIP3    H2 6379   0.834   4.719   3.402 -0.1834  0.6598 -0.9414
 2125TIP3   OH2 6380   1.770   2.309   0.683 -0.2489 -0.4171 -0.1955
 2125TIP3    H1 6381   1.702   2.349   0.738  1.4423  0.1646  1.6352
 2125TIP3    H2 6382   1.744   2.218   0.674 -1.6185 -0.0510 -0.1255
 2126TIP3   OH2 6383   2.864   1.779   4.162 -0.0537 -0.4767 -0.1611
 2126TIP3    H1 6384   2.897   1.728   4.089  1.8236 -1.1297  1.0532
 2126TIP3    H2 6385   2.778   1.742   4.181 -0.4803 -0.4243 -1.8661
 2127TIP3   OH2 6386   2.892   1.541   0.848 -0.2894 -0.1724  0.0571
 2127TIP3    H1 6387   2.943   1.586   0.781 -1.4855 -0.1648 -0.8783
 2127TIP3    H2 6388   2.870   1.609   0.911  0.3695 -0.0661  0.1839
 2128TIP3   OH2 6389   2.581   1.869   2.903  0.6310 -0.3144 -0.3694
 2128TIP3    H1 6390   2.646   1.847   2.836  0.4126 -0.0514 -0.6667
 2128TIP3    H2 6391   2.551   1.784   2.936  2.4112 -0.4554  1.0242
 2129TIP3   OH2 6392   4.090   4.896   1.528  0.1425  0.1245 -0.4903
 2129TIP3    H1 6393   4.013   4.839   1.529  1.1450 -1.2962 -0.9149
 2129TIP3    H2 6394   4.085   4.941   1.444 -0.6897  0.7515 -0.1261
 2130TIP3   OH2 6395   1.640   1.897   1.405 -0.0744 -0.0473  0.0234
 2130TIP3    H1 6396   1.564   1.883   1.461  0.2820 -0.6149  0.3726
 2130TIP3    H2 6397   1.714   1.865   1.457  0.2629 -0.5632 -0.7706
 2131TIP3   OH2 6398   5.632   1.896   4.677 -0.2786 -0.0553  0.6158
 2131TIP3    H1 6399   5.685   1.871   4.752 -0.9770 -0.0043  1.1346
 2131TIP3    H2 6400   5.547   1.919   4.714 -0.4318  0.6025 -0.1224
 2132TIP3   OH2 6401   0.206   1.829   4.283 -0.7862  0.2973  0.8650
 2132TIP3    H1 6402   0.185   1.847   4.191 -1.4151  1.6092  1.2485
 2132TIP3    H2 6403   0.146   1.759   4.308  1.1128 -1.9496 -0.4019
 2133TIP3   OH2 6404   1.644   4.567   2.394  0.6579 -0.1965  0.0822
 2133TIP3    H1 6405   1.632   4.627   2.321 -0.2695 -1.6706 -1.0532
 2133TIP3    H2 6406   1.731   4.530   2.381 -0.0673 -1.5820 -1.2394
 2134TIP3   OH2 6407   3.183   2.191   2.275 -0.2073  0.3137 -0.2045
 2134TIP3    H1 6408   3.139   2.112   2.304 -0.1853 -1.4234 -4.2663
 2134TIP3    H2 6409   3.272   2.163   2.255  0.4850  1.9522  0.4048
 2135TIP3   OH2 6410   2.671   5.283   3.019  0.2947 -0.2045 -0.1217
 2135TIP3    H1 6411   2.688   5.204   3.070 -1.0536  0.1642  0.9465
 2135TIP3    H2 6412   2.755   5.328   3.016  0.7467 -0.9895  0.4471
 2136TIP3   OH2 6413   3.666   4.925   0.981 -0.8100 -0.3557 -0.4271
 2136TIP3    H1 6414   3.754   4.923   1.018 -0.8134 -0.8661 -0.4439
 2136TIP3    H2 6415   3.634   5.013   1.001  0.1013  0.2098 -1.3796
 2137TIP3   OH2 6416   0.090   0.360   4.728  0.2778 -0.1848  0.2434
 2137TIP3    H1 6417   0.005   0.384   4.691  0.4356  0.1927  0.1181
 2137TIP3    H2 6418   0.071   0.338   4.820 -0.0660 -0.8285  0.0215
 2138TIP3   OH2 6419   2.623   2.224   1.374 -0.0970 -0.2172  0.2705
 2138TIP3    H1 6420   2.624   2.312   1.336  0.7998  0.4367  1.7057
 2138TIP3    H2 6421   2.588   2.168   1.305  2.4336  0.6989 -1.9258
 2139TIP3   OH2 6422   1.088   4.925   3.508 -0.2962  0.5528  0.5319
 2139TIP3    H1 6423   1.005   4.887   3.536  0.2046 -0.6639  0.4411
 2139TIP3    H2 6424   1.064   4.998   3.452 -1.3725 -1.5105 -1.8890
 2140TIP3   OH2 6425   5.548   2.282   0.697 -0.5840  0.0192  0.3849
 2140TIP3    H1 6426   5.517   2.274   0.607 -1.6245  2.9417  0.3631
 2140TIP3    H2 6427   5.606   2.358   0.696 -0.1668 -0.2288  2.0959
 2141TIP3   OH2 6428   0.551   3.435   5.108  0.1287  0.3768 -0.3943
 2141TIP3    H1 6429   0.645   3.419   5.119  0.4105  1.1874 -1.4288
 2141TIP3    H2 6430   0.512   3.348   5.108  0.7533  0.0671  0.9931
 2142TIP3   OH2 6431   0.056   4.584   2.400 -0.9308 -0.0438  0.5039
 2142TIP3    H1 6432   0.149   4.559   2.400 -0.3213  2.0351  0.4547
 2142TIP3    H2 6433   0.020   4.539   2.476 -0.0847 -1.5286  0.0691
 2143TIP3   OH2 6434   1.290   1.629   1.158 -0.1142 -0.7669  0.0158
 2143TIP3    H1 6435   1.286   1.707   1.102 -1.5010 -0.7078  0.1593
 2143TIP3    H2 6436   1.275   1.556   1.099 -0.2405 -0.8112  0.1031
 2144TIP3   OH2 6437   5.125   3.422   2.598 -0.1110  0.1965  0.2174
 2144TIP3    H1 6438   5.047   3.470   2.572 -0.7008  0.3192  2.0434
 2144TIP3    H2 6439   5.183   3.428   2.523 -1.6707  0.4916 -1.0139
 2145TIP3   OH2 6440   3.254   0.812   0.628 -0.1823 -0.3016 -0.3233
 2145TIP3    H1 6441   3.303   0.893   0.634  0.3727 -0.5491 -1.2789
 2145TIP3    H2 6442   3.320   0.745   0.612 -0.6007 -0.9965  0.7545
 2146TIP3   OH2 6443   2.825   1.087   3.138 -0.1977 -0.1868 -0.0012
 2146TIP3    H1 6444   2.892   1.126   3.195 -0.6363  1.0632 -0.3219
 2146TIP3    H2 6445   2.824   1.143   3.060 -0.2227 -1.3673 -0.8831
 2147TIP3   OH2 6446   1.991   3.276   0.887 -0.0266  0.2480 -0.1890
 2147TIP3    H1 6447   2.000   3.365   0.921  1.6809  1.0479 -2.5070
 2147TIP3    H2 6448   1.923   3.283   0.820 -0.6010 -0.4511  0.3007
 2148TIP3   OH2 6449   3.267   0.552   0.115 -0.4305 -0.4244  0.3921
 2148TIP3    H1 6450   3.314   0.510   0.043 -1.5729 -0.3860 -0.3926
 2148TIP3    H2 6451   3.190   0.497   0.129 -2.2154  1.5646 -0.9561
 2149TIP3   OH2 6452   5.608   1.621   4.703 -0.3624 -0.2386 -0.2851
 2149TIP3    H1 6453   5.575   1.707   4.677 -1.7190 -1.2856 -2.3068
 2149TIP3    H2 6454   5.702   1.633   4.712 -0.5981  1.5822  0.0850
 2150TIP3   OH2 6455   5.828   4.536   3.841  0.1894 -0.3492 -0.1441
 2150TIP3    H1 6456   5.784   4.596   3.902 -2.3161 -0.0770 -2.0519
 2150TIP3    H2 6457   5.804   4.449   3.872  0.9976 -0.2944  0.6653
 2151TIP3   OH2 6458   3.749   3.334   1.645  0.2304  0.0318  0.3111
 2151TIP3    H1 6459   3.769   3.426   1.659 -1.1938  0.6235 -1.2263
 2151TIP3    H2 6460   3.653   3.328   1.654  0.2978 -1.2972  0.3880
 2152TIP3   OH2 6461   3.181   1.743   4.099 -0.9155  0.9685 -0.1174
 2152TIP3    H1 6462   3.159   1.765   4.190  0.9057  1.3976  0.2568
 2152TIP3    H2 6463   3.117   1.677   4.074 -0.1591 -0.7777  2.2142
 2153TIP3   OH2 6464   5.887   3.055   4.265  0.2604 -0.9049  0.1542
 2153TIP3    H1 6465   5.972   3.098   4.281  0.0219 -0.3630 -0.0011
 2153TIP3    H2 6466   5.823   3.113   4.307 -0.4599  0.8161 -3.0519
 2154TIP3   OH2 6467   5.465   4.186   1.412  0.0567 -0.2736  0.3398
 2154TIP3    H1 6468   5.372   4.161   1.415  0.2751 -1.0650  1.0406
 2154TIP3    H2 6469   5.483   4.201   1.319 -0.8769  0.3435  0.2321
 2155TIP3   OH2 6470   6.001   3.301   0.448 -0.1744  0.1670 -0.1906
 2155TIP3    H1 6471   6.016   3.223   0.395 -0.7397  0.1360 -0.3115
 2155TIP3    H2 6472   5.912   3.291   0.481 -0.0437  0.4802  0.2748
 2156TIP3   OH2 6473   6.026   4.946   2.607  0.0985 -0.0123  0.0113
 2156TIP3    H1 6474   6.060   4.888   2.676 -3.3673  0.0284  1.9616
 2156TIP3    H2 6475   6.015   5.031   2.651 -1.0392  0.3466 -0.9251
 2157TIP3   OH2 6476   2.317   5.944   4.375  0.0831  0.0065 -0.0202
 2157TIP3    H1 6477   2.407   5.964   4.401 -1.0732  4.2158  1.6404
 2157TIP3    H2 6478   2.309   5.977   4.286 -0.2888  1.7677  0.6236
 2158TIP3   OH2 6479   2.781   0.033   1.672 -0.1866  0.4710 -0.0409
 2158TIP3    H1 6480   2.707   0.050   1.729 -1.0348 -0.9508 -0.6708
 2158TIP3    H2 6481   2.782   0.107   1.611 -0.8351  0.6941  0.2133
 2159TIP3   OH2 6482   0.112   1.262   0.554 -0.5868  0.1817 -0.0278
 2159TIP3    H1 6483   0.049   1.251   0.625 -0.0137 -0.5134  0.3945
 2159TIP3    H2 6484   0.111   1.356   0.535 -1.9418  0.1339 -0.2290
 2160TIP3   OH2 6485   2.161   5.594   4.732 -0.1478  0.1412 -0.2740
 2160TIP3    H1 6486   2.189   5.542   4.807  0.1856 -0.6614 -0.9430
 2160TIP3    H2 6487   2.222   5.667   4.729  0.6318 -0.5067 -0.5149
 2161TIP3   OH2 6488   2.404   1.072   4.502  0.4968  0.5639 -0.4779
 2161TIP3    H1 6489   2.476   1.042   4.557 -1.9636  1.2514  3.5312
 2161TIP3    H2 6490   2.418   1.166   4.493 -0.0096  0.7495  0.5675
 2162TIP3   OH2 6491   3.112   1.962   2.390  0.4838 -0.0337  0.3182
 2162TIP3    H1 6492   3.190   1.916   2.421  0.2996 -1.3943 -1.0954
 2162TIP3    H2 6493   3.051   1.892   2.364  0.1069  0.9658 -1.7139
 2163TIP3   OH2 6494   0.928   0.930   0.416  0.3566  0.3951  0.6184
 2163TIP3    H1 6495   0.868   0.915   0.343 -0.3721  2.2239  0.7964
 2163TIP3    H2 6496   1.011   0.889   0.388  0.7855  2.9229 -2.2542
 2164TIP3   OH2 6497   1.533   5.591   3.243  0.1583 -0.0977  0.1343
 2164TIP3    H1 6498   1.601   5.649   3.277  0.2575  0.7217 -1.3520
 2164TIP3    H2 6499   1.479   5.570   3.319 -0.4703  2.7606  0.5840
 2165TIP3   OH2 6500   3.187   0.547   4.356  0.1599  0.2019 -0.0766
 2165TIP3    H1 6501   3.208   0.466   4.403 -0.3479  0.5572  0.7948
 2165TIP3    H2 6502   3.192   0.615   4.423 -2.2185  0.5165 -0.1319
 2166TIP3   OH2 6503   2.413   2.215   4.348 -0.6694 -0.0764 -0.2292
 2166TIP3    H1 6504   2.388   2.134   4.303  0.9957 -0.1841 -1.0366
 2166TIP3    H2 6505   2.454   2.269   4.280  0.4888  0.4106  0.8148
 2167TIP3   OH2 6506   3.624   3.660   4.492 -0.0728 -0.0954  0.7041
 2167TIP3    H1 6507   3.666   3.581   4.458 -0.7190  0.0320 -0.4516
 2167TIP3    H2 6508   3.599   3.710   4.414 -1.4884  0.2808  1.3575
 2168TIP3   OH2 6509   0.201   2.711   1.055 -0.2724  0.0409 -0.0293
 2168TIP3    H1 6510   0.147   2.782   1.018 -1.1726 -0.0392  1.0740
 2168TIP3    H2 6511   0.172   2.704   1.145  1.3892 -0.2456  0.5118
 2169TIP3   OH2 6512   4.561   1.495   3.811  0.7555  0.6926  0.0912
 2169TIP3    H1 6513   4.526   1.578   3.844 -0.7075 -0.1096  0.6486
 2169TIP3    H2 6514   4.642   1.482   3.860 -0.0347  0.8168  1.4608
 2170TIP3   OH2 6515   2.397   4.409   2.604 -0.5811  0.6254 -0.0861
 2170TIP3    H1 6516   2.472   4.354   2.582 -1.2243  0.5468 -2.3392
 2170TIP3    H2 6517   2.363   4.372   2.686  1.7164  0.5931  0.9394
 2171TIP3   OH2 6518   1.894   5.665   4.621 -0.4110 -0.0504  0.1982
 2171TIP3    H1 6519   1.863   5.575   4.620  1.3557 -0.6989  0.9453
 2171TIP3    H2 6520   1.957   5.668   4.693  0.9888  1.2946 -1.0240
 2172TIP3   OH2 6521   2.216   2.261   2.039 -0.3082 -0.4360 -0.5316
 2172TIP3    H1 6522   2.278   2.269   1.967  0.2661  0.9611  0.0917
 2172TIP3    H2 6523   2.219   2.169   2.063  0.0922 -0.7624 -1.7567
 2173TIP3   OH2 6524   0.232   2.713   2.860  0.4042  0.2612  0.1800
 2173TIP3    H1 6525   0.191   2.726   2.945 -0.2664 -0.6543  0.0062
 2173TIP3    H2 6526   0.169   2.748   2.797  1.3291  1.8659  0.0952
 2174TIP3   OH2 6527   5.503   4.036   0.468  0.0881 -0.5468 -0.1161
 2174TIP3    H1 6528   5.511   4.007   0.377  1.7778 -2.9254  0.6872
 2174TIP3    H2 6529   5.415   4.009   0.494  0.5310 -2.2739 -0.3142
 2175TIP3   OH2 6530   5.589   3.046   4.509 -0.1885 -0.0231 -0.8129
 2175TIP3    H1 6531   5.657   2.988   4.544  0.1105  0.3174 -0.8165
 2175TIP3    H2 6532   5.523   2.987   4.473 -1.5188 -0.4788  2.0553
 2176TIP3   OH2 6533   5.638   2.061   0.359 -0.1747 -0.4176 -0.0978
 2176TIP3    H1 6534   5.715   2.105   0.322 -0.1809 -0.9121 -0.7004
 2176TIP3    H2 6535   5.598   2.016   0.285 -1.3669  0.2924  0.0939
 2177TIP3   OH2 6536   6.282   0.663   2.629 -0.2347 -0.0366  0.2240
 2177TIP3    H1 6537   6.289   0.575   2.664  0.4029  0.0933  0.4422
 2177TIP3    H2 6538   6.189   0.674   2.609 -0.5849 -0.1886  1.6884
 2178TIP3   OH2 6539   0.758   0.341   3.747 -0.2549  0.4174  0.1382
 2178TIP3    H1 6540   0.725   0.390   3.822 -0.1100  0.3500  0.2468
 2178TIP3    H2 6541   0.719   0.385   3.671  0.0431  0.8352  0.2208
 2179TIP3   OH2 6542   5.264   5.258   1.799  0.1092  0.2020 -0.3479
 2179TIP3    H1 6543   5.339   5.306   1.766  0.7351 -0.9424 -0.6442
 2179TIP3    H2 6544   5.299   5.172   1.823 -0.9219 -0.0315  0.4121
 2180TIP3   OH2 6545   4.043   2.537   1.495 -0.0059  0.6136  0.2917
 2180TIP3    H1 6546   4.105   2.561   1.426  0.9258 -1.8803  0.1767
 2180TIP3    H2 6547   4.096   2.536   1.575  0.0475 -1.0385  0.2685
 2181TIP3   OH2 6548   3.096   5.844  -0.009  0.2696  0.1772  0.3672
 2181TIP3    H1 6549   3.043   5.911   0.034 -0.1436 -0.3355  0.6737
 2181TIP3    H2 6550   3.097   5.771   0.053  0.8095 -0.0554  0.0894
 2182TIP3   OH2 6551   0.305   1.657   1.304  0.0602 -0.0644  0.0350
 2182TIP3    H1 6552   0.360   1.638   1.381 -0.7489 -1.3941  0.3219
 2182TIP3    H2 6553   0.220   1.618   1.326 -0.2249 -0.3351 -1.4834
 2183TIP3   OH2 6554   3.462   0.919   4.097 -0.2275 -0.2210 -0.0049
 2183TIP3    H1 6555   3.481   1.011   4.114 -0.8222 -0.0876 -0.0314
 2183TIP3    H2 6556   3.393   0.897   4.160 -0.3881 -0.5267 -0.2822
 2184TIP3   OH2 6557   4.961   3.417   1.333 -0.3324  0.1384  0.0337
 2184TIP3    H1 6558   5.018   3.494   1.330 -0.5693  0.2896 -1.4160
 2184TIP3    H2 6559   4.979   3.377   1.418 -0.0902  1.7055  0.7707
 2185TIP3   OH2 6560   2.299   0.424   3.020 -0.6369  0.0005 -0.4042
 2185TIP3    H1 6561   2.279   0.513   3.049  2.3714  0.6830 -0.1642
 2185TIP3    H2 6562   2.229   0.371   3.059 -2.4813  2.1799 -0.4955
 2186TIP3   OH2 6563   3.980   0.875   3.142 -0.1286 -0.1718 -0.5550
 2186TIP3    H1 6564   3.962   0.880   3.236 -0.9964 -0.0454 -0.7193
 2186TIP3    H2 6565   3.902   0.911   3.101  0.4483  0.2313 -1.3162
 2187TIP3   OH2 6566   3.234   5.931   5.014 -0.0247  0.0636  0.3229
 2187TIP3    H1 6567   3.312   5.879   5.035  0.3167  0.9011  1.1863
 2187TIP3    H2 6568   3.234   6.002   5.078 -1.0025  0.6015 -0.2470
 2188TIP3   OH2 6569   2.108   4.664   0.820  0.1213  0.2445 -0.0784
 2188TIP3    H1 6570   2.128   4.645   0.728  0.5013  2.7826 -0.5697
 2188TIP3    H2 6571   2.172   4.612   0.869 -0.3797 -1.5164 -1.1754
 2189TIP3   OH2 6572   0.679   1.607   1.770  0.2441 -0.0236  0.3801
 2189TIP3    H1 6573   0.714   1.567   1.850  0.0885 -2.6912 -0.7696
 2189TIP3    H2 6574   0.738   1.576   1.701 -1.5355 -0.5899 -0.9546
 2190TIP3   OH2 6575   4.701   5.174   1.960  0.3961  0.3164  0.3675
 2190TIP3    H1 6576   4.657   5.098   1.921 -0.2492  0.0064  1.6303
 2190TIP3    H2 6577   4.790   5.171   1.924  0.3225 -0.9392  0.2443
 2191TIP3   OH2 6578   0.832   2.263   3.032 -0.1298  0.1107 -0.0304
 2191TIP3    H1 6579   0.799   2.337   2.981  0.0164 -0.1672 -0.5372
 2191TIP3    H2 6580   0.868   2.203   2.967  0.3687 -0.0986  0.4287
 2192TIP3   OH2 6581   2.275   2.207   1.091 -0.5266  0.3307 -0.0442
 2192TIP3    H1 6582   2.261   2.265   1.166 -2.0498  1.3165 -1.0372
 2192TIP3    H2 6583   2.353   2.157   1.114 -0.9012  0.6468  2.1573
 2193TIP3   OH2 6584   1.185   5.883   1.008  0.0428 -0.3099 -0.1618
 2193TIP3    H1 6585   1.251   5.911   1.071 -0.8153 -0.1008  0.6610
 2193TIP3    H2 6586   1.228   5.894   0.923  2.2111 -3.0985  0.3889
 2194TIP3   OH2 6587   1.998   2.748   4.709 -0.1851  0.1083  0.6313
 2194TIP3    H1 6588   1.989   2.692   4.786 -1.6675  1.0061  1.1489
 2194TIP3    H2 6589   2.070   2.806   4.729  1.8118 -1.9414 -0.1688
 2195TIP3   OH2 6590   5.866   3.290   4.125 -0.0336  0.3982  0.0884
 2195TIP3    H1 6591   5.832   3.330   4.205  0.8647  0.8767  0.2539
 2195TIP3    H2 6592   5.959   3.276   4.144 -0.0353 -0.4607 -0.4953
 2196TIP3   OH2 6593   6.310   3.420   2.186  0.0232  0.0386 -0.4475
 2196TIP3    H1 6594   6.322   3.513   2.164 -0.9705  0.2811 -0.0084
 2196TIP3    H2 6595   6.278   3.380   2.106 -0.5479  0.2902 -0.3499
 2197TIP3   OH2 6596   3.466   4.889   4.012 -0.3927 -0.3462 -0.0828
 2197TIP3    H1 6597   3.435   4.819   3.956 -2.3448  0.6047 -0.2922
 2197TIP3    H2 6598   3.461   4.968   3.957  1.1259  0.0640  0.3371
 2198TIP3   OH2 6599   5.253   1.626   2.088  0.1425 -0.0753  0.2460
 2198TIP3    H1 6600   5.309   1.583   2.154 -0.4311  1.5184  1.8432
 2198TIP3    H2 6601   5.297   1.709   2.070 -1.2964  0.8892  1.0074
 2199TIP3   OH2 6602   2.799   1.643   4.770  0.3586  0.0870  0.3266
 2199TIP3    H1 6603   2.883   1.689   4.761 -0.1413  0.9943  0.1618
 2199TIP3    H2 6604   2.816   1.555   4.737  1.3172  0.1829  0.5482
 2200TIP3   OH2 6605   3.126   4.062   1.007  0.7883 -0.5475 -0.3665
 2200TIP3    H1 6606   3.151   3.972   0.989  0.4869 -0.1209 -3.4214
 2200TIP3    H2 6607   3.151   4.110   0.928 -2.0324  1.4265 -0.2189
 2201TIP3   OH2 6608   4.797   3.327   2.579 -0.2109  0.0973  0.1303
 2201TIP3    H1 6609   4.860   3.263   2.549  0.3026  1.0851 -0.9855
 2201TIP3    H2 6610   4.712   3.286   2.565  0.1379 -1.1483  1.4342
 2202TIP3   OH2 6611   3.300   3.263   3.103  0.4086  0.1575  0.0255
 2202TIP3    H1 6612   3.225   3.234   3.153  1.7509 -1.2731  1.3161
 2202TIP3    H2 6613   3.263   3.303   3.024 -1.6861  0.2647  1.0080
 2203TIP3   OH2 6614   2.971   3.348   3.441 -0.1305 -0.6870 -0.1727
 2203TIP3    H1 6615   2.883   3.313   3.430  0.5958 -2.3802 -0.9028
 2203TIP3    H2 6616   3.022   3.311   3.369  0.0898  4.4135 -3.1217
 2204TIP3   OH2 6617   6.195   2.673   3.840 -0.0866 -0.2251 -0.1902
 2204TIP3    H1 6618   6.143   2.645   3.765  0.6029 -2.5563  0.1409
 2204TIP3    H2 6619   6.155   2.629   3.915 -1.0447  2.4127  0.9848
 2205TIP3   OH2 6620   3.618   5.202   1.054  0.0234  0.4002  0.1766
 2205TIP3    H1 6621   3.696   5.257   1.058 -1.1832  2.1926  0.1042
 2205TIP3    H2 6622   3.580   5.208   1.141 -1.7862  2.2773 -0.6784
 2206TIP3   OH2 6623   4.641   2.070   0.573 -0.5997  0.3605 -0.2146
 2206TIP3    H1 6624   4.561   2.053   0.624  0.1607 -1.3395  0.4647
 2206TIP3    H2 6625   4.624   2.031   0.488 -0.7985  0.7316 -0.3475
 2207TIP3   OH2 6626   5.419   2.181   0.994  0.3185  0.2548  0.0755
 2207TIP3    H1 6627   5.499   2.201   1.043  0.2668  3.7677 -0.9719
 2207TIP3    H2 6628   5.445   2.113   0.932  2.1959  0.4993  0.5300
 2208TIP3   OH2 6629   4.745   5.856   4.032  0.3706  0.1143  0.4133
 2208TIP3    H1 6630   4.771   5.944   4.007 -0.5579  0.1482 -0.5118
 2208TIP3    H2 6631   4.724   5.863   4.126 -0.1971  1.0102  0.2319
 2209TIP3   OH2 6632   4.566   2.509   0.148 -0.0721  0.2409  0.0500
 2209TIP3    H1 6633   4.570   2.414   0.156 -1.2069  0.2642  1.1718
 2209TIP3    H2 6634   4.506   2.524   0.074  2.0214  0.1116 -1.7780
 2210TIP3   OH2 6635   4.650   2.354   1.179 -0.0540 -0.6290  0.7895
 2210TIP3    H1 6636   4.657   2.438   1.223 -0.6682 -0.4000  0.4659
 2210TIP3    H2 6637   4.740   2.327   1.162  0.1505 -0.1850  1.1733
 2211TIP3   OH2 6638   4.050   1.517   2.829 -0.1624 -0.0981  0.8021
 2211TIP3    H1 6639   4.047   1.579   2.756 -0.4584 -0.8087  0.2054
 2211TIP3    H2 6640   3.979   1.545   2.887 -0.0117  0.3864  0.7574
 2212TIP3   OH2 6641   1.428   0.344   3.523  0.4306  0.1265 -0.8764
 2212TIP3    H1 6642   1.505   0.310   3.567 -0.4398 -0.0452  0.5994
 2212TIP3    H2 6643   1.451   0.434   3.498  1.8663 -0.6581 -2.5425
 2213TIP3   OH2 6644   2.657   3.104   5.058  0.3976 -0.1093 -0.1482
 2213TIP3    H1 6645   2.695   3.170   5.116  0.1495  0.4913 -0.6679
 2213TIP3    H2 6646   2.574   3.142   5.028  0.4175 -0.5071 -0.7262
 2214TIP3   OH2 6647   0.227   4.825   3.268 -0.5075 -0.1621  0.4654
 2214TIP3    H1 6648   0.217   4.730   3.264 -1.1086 -0.1169  0.7473
 2214TIP3    H2 6649   0.260   4.849   3.181 -1.0775 -0.5467  0.1350
 2215TIP3   OH2 6650   4.544   5.544   5.105 -0.2817  0.0793  0.0900
 2215TIP3    H1 6651   4.531   5.510   5.194 -0.8113  0.2507  0.0778
 2215TIP3    H2 6652   4.621   5.497   5.073 -0.8910 -0.9957  0.1472
 2216TIP3   OH2 6653   2.325   3.287   1.089  0.4688 -0.0306 -0.7805
 2216TIP3    H1 6654   2.399   3.309   1.146  0.4408 -0.5459 -0.5341
 2216TIP3    H2 6655   2.263   3.359   1.101 -0.4851 -1.1208  1.5096
 2217TIP3   OH2 6656   2.817   4.546   4.625  0.3197  0.3484 -0.1843
 2217TIP3    H1 6657   2.738   4.595   4.651  0.2003 -1.1014  2.6370
 2217TIP3    H2 6658   2.889   4.593   4.666  0.7682  0.7124 -1.3481
 2218TIP3   OH2 6659   2.538   0.708   2.848 -0.1396  0.3392 -0.3325
 2218TIP3    H1 6660   2.536   0.612   2.842  1.1021  0.3578 -1.2494
 2218TIP3    H2 6661   2.531   0.725   2.942 -0.1779 -0.6510 -0.1375
 2219TIP3   OH2 6662   1.596   4.513   0.247  0.1479  0.0500  0.2075
 2219TIP3    H1 6663   1.537   4.512   0.171 -0.8917 -0.2883  0.9957
 2219TIP3    H2 6664   1.631   4.423   0.251 -1.2562 -0.4776  1.2138
 2220TIP3   OH2 6665   4.701   1.926   4.353  0.1970 -0.5775 -0.2307
 2220TIP3    H1 6666   4.709   1.976   4.434  1.9115 -2.3252  0.7699
 2220TIP3    H2 6667   4.613   1.947   4.320 -0.4350  0.4222  1.9256
 2221TIP3   OH2 6668   1.762   3.957   3.874  0.3932 -0.0673  0.0334
 2221TIP3    H1 6669   1.817   3.978   3.950  0.3758  0.7484 -0.1625
 2221TIP3    H2 6670   1.673   3.961   3.907  0.4188 -0.7135  0.1942
 2222TIP3   OH2 6671   0.128   2.719   0.405 -0.1066 -0.1188  0.1820
 2222TIP3    H1 6672   0.211   2.751   0.442 -0.3787  0.7523  0.0681
 2222TIP3    H2 6673   0.063   2.735   0.473 -0.4090  0.4545 -0.2269
 2223TIP3   OH2 6674   1.985   4.389   2.409  0.4348  0.4011  0.1029
 2223TIP3    H1 6675   1.978   4.481   2.384 -0.2153  0.5772  0.8643
 2223TIP3    H2 6676   2.003   4.392   2.503  2.7159 -0.2224 -0.2661
 2224TIP3   OH2 6677   4.853   4.123   3.070 -0.1451  0.4169 -0.2148
 2224TIP3    H1 6678   4.892   4.208   3.049  0.6688 -0.2246 -1.3803
 2224TIP3    H2 6679   4.926   4.062   3.069 -0.7447 -0.3316  0.4998
 2225TIP3   OH2 6680   1.558   1.300   4.534  0.1683 -0.0059 -0.6354
 2225TIP3    H1 6681   1.578   1.385   4.572 -1.5289  0.4323 -0.6498
 2225TIP3    H2 6682   1.464   1.288   4.550 -0.1866 -0.7084 -2.8487
 2226TIP3   OH2 6683   6.267   0.819   1.211  0.0863  0.7772  0.5186
 2226TIP3    H1 6684   6.313   0.817   1.295  2.4185  0.8611 -0.6816
 2226TIP3    H2 6685   6.185   0.863   1.230 -0.4075 -1.0130  3.1621
 2227TIP3   OH2 6686   2.354   3.788   3.750 -0.1739 -0.2901  0.4725
 2227TIP3    H1 6687   2.378   3.872   3.712  2.1326 -1.9457 -2.1278
 2227TIP3    H2 6688   2.264   3.773   3.719 -0.3365  0.8727  0.3421
 2228TIP3   OH2 6689   2.603   4.491   1.141 -0.1294  0.0039 -0.1925
 2228TIP3    H1 6690   2.515   4.488   1.105  0.0062 -0.5873 -0.5008
 2228TIP3    H2 6691   2.642   4.407   1.114  0.1592 -0.2145  0.8736
 2229TIP3   OH2 6692   4.348   3.659   1.690 -0.2604  0.0002 -0.4694
 2229TIP3    H1 6693   4.340   3.753   1.706  1.0422 -0.1395  1.2452
 2229TIP3    H2 6694   4.317   3.618   1.771  0.2226 -1.0122 -0.7809
 2230TIP3   OH2 6695   4.620   4.934   1.848  0.4274  0.1635 -0.2437
 2230TIP3    H1 6696   4.540   4.885   1.869 -0.9466  1.7534 -1.5266
 2230TIP3    H2 6697   4.689   4.887   1.894 -1.4643 -0.2468  2.4114
 2231TIP3   OH2 6698   1.781   1.990   1.154  0.4372  0.5277  0.2853
 2231TIP3    H1 6699   1.876   2.002   1.161  0.6667 -0.3989 -0.9735
 2231TIP3    H2 6700   1.761   1.925   1.222  0.9650 -0.4691 -0.4894
 2232TIP3   OH2 6701   4.074   3.274   0.607  0.1517  0.1587  0.0307
 2232TIP3    H1 6702   4.040   3.199   0.558  0.3391 -0.0412  0.2020
 2232TIP3    H2 6703   4.168   3.256   0.617 -0.0464 -0.3142  1.3256
 2233TIP3   OH2 6704   2.499   5.258   3.919 -0.4708 -0.2573 -0.8359
 2233TIP3    H1 6705   2.438   5.285   3.988 -0.8254 -1.0774 -0.8170
 2233TIP3    H2 6706   2.526   5.340   3.878 -1.3317  0.1463 -0.6266
 2234TIP3   OH2 6707   5.575   0.795   4.257  0.0202  0.1407  0.6014
 2234TIP3    H1 6708   5.555   0.712   4.215  0.2798 -0.6242  1.9505
 2234TIP3    H2 6709   5.490   0.830   4.284 -0.0008 -0.2775  1.0986
 2235TIP3   OH2 6710   2.102   0.897   0.900 -0.1606  0.7451 -0.0469
 2235TIP3    H1 6711   2.061   0.936   0.977  0.4852 -0.1114  0.7540
 2235TIP3    H2 6712   2.034   0.842   0.862 -0.1761  0.3668  0.5115
 2236TIP3   OH2 6713   4.762   0.353   2.721 -0.1218  0.1248  0.3492
 2236TIP3    H1 6714   4.790   0.318   2.806  0.6789 -2.1182 -0.7574
 2236TIP3    H2 6715   4.723   0.278   2.676 -1.1115  1.4192 -1.0292
 2237TIP3   OH2 6716   3.294   5.190   3.193 -0.0063 -0.1474  0.4550
 2237TIP3    H1 6717   3.365   5.191   3.257  0.2642 -0.8672  0.1730
 2237TIP3    H2 6718   3.320   5.124   3.129 -0.3040  0.5089 -0.3616
 2238TIP3   OH2 6719   0.870   2.841   1.352  0.5552  0.7199  0.6435
 2238TIP3    H1 6720   0.855   2.755   1.313  2.3530 -0.1861  1.7902
 2238TIP3    H2 6721   0.925   2.823   1.429 -1.1519  2.6247  2.4290
 2239TIP3   OH2 6722   3.365   1.487   3.263 -0.6022 -0.0832 -0.1927
 2239TIP3    H1 6723   3.401   1.523   3.182  1.0200 -0.5842  0.2823
 2239TIP3    H2 6724   3.395   1.547   3.332 -0.9420 -0.3466  0.1939
 2240TIP3   OH2 6725   2.134   0.072   1.184 -0.8126 -0.3467  0.1205
 2240TIP3    H1 6726   2.108   0.154   1.226 -0.7938 -0.6454  0.7198
 2240TIP3    H2 6727   2.230   0.078   1.180 -0.8969  0.6360 -1.8498
 2241TIP3   OH2 6728   2.356   5.884   2.733  0.3440  0.4819 -0.3769
 2241TIP3    H1 6729   2.406   5.833   2.670 -0.5079 -0.3932 -0.3627
 2241TIP3    H2 6730   2.289   5.824   2.766  1.0664  0.7494  1.7534
 2242TIP3   OH2 6731   1.185   3.941   0.072 -0.4720  0.2463 -0.1356
 2242TIP3    H1 6732   1.116   3.979   0.019 -0.0408 -0.0368 -0.9253
 2242TIP3    H2 6733   1.176   3.847   0.058  1.7263  0.2531 -2.5053
 2243TIP3   OH2 6734   6.222   4.892   2.959  0.4656  0.3635 -0.1362
 2243TIP3    H1 6735   6.278   4.970   2.959 -0.9353  1.4274  0.9372
 2243TIP3    H2 6736   6.274   4.825   3.002  0.2808  1.8832  2.6699
 2244TIP3   OH2 6737   3.367   5.939   0.047 -0.5014  0.1620  0.7163
 2244TIP3    H1 6738   3.275   5.944   0.019 -0.3805  1.4281  0.4982
 2244TIP3    H2 6739   3.375   6.005   0.115 -0.0236 -0.7813  1.5975
 2245TIP3   OH2 6740   4.995   2.933   1.177  0.2478 -0.4446 -0.0428
 2245TIP3    H1 6741   4.957   2.967   1.096 -1.5881 -2.1418  0.0209
 2245TIP3    H2 6742   5.033   2.849   1.152  1.3018 -0.1546  0.5291
 2246TIP3   OH2 6743   4.558   5.613   3.667 -0.2389 -0.3963 -0.2922
 2246TIP3    H1 6744   4.579   5.678   3.600  1.2412 -1.8824 -1.3401
 2246TIP3    H2 6745   4.464   5.600   3.659 -0.8415  2.5621  0.8763
 2247TIP3   OH2 6746   0.352   2.165   0.064 -0.1113  0.1547  0.0179
 2247TIP3    H1 6747   0.382   2.177   0.154 -0.8203 -0.6887  0.3746
 2247TIP3    H2 6748   0.258   2.186   0.067 -0.1396  0.1226 -0.5275
 2248TIP3   OH2 6749   3.434   4.609   3.943 -0.4290  0.0216 -0.4167
 2248TIP3    H1 6750   3.479   4.576   3.865 -0.8554 -2.1122  0.1952
 2248TIP3    H2 6751   3.454   4.546   4.011 -0.6744  1.4644  1.0596
 2249TIP3   OH2 6752   0.888   2.412   3.679  0.6528 -0.3216 -0.2546
 2249TIP3    H1 6753   0.879   2.493   3.629  1.5620 -0.7665 -1.1763
 2249TIP3    H2 6754   0.883   2.440   3.771 -0.2506  0.6079 -0.5605
 2250TIP3   OH2 6755   1.524   1.063   0.560 -0.6095  0.2387  0.3824
 2250TIP3    H1 6756   1.569   1.038   0.479 -1.0506  0.6944 -0.0115
 2250TIP3    H2 6757   1.592   1.103   0.614 -0.4637  0.6086 -0.0681
 2251TIP3   OH2 6758   2.916   5.175   4.427 -0.1952  0.7662  0.1929
 2251TIP3    H1 6759   2.983   5.110   4.446  1.4256  2.3399  0.2038
 2251TIP3    H2 6760   2.877   5.195   4.512 -0.4602  0.0741  0.2385
 2252TIP3   OH2 6761   5.031   3.582   2.167 -0.3603  1.2256 -0.2442
 2252TIP3    H1 6762   5.025   3.488   2.149  1.4753  1.0961 -0.3961
 2252TIP3    H2 6763   5.025   3.588   2.262  3.4297  0.4512  0.2144
 2253TIP3   OH2 6764   4.244   3.212   3.447  0.3998  0.6438 -0.0290
 2253TIP3    H1 6765   4.314   3.170   3.497 -0.7917 -2.9462 -1.0528
 2253TIP3    H2 6766   4.286   3.285   3.403  3.3421 -0.8777  0.0109
 2254TIP3   OH2 6767   4.467   4.624   0.147 -0.1609 -0.0082  0.3148
 2254TIP3    H1 6768   4.509   4.581   0.222 -0.9982  0.8289  1.2745
 2254TIP3    H2 6769   4.448   4.712   0.177  0.5740  0.7404 -1.2984
 2255TIP3   OH2 6770   4.566   3.610   0.510 -0.0619 -0.2233 -0.9097
 2255TIP3    H1 6771   4.644   3.567   0.547 -0.1194  0.7897  0.4920
 2255TIP3    H2 6772   4.555   3.689   0.564 -2.2212 -0.4901 -0.8843
 2256TIP3   OH2 6773   0.009   4.473   2.642 -0.4262 -0.7782 -0.3554
 2256TIP3    H1 6774   0.004   4.528   2.720 -2.4632 -0.7953 -0.4136
 2256TIP3    H2 6775   0.102   4.456   2.630  0.1694  1.5648  0.4192
 2257TIP3   OH2 6776   1.846   0.623   2.495  0.3860  0.7804 -0.1739
 2257TIP3    H1 6777   1.885   0.617   2.408 -1.1768 -2.3362 -0.8022
 2257TIP3    H2 6778   1.752   0.612   2.481  0.0825  0.2443  1.8852
 2258TIP3   OH2 6779   3.235   4.764   1.593  0.3279 -0.0070  0.5226
 2258TIP3    H1 6780   3.153   4.767   1.544  0.5294 -0.4026  0.1547
 2258TIP3    H2 6781   3.290   4.701   1.545  0.1223 -1.2786  1.8623
 2259TIP3   OH2 6782   1.727   2.375   4.024 -0.4026  0.3397  0.1311
 2259TIP3    H1 6783   1.673   2.453   4.035 -1.2180 -0.1052 -0.5372
 2259TIP3    H2 6784   1.791   2.399   3.958 -0.2475  0.6410  0.3893
 2260TIP3   OH2 6785   6.097   4.410   2.610 -0.2280  0.0260 -0.6129
 2260TIP3    H1 6786   6.191   4.420   2.596  0.2452 -2.3452  0.2826
 2260TIP3    H2 6787   6.072   4.485   2.663  1.3272  0.2647 -0.1677
 2261TIP3   OH2 6788   4.489   0.784   3.260  0.2142 -0.2360 -0.1230
 2261TIP3    H1 6789   4.477   0.879   3.267  1.0726 -0.0254 -1.1717
 2261TIP3    H2 6790   4.427   0.758   3.192  0.5004 -0.3111 -0.3533
 2262TIP3   OH2 6791   2.163   0.661   3.133 -0.1135  0.6957  0.1727
 2262TIP3    H1 6792   2.107   0.656   3.055 -0.5850 -0.2512  0.5533
 2262TIP3    H2 6793   2.157   0.752   3.162  0.0513  1.0512 -0.8793
 2263TIP3   OH2 6794   3.246   2.030   1.081  0.1272  0.0721  0.0718
 2263TIP3    H1 6795   3.220   1.986   1.162  0.5407  0.1903  0.2699
 2263TIP3    H2 6796   3.209   2.118   1.088  0.1255  0.0683  0.1114
 2264TIP3   OH2 6797   2.321   1.041   3.401 -0.2079 -0.1836  0.3439
 2264TIP3    H1 6798   2.408   1.023   3.367 -0.1977  0.3742  0.0722
 2264TIP3    H2 6799   2.293   1.122   3.358  0.2931  1.2302  2.4875
 2265TIP3   OH2 6800   3.424   3.261   4.976  0.2309 -0.0489  0.1125
 2265TIP3    H1 6801   3.504   3.264   4.922  0.9755  2.2687  1.1850
 2265TIP3    H2 6802   3.358   3.306   4.923 -0.1200 -1.1142 -0.3769
 2266TIP3   OH2 6803   2.853   5.865   4.891 -0.5672  0.5108  0.1570
 2266TIP3    H1 6804   2.859   5.960   4.904  0.9325  0.6331 -1.0905
 2266TIP3    H2 6805   2.943   5.838   4.877 -1.0338 -1.0482  0.0575
 2267TIP3   OH2 6806   3.661   3.476   3.657 -0.1757  0.1268 -0.5346
 2267TIP3    H1 6807   3.567   3.490   3.650 -0.1296  0.6047 -0.2042
 2267TIP3    H2 6808   3.669   3.384   3.684 -0.5560  0.1619 -0.2851
 2268TIP3   OH2 6809   2.894   4.152   1.401  0.3134 -0.1300 -0.2117
 2268TIP3    H1 6810   2.816   4.139   1.346  0.1836  0.5460 -0.1970
 2268TIP3    H2 6811   2.958   4.192   1.342  0.7459 -0.9135 -0.2905
 2269TIP3   OH2 6812   6.293   2.278   0.782 -0.1695  0.1678 -0.5802
 2269TIP3    H1 6813   6.239   2.218   0.731  0.9583 -1.2502 -0.1752
 2269TIP3    H2 6814   6.337   2.332   0.716 -1.0095  0.3920 -0.9661
 2270TIP3   OH2 6815   3.469   2.782   0.970  0.4604  0.1247 -0.2842
 2270TIP3    H1 6816   3.477   2.692   0.938  1.5949  0.1708 -0.1542
 2270TIP3    H2 6817   3.380   2.786   1.006 -0.1725 -0.4840 -1.6849
 2271TIP3   OH2 6818   0.991   1.636   1.967 -0.4964  0.3729 -0.1850
 2271TIP3    H1 6819   1.072   1.683   1.945 -0.0386  0.3393  1.3543
 2271TIP3    H2 6820   0.922   1.701   1.952 -0.2922  0.1774 -2.2280
 2272TIP3   OH2 6821   2.053   5.965   0.238  0.0919 -0.3495  0.0432
 2272TIP3    H1 6822   2.123   5.900   0.234  1.6582  1.0712  2.2373
 2272TIP3    H2 6823   2.039   5.991   0.147  1.2341 -1.8459 -0.6013
 2273TIP3   OH2 6824   4.117   5.789   4.604  0.2801  0.8011  0.0527
 2273TIP3    H1 6825   4.188   5.839   4.644 -0.2529  0.8457  0.9701
 2273TIP3    H2 6826   4.125   5.701   4.642  0.1620  0.6640 -0.2368
 2274TIP3   OH2 6827   6.178   3.418   0.932  0.1891 -0.3790  0.0214
 2274TIP3    H1 6828   6.135   3.463   0.859 -1.8499 -0.1313  1.3230
 2274TIP3    H2 6829   6.223   3.487   0.980  1.8525 -0.5916 -1.1463
 2275TIP3   OH2 6830   1.034   2.654   2.194  0.4495  0.5368 -0.0369
 2275TIP3    H1 6831   1.082   2.587   2.242  0.6022  0.0394 -0.8647
 2275TIP3    H2 6832   0.978   2.696   2.259  0.1930 -0.5359  0.4413
 2276TIP3   OH2 6833   0.757   5.941   4.352 -0.2014 -0.1917  0.6018
 2276TIP3    H1 6834   0.830   5.887   4.320  0.2480  0.8335 -0.1444
 2276TIP3    H2 6835   0.679   5.898   4.318  0.1959  0.0632 -0.6873
 2277TIP3   OH2 6836   1.000   5.753   1.171  0.7950 -0.3537  0.0490
 2277TIP3    H1 6837   1.060   5.776   1.100 -1.3569  0.1430 -1.7027
 2277TIP3    H2 6838   0.948   5.681   1.136 -0.7243  0.3061  0.8757
 2278TIP3   OH2 6839   6.013   5.619   3.436 -0.1393  0.0825  0.1226
 2278TIP3    H1 6840   5.966   5.694   3.400 -2.2903 -0.1923  2.0900
 2278TIP3    H2 6841   6.002   5.550   3.370 -0.7114  0.6404 -0.3833
 2279TIP3   OH2 6842   1.000   1.919   2.205  0.6954 -0.0810  0.2888
 2279TIP3    H1 6843   0.909   1.899   2.225  0.2720 -0.4794 -1.8445
 2279TIP3    H2 6844   0.996   1.995   2.147  1.6248 -0.8859 -0.8695
 2280TIP3   OH2 6845   1.705   3.474   4.061  0.2063  0.4417  0.1078
 2280TIP3    H1 6846   1.626   3.430   4.092 -0.2735  0.9887 -0.3241
 2280TIP3    H2 6847   1.755   3.406   4.016  0.7541 -0.2865  1.7585
 2281TIP3   OH2 6848   0.874   3.407   3.825  0.0986 -0.3949 -0.2754
 2281TIP3    H1 6849   0.951   3.463   3.827 -0.5649  0.5349  0.6086
 2281TIP3    H2 6850   0.819   3.445   3.756  0.6834 -1.4356 -1.3428
 2282TIP3   OH2 6851   0.979   3.798   1.502 -0.3640  0.1581 -0.2705
 2282TIP3    H1 6852   0.930   3.756   1.572 -0.9591 -0.2630 -0.9269
 2282TIP3    H2 6853   1.050   3.736   1.482 -0.1482  0.3135  0.0031
 2283TIP3   OH2 6854   3.323   3.007   0.187 -0.0300  0.5237  0.1378
 2283TIP3    H1 6855   3.274   3.022   0.106  0.6905  0.1342 -0.3770
 2283TIP3    H2 6856   3.268   2.947   0.237 -0.6881  1.1102  0.1492
 2284TIP3   OH2 6857   0.743   1.107   3.413  0.2572 -0.5014  0.0503
 2284TIP3    H1 6858   0.838   1.102   3.420  0.3499  0.5006 -0.3204
 2284TIP3    H2 6859   0.715   1.017   3.394  1.2444 -0.5876 -1.0872
 2285TIP3   OH2 6860   2.436   5.307   2.424  0.2816 -0.4766  0.0106
 2285TIP3    H1 6861   2.458   5.269   2.339 -0.8524 -1.0941 -0.0303
 2285TIP3    H2 6862   2.392   5.389   2.403  0.6416 -0.2775  0.0279
 2286TIP3   OH2 6863   6.012   1.361   3.979 -0.4290 -0.2135 -0.2490
 2286TIP3    H1 6864   6.106   1.348   3.995 -0.6592 -0.0251  1.3900
 2286TIP3    H2 6865   5.970   1.340   4.062 -2.0241 -1.8880 -1.3851
 2287TIP3   OH2 6866   6.298   4.435   1.801  0.4648 -0.9823  0.1330
 2287TIP3    H1 6867   6.323   4.365   1.862 -1.6449 -2.2194 -0.3031
 2287TIP3    H2 6868   6.205   4.420   1.785  1.1376 -1.5953 -4.4711
 2288TIP3   OH2 6869   3.103   1.567   3.443 -0.7390  0.0043  0.2151
 2288TIP3    H1 6870   3.110   1.633   3.511  0.5536 -0.0255  0.1259
 2288TIP3    H2 6871   3.191   1.530   3.435 -0.7009  0.4033 -1.8694
 2289TIP3   OH2 6872   4.842   4.268   2.224 -0.0449 -0.4045 -0.1642
 2289TIP3    H1 6873   4.747   4.272   2.218 -0.3843 -0.9272  2.9659
 2289TIP3    H2 6874   4.864   4.321   2.301  2.1289 -0.8505 -0.3997
 2290TIP3   OH2 6875   4.399   2.772   0.675  0.3067 -0.4812  0.1188
 2290TIP3    H1 6876   4.408   2.685   0.638  2.8921  0.1437 -0.9321
 2290TIP3    H2 6877   4.429   2.831   0.607 -3.5045  1.5587 -0.0852
 2291TIP3   OH2 6878   4.549   0.937   2.487 -0.4514  0.0217  0.0387
 2291TIP3    H1 6879   4.598   0.913   2.408  0.9676 -1.1418  1.2103
 2291TIP3    H2 6880   4.616   0.960   2.551 -1.5389  0.2436  1.1377
 2292TIP3   OH2 6881   2.374   2.263   1.809 -0.1130 -0.0414  0.1128
 2292TIP3    H1 6882   2.344   2.262   1.718 -1.0578  0.7737  0.4004
 2292TIP3    H2 6883   2.448   2.203   1.810 -0.9819 -1.1855 -0.8855
 2293TIP3   OH2 6884   2.618   4.591   3.613 -0.5564  0.1873 -0.2133
 2293TIP3    H1 6885   2.554   4.660   3.633 -0.9312 -0.6210  1.5671
 2293TIP3    H2 6886   2.678   4.593   3.687 -0.1413 -0.9069 -0.5079
 2294TIP3   OH2 6887   2.091   4.924   0.749  0.3955  0.3168 -0.5637
 2294TIP3    H1 6888   2.000   4.919   0.718  0.8501  2.1556 -2.3427
 2294TIP3    H2 6889   2.107   4.837   0.787 -1.4399 -0.7635 -2.0731
 2295TIP3   OH2 6890   0.080   0.180   4.208  0.2546 -0.1568 -0.2393
 2295TIP3    H1 6891   0.027   0.154   4.133  1.0753 -0.2295 -0.8006
 2295TIP3    H2 6892   0.042   0.263   4.237 -1.0447 -0.8959  0.2456
 2296TIP3   OH2 6893   2.358   0.620   1.022  0.4214  0.0410  0.4419
 2296TIP3    H1 6894   2.419   0.550   1.041  0.9760  0.2755 -0.4144
 2296TIP3    H2 6895   2.412   0.691   0.986 -0.4162 -0.0234 -1.0328
 2297TIP3   OH2 6896   3.101   4.449   3.758  0.1668  0.7206 -0.8308
 2297TIP3    H1 6897   3.147   4.524   3.796 -0.0194  0.6307 -0.4252
 2297TIP3    H2 6898   3.110   4.461   3.664 -0.0490  1.3654 -0.7696
 2298TIP3   OH2 6899   0.615   2.511   1.298  0.3660  0.3555 -0.3160
 2298TIP3    H1 6900   0.697   2.527   1.250  1.3825  0.9301  1.5001
 2298TIP3    H2 6901   0.632   2.433   1.350 -0.7575 -0.3291 -0.9343
 2299TIP3   OH2 6902   5.146   1.328   1.655  0.4637  0.5950  0.4106
 2299TIP3    H1 6903   5.159   1.330   1.560 -0.0261 -0.9850  0.2755
 2299TIP3    H2 6904   5.203   1.257   1.685  0.3930  0.8877  1.2571
 2300TIP3   OH2 6905   5.456   2.217   1.756  0.2534  0.0113 -0.0248
 2300TIP3    H1 6906   5.487   2.293   1.707  0.7714 -0.2852 -0.1659
 2300TIP3    H2 6907   5.492   2.142   1.709 -0.2096 -0.3215  0.1428
 2301TIP3   OH2 6908   1.728   2.827   2.727  0.0854 -0.0475 -0.2667
 2301TIP3    H1 6909   1.646   2.848   2.771 -0.0831 -0.5427 -0.3360
 2301TIP3    H2 6910   1.712   2.847   2.635 -0.4032 -1.3541 -0.4922
 2302TIP3   OH2 6911   3.892   2.894   2.250 -0.3113 -0.2649  0.2351
 2302TIP3    H1 6912   3.931   2.841   2.180  0.4763 -2.6498  2.3328
 2302TIP3    H2 6913   3.816   2.935   2.209 -0.2985 -2.1393 -1.8690
 2303TIP3   OH2 6914   4.286   3.616   1.012 -0.6247 -0.0029 -0.2524
 2303TIP3    H1 6915   4.296   3.542   0.952  1.2853 -0.1034  0.1208
 2303TIP3    H2 6916   4.320   3.584   1.096 -1.4663  0.7377  0.3866
 2304TIP3   OH2 6917   1.344   0.907   3.902 -0.2511 -0.0546 -0.1953
 2304TIP3    H1 6918   1.419   0.960   3.875 -0.5087  0.6220  0.3904
 2304TIP3    H2 6919   1.270   0.968   3.899 -0.3158  0.0513  1.9260
 2305TIP3   OH2 6920   1.689   0.176   4.082  0.0029  0.5978 -0.5466
 2305TIP3    H1 6921   1.732   0.092   4.068 -1.3377  0.0812 -1.7052
 2305TIP3    H2 6922   1.617   0.156   4.142 -0.7258  0.7870 -1.3519
 2306TIP3   OH2 6923   6.267   3.764   5.070  0.2578  0.0201  0.5472
 2306TIP3    H1 6924   6.244   3.784   5.161 -0.3437 -1.2093  0.6830
 2306TIP3    H2 6925   6.362   3.754   5.071  0.0859 -1.8379  1.4405
 2307TIP3   OH2 6926   4.982   2.366   0.219  0.4651  0.5002  0.3228
 2307TIP3    H1 6927   5.033   2.286   0.231  0.2084  0.1113 -1.0191
 2307TIP3    H2 6928   4.989   2.412   0.303  0.2397 -1.1417  1.2781
 2308TIP3   OH2 6929   1.745   4.764   1.046  0.2855 -0.4027 -0.2020
 2308TIP3    H1 6930   1.819   4.760   1.107 -0.3146 -1.9625  0.4854
 2308TIP3    H2 6931   1.667   4.760   1.102 -0.3382  1.0488 -0.9226
 2309TIP3   OH2 6932   5.025   1.916   3.709  0.4019 -0.4087  0.1639
 2309TIP3    H1 6933   5.084   1.847   3.737  1.0668 -0.1816 -0.6284
 2309TIP3    H2 6934   5.078   1.996   3.714  1.0450 -0.5214 -2.9940
 2310TIP3   OH2 6935   4.297   0.505   5.065 -0.1577  0.2823  0.4378
 2310TIP3    H1 6936   4.221   0.529   5.012 -0.9364 -1.4455  0.6822
 2310TIP3    H2 6937   4.279   0.545   5.151  1.6124  3.9873 -0.7119
 2311TIP3   OH2 6938   6.086   2.356   1.896  0.0982  0.1214  0.6926
 2311TIP3    H1 6939   5.999   2.327   1.871 -0.5702  1.6460  1.1440
 2311TIP3    H2 6940   6.109   2.301   1.971  0.4549 -1.7286 -0.6871
 2312TIP3   OH2 6941   4.610   5.627   4.360  0.1597 -0.2733 -0.5542
 2312TIP3    H1 6942   4.605   5.559   4.292  0.0973 -0.0641 -0.7592
 2312TIP3    H2 6943   4.682   5.599   4.417 -1.1255 -1.5705  0.5169
 2313TIP3   OH2 6944   4.453   2.189   4.443 -0.0270  0.1869  0.2750
 2313TIP3    H1 6945   4.427   2.281   4.436  2.1277  0.7629 -1.5054
 2313TIP3    H2 6946   4.390   2.142   4.389 -0.0059  0.8983 -0.3876
 2314TIP3   OH2 6947   0.969   0.042   0.674 -0.1306  0.1093  0.4815
 2314TIP3    H1 6948   1.000  -0.015   0.604  1.1704 -1.4473  2.2328
 2314TIP3    H2 6949   0.998   0.129   0.649 -1.4630 -0.0546 -1.8695
 2315TIP3   OH2 6950   1.957   4.696   1.580 -0.2734 -0.0772  0.1516
 2315TIP3    H1 6951   1.948   4.723   1.672  0.4498 -0.0108  0.2051
 2315TIP3    H2 6952   2.047   4.664   1.573 -0.5095 -0.6398 -0.3936
 2316TIP3   OH2 6953   4.475   5.188   4.240 -0.0329 -0.1113  0.0291
 2316TIP3    H1 6954   4.434   5.273   4.226  1.7475  0.6927 -0.5686
 2316TIP3    H2 6955   4.438   5.132   4.172  1.0919  1.0605 -1.6241
 2317TIP3   OH2 6956   2.239   5.202   4.621 -0.6544  0.2552 -0.6852
 2317TIP3    H1 6957   2.178   5.143   4.665  0.0549 -0.0034 -0.0205
 2317TIP3    H2 6958   2.304   5.223   4.688 -0.3023  0.9415 -1.2285
 2318TIP3   OH2 6959   1.036   2.047   3.502 -0.5192  0.6492  0.0711
 2318TIP3    H1 6960   1.114   2.074   3.551 -0.4872  0.2230  0.2547
 2318TIP3    H2 6961   1.002   2.129   3.466  0.4831  0.7496 -0.7018
 2319TIP3   OH2 6962   0.354   4.168   2.187  0.7658 -0.7331  0.7169
 2319TIP3    H1 6963   0.404   4.122   2.255  0.5908 -0.7334  0.8451
 2319TIP3    H2 6964   0.289   4.104   2.158  0.0565 -0.3297  1.3980
 2320TIP3   OH2 6965   3.899   1.668   0.206 -0.0110  0.3674  0.2052
 2320TIP3    H1 6966   3.901   1.737   0.140 -0.5263  0.2474  0.0569
 2320TIP3    H2 6967   3.933   1.709   0.285 -0.2200  0.7616  0.0933
 2321TIP3   OH2 6968   6.125   1.174   2.159  0.9645  0.1419  0.1868
 2321TIP3    H1 6969   6.203   1.118   2.165  2.1276  1.7635  0.8701
 2321TIP3    H2 6970   6.078   1.159   2.240  0.9899 -0.2324  0.1345
 2322TIP3   OH2 6971   1.450   1.111   3.524  0.0509 -0.0799 -0.4213
 2322TIP3    H1 6972   1.442   1.143   3.614 -2.4528  0.5921 -0.8167
 2322TIP3    H2 6973   1.460   1.191   3.472  1.0110 -0.4405 -0.8161
 2323TIP3   OH2 6974   5.985   5.679   4.009 -0.0761  0.2437  0.0946
 2323TIP3    H1 6975   5.896   5.704   3.986  0.0981  2.0244  1.1716
 2323TIP3    H2 6976   6.040   5.719   3.942  0.0630  1.1962  0.7562
 2324TIP3   OH2 6977   0.776   1.834   1.908  0.4282 -0.2365  0.5111
 2324TIP3    H1 6978   0.687   1.799   1.906 -0.2655  1.4145  0.9195
 2324TIP3    H2 6979   0.766   1.926   1.884  2.1156 -0.1719 -0.0659
 2325TIP3   OH2 6980   6.210   3.786   3.457 -0.2092 -0.1671  0.3199
 2325TIP3    H1 6981   6.205   3.740   3.540  1.0377 -1.7033 -0.4124
 2325TIP3    H2 6982   6.182   3.876   3.477 -1.1533 -0.8257  2.1050
 2326TIP3   OH2 6983   0.496   5.523   0.427 -0.2208  0.3060  0.1168
 2326TIP3    H1 6984   0.536   5.468   0.494 -0.6367  1.2503  1.1549
 2326TIP3    H2 6985   0.420   5.473   0.398  1.6358 -1.5920 -1.9951
 2327TIP3   OH2 6986   4.084   5.533   1.872 -0.1879 -0.2500 -0.3011
 2327TIP3    H1 6987   4.160   5.586   1.897 -0.0946 -0.0009 -1.0593
 2327TIP3    H2 6988   4.017   5.554   1.937  1.2163 -2.5638  2.0918
 2328TIP3   OH2 6989   5.227   5.539   3.601  0.3476 -0.1426  0.5311
 2328TIP3    H1 6990   5.281   5.609   3.565 -1.3386 -0.1031 -2.1742
 2328TIP3    H2 6991   5.276   5.459   3.581 -1.6393 -0.4257 -4.8101
 2329TIP3   OH2 6992   4.182   3.091   0.059  0.7139  0.1000 -0.1293
 2329TIP3    H1 6993   4.123   3.030   0.015  1.1555 -0.6508  0.3059
 2329TIP3    H2 6994   4.268   3.074   0.019  0.6983  1.0220 -0.5935
 2330TIP3   OH2 6995   4.853   0.583   2.518  0.4083  0.0872  0.3015
 2330TIP3    H1 6996   4.785   0.571   2.452 -0.3139 -1.0881  1.2129
 2330TIP3    H2 6997   4.870   0.677   2.520  1.2213  0.0605 -2.2883
 2331TIP3   OH2 6998   3.304   2.206   4.677 -0.9985  0.1768  0.8424
 2331TIP3    H1 6999   3.395   2.231   4.690 -1.2193  0.2665  2.3480
 2331TIP3    H2 7000   3.282   2.238   4.589 -0.1926  1.9845  1.2570
 2332TIP3   OH2 7001   0.393   0.979   3.432  0.2056  0.1779 -0.0696
 2332TIP3    H1 7002   0.305   0.976   3.393 -0.0096 -1.4928  0.4806
 2332TIP3    H2 7003   0.399   1.067   3.468 -1.3417  0.2658  0.0782
 2333TIP3   OH2 7004   0.240   1.738   3.199 -0.0596 -0.4900  0.1630
 2333TIP3    H1 7005   0.325   1.729   3.155  0.2114  1.5059  0.1629
 2333TIP3    H2 7006   0.176   1.740   3.128 -0.0744 -1.5729  0.1379
 2334TIP3   OH2 7007   5.858   0.856   2.300 -0.2219 -0.3995  0.5263
 2334TIP3    H1 7008   5.775   0.860   2.347 -0.1166  0.0039  0.6873
 2334TIP3    H2 7009   5.893   0.945   2.307 -0.4902 -0.1656 -0.8257
 2335TIP3   OH2 7010   4.092   4.821   1.907  0.2279  0.0310  0.8345
 2335TIP3    H1 7011   4.075   4.891   1.969  0.8659 -0.2184  1.3049
 2335TIP3    H2 7012   4.006   4.784   1.888 -0.0497  0.5865  0.9942
 2336TIP3   OH2 7013   6.240   3.183   1.412  0.8144 -0.1433  0.2207
 2336TIP3    H1 7014   6.201   3.217   1.332 -0.5511 -0.5703  0.6750
 2336TIP3    H2 7015   6.166   3.152   1.463  1.7235 -0.4999  1.3621
 2337TIP3   OH2 7016   1.833   0.856   4.820 -0.2353 -0.0694  0.0178
 2337TIP3    H1 7017   1.883   0.875   4.740 -0.0059  0.3519  0.2607
 2337TIP3    H2 7018   1.775   0.784   4.794  1.8517 -1.9680  0.2648
 2338TIP3   OH2 7019   0.038   0.230   0.254  0.4237  0.0881 -0.0610
 2338TIP3    H1 7020   0.058   0.137   0.264 -0.1256 -0.0623 -0.3185
 2338TIP3    H2 7021  -0.034   0.246   0.315 -0.6000 -0.0437 -1.1908
 2339TIP3   OH2 7022   3.726   4.322   0.734  0.0307 -0.0327 -0.0389
 2339TIP3    H1 7023   3.736   4.400   0.679  0.4701  0.9312  1.3631
 2339TIP3    H2 7024   3.775   4.254   0.688  1.4348  1.0701 -0.2482
 2340TIP3   OH2 7025   2.969   0.329   1.505 -0.7676  0.6919 -0.1471
 2340TIP3    H1 7026   3.009   0.319   1.418 -1.9710 -0.1508 -0.6268
 2340TIP3    H2 7027   3.041   0.315   1.566  0.2518  1.9223 -0.9850
 2341TIP3   OH2 7028   5.997   3.921   1.474  0.6528  0.0610 -0.0949
 2341TIP3    H1 7029   5.990   3.910   1.569 -2.5352 -0.1247 -0.2502
 2341TIP3    H2 7030   5.927   3.982   1.452  2.3313  1.3552 -2.2044
 2342TIP3   OH2 7031   0.256   3.574   2.094 -0.8562 -0.2055 -0.5327
 2342TIP3    H1 7032   0.230   3.659   2.060  0.3869  0.1060 -0.7500
 2342TIP3    H2 7033   0.182   3.546   2.149 -0.8237  1.5332  0.4635
 2343TIP3   OH2 7034   1.627   2.818   2.449  0.3868  0.0394  0.1178
 2343TIP3    H1 7035   1.534   2.824   2.469  0.4334 -0.3855  0.4793
 2343TIP3    H2 7036   1.633   2.745   2.386  0.5493 -0.3702  0.6039
 2344TIP3   OH2 7037   0.757   0.928   1.907 -0.2984 -0.1608 -0.1671
 2344TIP3    H1 7038   0.789   1.018   1.897 -2.4246  0.6864  0.2220
 2344TIP3    H2 7039   0.775   0.907   1.999 -2.5264  1.0519  0.6042
 2345TIP3   OH2 7040   6.352   5.743   0.732 -0.2156  0.1178  0.1098
 2345TIP3    H1 7041   6.257   5.743   0.717 -0.0840  1.3345 -0.9231
 2345TIP3    H2 7042   6.388   5.787   0.655  1.1078  0.7499  1.0584
 2346TIP3   OH2 7043   5.376   2.192   2.015 -0.5367 -0.2169  0.6260
 2346TIP3    H1 7044   5.392   2.191   1.920 -2.9762 -0.0234  0.1401
 2346TIP3    H2 7045   5.442   2.251   2.050 -0.4464  0.7977 -1.1526
 2347TIP3   OH2 7046   3.726   2.478   2.445 -0.2529 -0.1660  0.3542
 2347TIP3    H1 7047   3.636   2.449   2.437 -0.8278  1.1047  1.6647
 2347TIP3    H2 7048   3.777   2.415   2.394 -1.8348 -1.0699 -0.1643
 2348TIP3   OH2 7049   3.667   5.601   1.039  0.1846  0.6136  0.5931
 2348TIP3    H1 7050   3.742   5.543   1.046 -1.9015 -2.3617  0.1510
 2348TIP3    H2 7051   3.613   5.581   1.115 -0.6416  1.9131  0.3789
 2349TIP3   OH2 7052   0.231   4.144   0.531  0.5699  0.0445  0.0275
 2349TIP3    H1 7053   0.182   4.223   0.509  0.3851 -0.1633 -0.3171
 2349TIP3    H2 7054   0.276   4.166   0.613  1.3027  0.8452 -0.5633
 2350TIP3   OH2 7055   0.678   1.075   0.136  0.1836 -0.6720 -0.4458
 2350TIP3    H1 7056   0.673   0.980   0.128  3.5697 -1.0059 -0.2039
 2350TIP3    H2 7057   0.759   1.090   0.185 -1.1679  2.3164  1.1342
 2351TIP3   OH2 7058   0.123   0.036   1.828  0.6341  0.1766  0.1429
 2351TIP3    H1 7059   0.110   0.130   1.827  1.7479  0.3597 -1.1468
 2351TIP3    H2 7060   0.082   0.006   1.909 -2.7316  1.2855 -1.0119
 2352TIP3   OH2 7061   3.416   0.595   0.588 -0.0602 -0.5049 -0.1961
 2352TIP3    H1 7062   3.366   0.519   0.617 -0.1316  0.2928  1.9819
 2352TIP3    H2 7063   3.464   0.565   0.512 -2.1218 -1.9409 -1.0333
 2353TIP3   OH2 7064   0.385   3.664   4.235 -0.4774 -0.2224 -0.0182
 2353TIP3    H1 7065   0.440   3.687   4.160  0.9554  2.3392  1.6460
 2353TIP3    H2 7066   0.447   3.636   4.302 -1.3590  0.5986  1.2008
 2354TIP3   OH2 7067   1.560   4.670   1.258  0.4763 -0.3396  0.5348
 2354TIP3    H1 7068   1.484   4.666   1.201  1.2753 -0.7530 -0.5257
 2354TIP3    H2 7069   1.543   4.604   1.326  0.2389 -0.9959 -0.1464
 2355TIP3   OH2 7070   3.020   5.011   4.952 -0.2110  0.1861  0.1738
 2355TIP3    H1 7071   3.041   5.059   5.032  0.0997  0.3814 -0.0207
 2355TIP3    H2 7072   3.057   4.924   4.967  0.2047  0.3427  0.0857
 2356TIP3   OH2 7073   0.043   2.161   4.966  0.2162 -0.1868  0.1662
 2356TIP3    H1 7074   0.022   2.254   4.964 -0.4435 -0.3430 -0.5405
 2356TIP3    H2 7075   0.029   2.135   5.057 -1.4099  0.0113 -0.0017
 2357TIP3   OH2 7076   1.304   5.140   4.538  0.0636  0.0994  0.3551
 2357TIP3    H1 7077   1.283   5.048   4.526  2.3232 -0.7996  2.5837
 2357TIP3    H2 7078   1.268   5.162   4.624  2.8227  0.1405  1.5822
 2358TIP3   OH2 7079   4.564   4.706   4.115 -0.0828 -0.1119  0.2872
 2358TIP3    H1 7080   4.477   4.680   4.087  0.0706 -1.4090  0.9265
 2358TIP3    H2 7081   4.620   4.632   4.091  0.9091  0.8249 -0.3944
 2359TIP3   OH2 7082   1.001   1.490   3.600  0.6320  0.5356  0.4821
 2359TIP3    H1 7083   1.001   1.518   3.509  1.4341  0.2603  0.3893
 2359TIP3    H2 7084   1.017   1.570   3.650  0.2579  0.6755  0.3852
 2360TIP3   OH2 7085   4.590   4.815   2.447  0.2632  0.0773  0.3366
 2360TIP3    H1 7086   4.583   4.721   2.427 -4.3009  0.3635 -0.3948
 2360TIP3    H2 7087   4.503   4.850   2.429  0.8819  3.9282  3.4994
 2361TIP3   OH2 7088   3.574   5.258   4.663  0.3663 -0.1087 -0.3002
 2361TIP3    H1 7089   3.578   5.178   4.715 -0.3134 -0.6483 -1.0583
 2361TIP3    H2 7090   3.664   5.273   4.636  0.1680 -2.1538 -2.3897
 2362TIP3   OH2 7091   1.536   1.680   0.999  0.0894 -0.2158 -0.1652
 2362TIP3    H1 7092   1.497   1.624   1.066 -0.3951 -0.2763 -0.4890
 2362TIP3    H2 7093   1.579   1.619   0.939  0.1733 -0.1932 -0.1271
 2363TIP3   OH2 7094   2.226   4.270   2.802 -0.2498  0.3888  0.8491
 2363TIP3    H1 7095   2.310   4.234   2.832 -0.1886  0.2146  0.4628
 2363TIP3    H2 7096   2.180   4.291   2.883  0.5767  1.4421  1.0680
 2364TIP3   OH2 7097   3.977   2.582   2.443 -0.3087 -0.0657 -0.4328
 2364TIP3    H1 7098   3.882   2.581   2.447 -0.2825  0.6964  0.6521
 2364TIP3    H2 7099   4.000   2.505   2.390 -1.4979 -0.5034 -0.3210
 2365TIP3   OH2 7100   5.972   1.918   2.610  0.5362  0.2170  0.1081
 2365TIP3    H1 7101   5.904   1.984   2.608 -1.3081 -1.5099  1.6202
 2365TIP3    H2 7102   5.999   1.912   2.702  1.6329 -0.2061 -0.2149
 2366TIP3   OH2 7103   0.632   2.912   3.301 -0.1915  0.5734  0.6841
 2366TIP3    H1 7104   0.724   2.938   3.305 -0.0979  0.0982  1.9893
 2366TIP3    H2 7105   0.633   2.826   3.260 -0.1704  1.0027 -0.2546
 2367TIP3   OH2 7106   1.664   0.653   5.112 -0.2451 -0.2301  0.2189
 2367TIP3    H1 7107   1.641   0.743   5.134 -0.2338  0.4399 -2.2235
 2367TIP3    H2 7108   1.686   0.612   5.196 -1.4472  1.6687  1.5268
 2368TIP3   OH2 7109   1.169   4.790   1.357 -0.1244  0.1462  0.3452
 2368TIP3    H1 7110   1.146   4.824   1.271  0.1318  1.1202  0.6591
 2368TIP3    H2 7111   1.143   4.697   1.353 -0.5480  0.2931 -0.6095
 2369TIP3   OH2 7112   3.517   0.104   1.496 -0.4182 -0.0574 -0.6391
 2369TIP3    H1 7113   3.584   0.049   1.454  0.2920  0.7206 -0.5483
 2369TIP3    H2 7114   3.435   0.079   1.454 -0.4531 -2.5840  0.7237
 2370TIP3   OH2 7115   2.115   2.434   2.528 -0.5006  0.2526 -0.2447
 2370TIP3    H1 7116   2.175   2.507   2.542 -0.1938  0.1215 -0.8296
 2370TIP3    H2 7117   2.145   2.394   2.446 -1.0884 -0.1093 -0.2885
 2371TIP3   OH2 7118   3.674   1.271   2.091 -0.2707  0.7234  0.1856
 2371TIP3    H1 7119   3.745   1.313   2.043  0.1059  0.3957  0.4536
 2371TIP3    H2 7120   3.716   1.204   2.145 -0.7083  0.9314  0.8102
 2372TIP3   OH2 7121   3.528   4.782   0.164  0.5980 -0.2142 -0.0989
 2372TIP3    H1 7122   3.580   4.703   0.178  0.5412 -0.5869 -1.7252
 2372TIP3    H2 7123   3.563   4.820   0.083 -0.0136  0.9069  0.1308
 2373TIP3   OH2 7124   2.578   5.082   1.533  0.5073 -0.2986  0.7417
 2373TIP3    H1 7125   2.525   5.068   1.455 -0.0952  1.3817  0.8087
 2373TIP3    H2 7126   2.611   4.995   1.556 -1.0744 -1.1678 -0.1144
 2374TIP3   OH2 7127   6.206   5.402   2.296 -0.5001 -0.1694 -0.1070
 2374TIP3    H1 7128   6.293   5.441   2.288 -1.7073  2.7755 -0.0888
 2374TIP3    H2 7129   6.207   5.328   2.235  1.2182  1.4012 -2.1425
 2375TIP3   OH2 7130   4.068   1.585   3.571  0.4730 -0.4625 -0.0515
 2375TIP3    H1 7131   4.053   1.527   3.497  1.4882 -0.9584  0.1157
 2375TIP3    H2 7132   4.082   1.527   3.645  2.9977 -0.1141 -0.1611
 2376TIP3   OH2 7133   1.096   4.007   4.966 -0.0435 -0.5579  0.0539
 2376TIP3    H1 7134   1.105   4.094   4.927 -0.4197 -1.2366 -1.6471
 2376TIP3    H2 7135   1.037   4.019   5.040 -4.0435 -0.0541 -2.8715
 2377TIP3   OH2 7136   6.055   4.691   3.800  0.2628  0.1540  0.0067
 2377TIP3    H1 7137   6.037   4.753   3.729 -0.6879  1.1440  1.0570
 2377TIP3    H2 7138   5.976   4.637   3.804  0.5161 -0.2160  0.0010
 2378TIP3   OH2 7139   4.953   0.090   2.816 -0.8776  0.1631 -0.6630
 2378TIP3    H1 7140   4.894   0.068   2.743 -2.8076  0.0303  0.8509
 2378TIP3    H2 7141   4.950   0.013   2.872  1.3128 -0.1063 -0.8282
 2379TIP3   OH2 7142   6.115   0.370   5.054  0.7120  0.2678 -0.1233
 2379TIP3    H1 7143   6.037   0.334   5.010  0.2052 -0.0877  1.0332
 2379TIP3    H2 7144   6.188   0.328   5.010  0.2732  0.7099 -1.3296
 2380TIP3   OH2 7145   5.044   4.963   2.084  0.2827  0.2304 -0.1034
 2380TIP3    H1 7146   5.138   4.956   2.101 -0.0422 -1.6200  1.1901
 2380TIP3    H2 7147   5.004   4.977   2.170 -0.7726 -1.3230 -0.2926
 2381TIP3   OH2 7148   3.942   5.944   2.143  0.1217 -0.1787 -0.2980
 2381TIP3    H1 7149   3.934   5.973   2.234  0.2207  0.1716 -0.3991
 2381TIP3    H2 7150   3.866   5.980   2.098 -0.8716 -1.7937  0.0007
 2382TIP3   OH2 7151   1.634   3.483   3.748 -0.5776  0.2844  0.0991
 2382TIP3    H1 7152   1.575   3.543   3.795 -1.7391 -0.5411 -0.2761
 2382TIP3    H2 7153   1.630   3.512   3.657  1.3130  1.5861  0.3675
 2383TIP3   OH2 7154   1.211   4.138   2.353  0.2039  0.4920 -0.1510
 2383TIP3    H1 7155   1.277   4.069   2.355  0.1407  0.4210  1.5807
 2383TIP3    H2 7156   1.236   4.195   2.281  1.8877  0.1961  0.1712
 2384TIP3   OH2 7157   2.267   4.703   0.196  0.1164  0.6058 -0.3755
 2384TIP3    H1 7158   2.243   4.761   0.269  0.2759 -0.0381  0.1907
 2384TIP3    H2 7159   2.317   4.759   0.137  0.4496  1.0002  0.2667
 2385TIP3   OH2 7160   1.218   3.865   4.731  0.2493  0.3765 -0.3407
 2385TIP3    H1 7161   1.255   3.949   4.706  1.7019  0.8375  2.8297
 2385TIP3    H2 7162   1.184   3.879   4.820 -0.4154 -2.0948 -0.1295
 2386TIP3   OH2 7163   4.098   4.345   0.552 -1.0396  0.3216 -0.0023
 2386TIP3    H1 7164   4.136   4.338   0.464  1.4277 -0.4817  1.0307
 2386TIP3    H2 7165   4.049   4.263   0.563  1.9880 -1.6007  0.7021
 2387TIP3   OH2 7166   2.740   1.428   1.154 -0.1478  0.2016 -0.4069
 2387TIP3    H1 7167   2.700   1.421   1.241  1.0365  0.7594  0.2085
 2387TIP3    H2 7168   2.737   1.339   1.119 -0.4099 -0.0856  0.3211
 2388TIP3   OH2 7169   6.000   4.174   3.653 -0.1474 -0.0552  0.1280
 2388TIP3    H1 7170   6.041   4.109   3.596 -1.5375 -2.1343  1.3793
 2388TIP3    H2 7171   5.907   4.150   3.654 -0.6448  1.7031  1.0142
 2389TIP3   OH2 7172   0.025   0.506   3.250 -0.1640 -0.5498 -0.3252
 2389TIP3    H1 7173  -0.037   0.454   3.301 -0.9282 -0.3366 -1.0253
 2389TIP3    H2 7174   0.023   0.592   3.292  0.6333 -0.8964  0.4468
 2390TIP3   OH2 7175   4.280   5.594   3.636 -0.1495 -0.5821 -0.2003
 2390TIP3    H1 7176   4.309   5.520   3.583 -0.5858 -0.7541 -0.2028
 2390TIP3    H2 7177   4.188   5.605   3.614  0.5284  1.7022 -2.2633
 2391TIP3   OH2 7178   1.839   1.978   2.624 -0.0395  0.2108  0.6595
 2391TIP3    H1 7179   1.775   1.908   2.638  1.1198 -1.1789 -0.6063
 2391TIP3    H2 7180   1.789   2.059   2.634 -2.5960 -0.7781 -2.4987
 2392TIP3   OH2 7181   5.449   1.417   3.420 -0.2337 -0.7238  0.1215
 2392TIP3    H1 7182   5.440   1.509   3.443  1.4960 -0.5854  0.3971
 2392TIP3    H2 7183   5.498   1.417   3.338  1.5097 -1.3719  1.0825
 2393TIP3   OH2 7184   1.801   4.368   4.201 -0.1241 -0.3659 -0.0619
 2393TIP3    H1 7185   1.717   4.402   4.169 -0.3263 -0.8209 -0.0219
 2393TIP3    H2 7186   1.863   4.389   4.131 -0.0221  1.0347  0.4197
 2394TIP3   OH2 7187   3.272   4.411   1.391  0.0232  0.1711  0.7806
 2394TIP3    H1 7188   3.329   4.482   1.422 -0.6088  0.7358  0.6835
 2394TIP3    H2 7189   3.324   4.366   1.325  1.4314 -1.1203  2.6690
 2395TIP3   OH2 7190   5.959   2.849   3.515  0.3560 -0.8789 -0.2571
 2395TIP3    H1 7191   6.031   2.907   3.539 -0.2144 -0.4733  0.5143
 2395TIP3    H2 7192   5.988   2.762   3.540  1.0753 -0.8946 -1.1023
 2396TIP3   OH2 7193   1.164   3.578   3.108 -0.3891  0.1757 -0.1801
 2396TIP3    H1 7194   1.196   3.540   3.026  0.0151  0.7922 -0.3208
 2396TIP3    H2 7195   1.106   3.512   3.144  0.0416 -0.4371 -0.5760
 2397TIP3   OH2 7196   3.781   4.767   4.786 -0.4039  0.2725 -0.2582
 2397TIP3    H1 7197   3.796   4.717   4.865  3.0313  1.1017 -0.2435
 2397TIP3    H2 7198   3.784   4.703   4.715  0.6064  0.0216  0.0043
 2398TIP3   OH2 7199   1.083   3.811   0.439  0.0158  0.1774  0.6419
 2398TIP3    H1 7200   1.045   3.880   0.385 -2.0648 -1.5131 -0.1854
 2398TIP3    H2 7201   1.088   3.850   0.527  0.8416  2.0329 -0.1827
 2399TIP3   OH2 7202   1.937   3.262   2.180 -0.4945  0.2164  0.1875
 2399TIP3    H1 7203   1.909   3.214   2.257 -0.3218 -1.0805 -0.5383
 2399TIP3    H2 7204   1.865   3.322   2.161 -1.0111 -0.2378  0.6914
 2400TIP3   OH2 7205   5.268   4.929   5.126 -0.0075 -0.9057 -0.3041
 2400TIP3    H1 7206   5.217   4.999   5.168  0.1347 -1.1938  0.3583
 2400TIP3    H2 7207   5.203   4.867   5.094 -0.0909 -1.0539  0.1513
 2401TIP3   OH2 7208   3.674   4.006   2.113 -0.3643  0.1030 -0.3205
 2401TIP3    H1 7209   3.720   3.948   2.173  1.2275  0.3699 -1.2357
 2401TIP3    H2 7210   3.606   4.048   2.167  1.1457  0.5067  1.3487
 2402TIP3   OH2 7211   5.851   1.383   0.283  0.0340  0.1941  0.1640
 2402TIP3    H1 7212   5.908   1.340   0.220  0.5877  0.7264  0.3017
 2402TIP3    H2 7213   5.864   1.476   0.269  0.9708  0.3533  1.7489
 2403TIP3   OH2 7214   4.591   4.136   5.167  0.2771 -0.1032 -0.1920
 2403TIP3    H1 7215   4.504   4.122   5.129 -0.6825  1.3076  1.4071
 2403TIP3    H2 7216   4.590   4.226   5.197  2.1624 -0.2000  0.2558
 2404TIP3   OH2 7217   1.083   0.883   3.338 -0.4961 -0.5926 -0.0803
 2404TIP3    H1 7218   1.147   0.903   3.269  0.7193 -0.7443  0.9778
 2404TIP3    H2 7219   1.060   0.969   3.374 -1.1975 -0.5053 -0.7018
 2405TIP3   OH2 7220   0.738   2.711   2.662  0.2605  0.3224  0.4675
 2405TIP3    H1 7221   0.751   2.670   2.577 -2.8684  0.2525 -0.0997
 2405TIP3    H2 7222   0.772   2.647   2.725 -0.4547 -1.1914 -0.6088
 2406TIP3   OH2 7223   2.887   1.496   2.678  0.6027 -0.1344  0.0616
 2406TIP3    H1 7224   2.817   1.431   2.682  1.6879 -1.3478  0.1235
 2406TIP3    H2 7225   2.912   1.498   2.585  0.2613  0.5410 -0.0167
 2407TIP3   OH2 7226   1.720   4.281   0.161 -0.2851  0.1024 -0.1988
 2407TIP3    H1 7227   1.797   4.263   0.215 -0.4140  0.6945  0.1898
 2407TIP3    H2 7228   1.754   4.283   0.071  0.1062  0.0818 -0.0537
 2408TIP3   OH2 7229   5.035   1.790   1.984  0.2031  0.4202  0.4263
 2408TIP3    H1 7230   5.126   1.777   2.010  0.4502  1.2866  0.0197
 2408TIP3    H2 7231   5.016   1.716   1.926  1.2154  1.1739 -0.9322
 2409TIP3   OH2 7232   2.683   1.937   2.221 -0.4744  0.5657 -0.0865
 2409TIP3    H1 7233   2.619   1.914   2.289 -1.2896  1.7584 -0.4255
 2409TIP3    H2 7234   2.723   1.854   2.197 -0.0021  0.1321  2.0061
 2410TIP3   OH2 7235   3.219   1.066   3.064  0.3566  0.4570 -0.4204
 2410TIP3    H1 7236   3.183   1.075   2.976  0.8140  2.1846 -0.4792
 2410TIP3    H2 7237   3.162   1.121   3.118  0.8421  0.4362  0.1172
 2411TIP3   OH2 7238   0.453   1.909   1.568 -0.2093  0.7920 -0.1661
 2411TIP3    H1 7239   0.548   1.905   1.584  0.1091  2.0121 -1.4910
 2411TIP3    H2 7240   0.434   1.828   1.519  0.6452  1.6143 -1.9735
 2412TIP3   OH2 7241   0.348   4.227   0.777  0.1538  0.1591  0.4111
 2412TIP3    H1 7242   0.318   4.253   0.864 -1.2159 -1.0134  0.3207
 2412TIP3    H2 7243   0.423   4.171   0.794 -0.9339 -1.1964  0.9505
 2413TIP3   OH2 7244   4.250   2.256   1.158  0.8059  0.2219 -0.0906
 2413TIP3    H1 7245   4.251   2.346   1.190 -1.0177  0.7232 -1.2689
 2413TIP3    H2 7246   4.304   2.259   1.079 -0.3508  0.6648 -0.9066
 2414TIP3   OH2 7247   4.691   1.244   0.704 -0.1495  0.3172  0.1856
 2414TIP3    H1 7248   4.708   1.199   0.787 -2.3004  0.9941  1.0403
 2414TIP3    H2 7249   4.607   1.288   0.717 -0.7181  0.1589 -2.4855
 2415TIP3   OH2 7250   5.719   5.146   2.330 -0.3076  0.1602  0.6168
 2415TIP3    H1 7251   5.699   5.176   2.241  0.3411  0.6799  0.6393
 2415TIP3    H2 7252   5.690   5.055   2.331 -0.9062  0.3309  0.0710
 2416TIP3   OH2 7253   0.465   4.177   1.737  0.0819  0.0753  0.5835
 2416TIP3    H1 7254   0.428   4.111   1.795  1.0279  0.0828  1.2280
 2416TIP3    H2 7255   0.390   4.225   1.703 -0.7246 -2.2068 -1.0046
 2417TIP3   OH2 7256   3.673   3.656   5.157  0.6634 -0.5613  0.4026
 2417TIP3    H1 7257   3.611   3.610   5.213  0.0450 -0.2617 -0.0275
 2417TIP3    H2 7258   3.623   3.679   5.079  0.9462  0.8683  0.6119
 2418TIP3   OH2 7259   4.327   3.085   1.083 -0.5100  0.5024  0.1228
 2418TIP3    H1 7260   4.345   3.011   1.025  0.2854  0.2418  0.6821
 2418TIP3    H2 7261   4.247   3.124   1.049  0.1802  0.6332 -1.4073
 2419TIP3   OH2 7262   0.849   5.093   4.910  0.0301  0.1520 -0.2865
 2419TIP3    H1 7263   0.896   5.019   4.948 -0.9925  0.4567  1.7042
 2419TIP3    H2 7264   0.766   5.055   4.881 -0.8219  0.5748  1.4380
 2420TIP3   OH2 7265   5.560   4.279   0.224 -0.3812 -0.0494 -0.4674
 2420TIP3    H1 7266   5.493   4.224   0.183 -2.0197  2.7890 -1.9207
 2420TIP3    H2 7267   5.618   4.303   0.152  1.5203 -1.3769  0.5326
 2421TIP3   OH2 7268   0.182   3.796   0.927  0.5610 -0.2797 -0.2526
 2421TIP3    H1 7269   0.239   3.740   0.874  1.3314 -0.1039  0.3708
 2421TIP3    H2 7270   0.118   3.736   0.966  0.7326 -0.5767 -0.4246
 2422TIP3   OH2 7271   5.894   5.074   3.152  0.0682  0.1204  0.0362
 2422TIP3    H1 7272   5.909   5.117   3.068 -0.9283  1.2967  0.4275
 2422TIP3    H2 7273   5.966   5.104   3.207 -0.4291  1.0423  0.2023
 2423TIP3   OH2 7274   1.739   5.159   3.280  0.5673  0.3716  0.1105
 2423TIP3    H1 7275   1.645   5.144   3.271  0.7163 -0.3296 -0.3735
 2423TIP3    H2 7276   1.747   5.215   3.357 -0.0551 -1.6722  1.7461
 2424TIP3   OH2 7277   0.314   4.883   3.001 -0.2736  1.1677 -0.3720
 2424TIP3    H1 7278   0.365   4.964   2.997  0.1656  1.0042  1.1550
 2424TIP3    H2 7279   0.372   4.816   2.964 -0.0621  1.2909 -0.2665
 2425TIP3   OH2 7280   1.353   1.500   3.426  0.2001 -0.0877  0.0899
 2425TIP3    H1 7281   1.286   1.470   3.487 -0.4967  0.0497 -0.5993
 2425TIP3    H2 7282   1.340   1.594   3.418  0.3552 -0.0867 -0.1929
 2426TIP3   OH2 7283   0.279   2.879   1.708 -0.8388  0.2482 -0.0867
 2426TIP3    H1 7284   0.373   2.868   1.717 -0.9313 -0.5474 -0.0067
 2426TIP3    H2 7285   0.267   2.971   1.684 -0.0419  0.3301 -0.1771
 2427TIP3   OH2 7286   0.300   1.536   0.254  0.8553  0.2490 -0.4299
 2427TIP3    H1 7287   0.356   1.544   0.176 -0.9847 -0.0446 -1.8565
 2427TIP3    H2 7288   0.333   1.459   0.300  2.2283  0.6602 -0.6723
 2428TIP3   OH2 7289   1.422   3.085   1.914 -0.5685 -0.5730  0.4921
 2428TIP3    H1 7290   1.511   3.081   1.948 -0.5934 -3.1757  0.4719
 2428TIP3    H2 7291   1.389   2.995   1.923 -3.6861  0.5673  1.7777
 2429TIP3   OH2 7292   4.533   1.645   0.642 -0.0185 -0.0784 -0.0141
 2429TIP3    H1 7293   4.568   1.582   0.705  0.1597  0.5200  0.4892
 2429TIP3    H2 7294   4.603   1.656   0.578  0.2121  0.1185  0.2686
 2430TIP3   OH2 7295   2.978   3.365   2.751 -0.2457  0.0046  0.5909
 2430TIP3    H1 7296   2.939   3.286   2.712 -2.5644  0.6645  1.4012
 2430TIP3    H2 7297   2.994   3.423   2.676 -1.3216 -0.1112  0.2470
 2431TIP3   OH2 7298   5.207   3.997   0.870 -0.6223  0.0527 -0.0115
 2431TIP3    H1 7299   5.135   3.987   0.808 -3.1287  1.4612  2.4093
 2431TIP3    H2 7300   5.256   4.073   0.837 -1.1744  0.0366 -0.9057
 2432TIP3   OH2 7301   4.046   3.015   2.907 -0.2774  0.3159 -0.2324
 2432TIP3    H1 7302   4.000   2.931   2.902 -0.1701  0.2053  0.5689
 2432TIP3    H2 7303   3.979   3.079   2.931 -0.3429  0.4527 -0.7609
 2433TIP3   OH2 7304   1.528   0.747   3.158 -0.2940 -0.0444 -0.1531
 2433TIP3    H1 7305   1.446   0.700   3.142  0.5647 -1.6872  0.0262
 2433TIP3    H2 7306   1.561   0.769   3.071 -0.2109 -0.7228 -0.3052
 2434TIP3   OH2 7307   3.161   2.667   3.949  0.3448  1.0143  0.2903
 2434TIP3    H1 7308   3.174   2.759   3.970  1.1072  0.9647  0.0655
 2434TIP3    H2 7309   3.143   2.626   4.033  1.9213  1.0593  0.6787
 2435TIP3   OH2 7310   4.720   1.747   3.358 -0.4211 -0.1416  0.5312
 2435TIP3    H1 7311   4.671   1.666   3.342  0.0637 -0.2273 -0.6377
 2435TIP3    H2 7312   4.729   1.751   3.454 -1.9720 -0.5396  0.7159
 2436TIP3   OH2 7313   2.446   4.809   3.646  0.2987 -0.1545 -0.3077
 2436TIP3    H1 7314   2.367   4.785   3.597  0.6435 -0.7697 -0.5830
 2436TIP3    H2 7315   2.451   4.904   3.640  0.7806 -0.2633 -2.2136
 2437TIP3   OH2 7316   0.514   5.839   4.339  0.1173 -0.0676 -0.3873
 2437TIP3    H1 7317   0.506   5.750   4.374 -1.5535  1.2250  3.0384
 2437TIP3    H2 7318   0.434   5.883   4.368  1.8736  3.1298  0.0268
 2438TIP3   OH2 7319   2.116   0.923   3.201 -0.3020 -0.3344  0.3204
 2438TIP3    H1 7320   2.037   0.968   3.168 -0.9504 -1.7754 -0.1845
 2438TIP3    H2 7321   2.167   0.992   3.243 -1.0901  0.9393 -0.7203
 2439TIP3   OH2 7322   2.788   2.951   2.654 -0.0368  0.4673  0.3109
 2439TIP3    H1 7323   2.705   2.976   2.696 -0.6366  0.7084 -0.9564
 2439TIP3    H2 7324   2.785   2.855   2.651 -1.5548  0.4889 -2.0516
 2440TIP3   OH2 7325   2.541   5.358   0.917 -0.4055 -0.5404  0.0976
 2440TIP3    H1 7326   2.589   5.440   0.904  1.3616 -1.1634  2.0972
 2440TIP3    H2 7327   2.525   5.354   1.011 -1.7641 -1.8073 -0.1581
 2441TIP3   OH2 7328   0.714   3.601   1.413  0.2339 -0.6936  0.1444
 2441TIP3    H1 7329   0.670   3.533   1.363 -1.3791  1.4478 -1.5429
 2441TIP3    H2 7330   0.776   3.640   1.352  0.7680 -0.2961  0.9199
 2442TIP3   OH2 7331   4.972   2.929   3.042 -0.1636 -0.5349 -0.2628
 2442TIP3    H1 7332   4.960   2.913   2.948  2.1115  0.0429 -0.6980
 2442TIP3    H2 7333   5.065   2.948   3.052 -0.4578  0.0042  2.0505
 2443TIP3   OH2 7334   5.735   3.743   4.884  0.8960  0.1154 -1.0524
 2443TIP3    H1 7335   5.752   3.837   4.889 -0.0974  0.2613 -0.0932
 2443TIP3    H2 7336   5.818   3.702   4.908  0.9616  0.7715 -0.1031
 2444TIP3   OH2 7337   2.360   2.331   2.673 -0.0069 -0.5957  0.1230
 2444TIP3    H1 7338   2.295   2.400   2.687 -0.1460 -1.0480  1.9475
 2444TIP3    H2 7339   2.313   2.264   2.625 -0.4229 -0.2319  0.0126
 2445TIP3   OH2 7340   6.162   2.998   5.130 -0.3304  0.2820  0.7248
 2445TIP3    H1 7341   6.113   3.033   5.056  0.1899 -0.0410  0.2223
 2445TIP3    H2 7342   6.096   2.987   5.199 -0.8164  0.5815  0.3145
 2446TIP3   OH2 7343   1.865   1.482   3.222 -0.8186  0.7654 -1.2020
 2446TIP3    H1 7344   1.866   1.491   3.126 -0.1931 -1.3026 -1.4463
 2446TIP3    H2 7345   1.819   1.400   3.237 -1.2566  1.2713  0.3169
 2447TIP3   OH2 7346   1.768   5.723   3.268  0.0099 -0.6200 -0.0023
 2447TIP3    H1 7347   1.793   5.706   3.178  0.7614 -1.9772  0.4336
 2447TIP3    H2 7348   1.821   5.662   3.320 -1.7036 -1.1351  1.2319
 2448TIP3   OH2 7349   0.725   5.516   4.690 -0.2278  0.3514  0.1080
 2448TIP3    H1 7350   0.639   5.480   4.670 -0.4217  0.5601  0.5341
 2448TIP3    H2 7351   0.781   5.440   4.701  0.0891  0.2404 -2.0073
 2449TIP3   OH2 7352   5.915   2.442   3.834 -0.3819 -0.4945 -0.2431
 2449TIP3    H1 7353   5.933   2.387   3.910 -0.7957  0.0604  0.2693
 2449TIP3    H2 7354   5.862   2.387   3.777 -1.6714 -0.3153  0.7292
 2450TIP3   OH2 7355   2.081   5.993   1.127  0.0200  0.0685  0.3955
 2450TIP3    H1 7356   2.082   5.926   1.058 -2.6584 -0.6450  0.9121
 2450TIP3    H2 7357   2.173   6.017   1.139  0.6053  2.0404 -5.0535
 2451TIP3   OH2 7358   5.106   0.285   3.281  0.2478 -0.0563  0.2690
 2451TIP3    H1 7359   5.057   0.312   3.358  1.6672  1.3839  0.7117
 2451TIP3    H2 7360   5.107   0.362   3.225  1.3757 -0.2835 -0.0468
 2452TIP3   OH2 7361   3.486   2.581   1.556 -0.4681 -0.3146 -0.1742
 2452TIP3    H1 7362   3.543   2.533   1.616  0.1503  1.1461  0.4504
 2452TIP3    H2 7363   3.398   2.548   1.576 -0.2511 -0.0242  1.4074
 2453TIP3   OH2 7364   1.083   1.803   1.599  0.5407  0.2522 -0.0269
 2453TIP3    H1 7365   1.091   1.740   1.671  1.7407  0.8947  0.4340
 2453TIP3    H2 7366   1.110   1.754   1.521 -1.7678 -0.7597 -0.2687
 2454TIP3   OH2 7367   5.625   1.238   2.547  0.1198 -0.6801 -0.0543
 2454TIP3    H1 7368   5.704   1.222   2.599  0.4323  0.9887  0.0373
 2454TIP3    H2 7369   5.567   1.287   2.606 -0.1505 -0.1283 -0.7650
 2455TIP3   OH2 7370   0.305   2.584   0.617  0.0420 -0.0001  0.6121
 2455TIP3    H1 7371   0.370   2.522   0.586 -0.4995 -0.6634  0.7669
 2455TIP3    H2 7372   0.221   2.542   0.598 -0.3279  0.5208  1.0480
 2456TIP3   OH2 7373   2.771   4.969   2.209  0.3217 -0.0482  0.0005
 2456TIP3    H1 7374   2.715   4.938   2.279  1.0728 -0.3105  0.4944
 2456TIP3    H2 7375   2.731   5.050   2.180 -1.2857 -1.1026 -0.8427
 2457TIP3   OH2 7376   5.357   3.239   1.106 -0.9622 -0.3593  0.5262
 2457TIP3    H1 7377   5.270   3.220   1.141 -2.3684 -1.5173 -3.1237
 2457TIP3    H2 7378   5.391   3.154   1.077  0.4597  0.3621 -0.0322
 2458TIP3   OH2 7379   3.580   0.927   4.724 -0.0188 -0.1001 -0.0880
 2458TIP3    H1 7380   3.630   0.957   4.648  0.1348  0.2209  0.1364
 2458TIP3    H2 7381   3.534   1.005   4.755  1.0786  0.1315  1.0314
 2459TIP3   OH2 7382   1.741   4.674   5.132 -0.0141  0.0680  0.4850
 2459TIP3    H1 7383   1.804   4.613   5.094  1.4028  2.5949 -1.5235
 2459TIP3    H2 7384   1.789   4.718   5.202 -1.0402 -1.0589  1.9546
 2460TIP3   OH2 7385   4.756   1.634   3.611  0.2969 -0.5091 -0.4724
 2460TIP3    H1 7386   4.713   1.591   3.685  0.7957 -0.4833 -0.1542
 2460TIP3    H2 7387   4.848   1.608   3.620  0.4395 -0.1199 -0.8122
 2461TIP3   OH2 7388   6.112   3.495   0.283 -0.4786  0.2847 -1.2258
 2461TIP3    H1 7389   6.045   3.561   0.302 -0.3720  0.7598 -2.4134
 2461TIP3    H2 7390   6.085   3.419   0.334 -0.2728  1.4093  0.6759
 2462TIP3   OH2 7391   5.158   4.574   4.434  0.3889  0.7696  0.1742
 2462TIP3    H1 7392   5.191   4.504   4.378 -0.9964  0.6350 -0.5161
 2462TIP3    H2 7393   5.145   4.532   4.519 -0.8209  0.0376 -0.3395
 2463TIP3   OH2 7394   4.600   1.765   2.402  0.3127 -0.3009  0.2255
 2463TIP3    H1 7395   4.677   1.822   2.401 -0.0658  0.2828  1.3817
 2463TIP3    H2 7396   4.633   1.680   2.431  0.7623 -0.4723 -0.7760
 2464TIP3   OH2 7397   3.093   1.021   1.332 -0.6889  0.0478  0.0807
 2464TIP3    H1 7398   3.013   1.024   1.279 -0.0129  0.6938 -0.9304
 2464TIP3    H2 7399   3.138   0.942   1.304 -1.2977 -0.7204  1.1781
 2465TIP3   OH2 7400   3.693   5.553   2.145  0.4134 -0.6137  0.3459
 2465TIP3    H1 7401   3.748   5.587   2.216 -1.2687 -1.5422  2.1705
 2465TIP3    H2 7402   3.659   5.471   2.178 -1.3900 -0.4995 -1.0730
 2466TIP3   OH2 7403   2.117   2.735   2.204  0.1868 -0.1811  0.3854
 2466TIP3    H1 7404   2.138   2.646   2.232  0.6819 -0.2451 -0.1834
 2466TIP3    H2 7405   2.186   2.790   2.242  0.2275 -0.1198  0.2247
 2467TIP3   OH2 7406   2.217   1.614   3.695 -0.5530 -0.4396 -0.0152
 2467TIP3    H1 7407   2.278   1.684   3.670 -0.1376 -0.6290  0.4483
 2467TIP3    H2 7408   2.208   1.561   3.616 -1.4972  0.5715 -0.6166
 2468TIP3   OH2 7409   1.607   0.795   2.674  0.3934 -0.0706 -0.3252
 2468TIP3    H1 7410   1.615   0.700   2.685 -0.2375 -0.1410 -0.4013
 2468TIP3    H2 7411   1.584   0.807   2.582 -0.7699  0.0554 -0.0445
 2469TIP3   OH2 7412   1.702   5.371   1.977  0.0169 -0.7050 -0.0047
 2469TIP3    H1 7413   1.771   5.305   1.980  0.5809 -0.2357 -1.5547
 2469TIP3    H2 7414   1.748   5.454   1.977 -0.5991 -0.3576  0.0008
 2470TIP3   OH2 7415   5.673   1.129   3.949 -0.1119  0.0701  0.5983
 2470TIP3    H1 7416   5.690   1.091   4.035  1.7335  2.1231  1.2197
 2470TIP3    H2 7417   5.755   1.120   3.901 -1.4104 -2.0339 -1.4484
 2471TIP3   OH2 7418   4.978   1.560   2.190 -0.2352  0.2843 -0.1594
 2471TIP3    H1 7419   4.974   1.642   2.141 -2.0363  0.9340  0.9902
 2471TIP3    H2 7420   5.060   1.565   2.240  0.1907  0.8802 -0.8988
 2472TIP3   OH2 7421   0.134   2.546  -0.012 -0.1094 -0.3486 -0.2398
 2472TIP3    H1 7422   0.221   2.543   0.029 -0.9792  0.1400  1.7466
 2472TIP3    H2 7423   0.103   2.635   0.004 -0.6828 -0.2702 -1.6447
 2473TIP3   OH2 7424   2.438   2.695   3.722 -0.0463 -0.2658  0.9665
 2473TIP3    H1 7425   2.442   2.773   3.667 -0.1816 -0.7373  0.2693
 2473TIP3    H2 7426   2.526   2.658   3.717 -0.5697 -1.4103 -0.6051
 2474TIP3   OH2 7427   3.037   2.814   5.071 -0.5400 -0.6426  0.7816
 2474TIP3    H1 7428   3.104   2.820   5.139 -0.2253  0.0436  0.4157
 2474TIP3    H2 7429   3.055   2.731   5.026  1.1072  0.2973 -0.3932
 2475TIP3   OH2 7430   0.077   3.077   5.125 -0.2602 -0.0298  0.5862
 2475TIP3    H1 7431   0.004   3.027   5.089 -0.0910  1.5111 -2.2355
 2475TIP3    H2 7432   0.041   3.165   5.138  0.3138 -0.0097  2.1752
 2476TIP3   OH2 7433   5.008   2.077   0.344 -0.0914  0.1688 -0.2689
 2476TIP3    H1 7434   4.928   2.029   0.324 -1.7855  3.1466 -1.3588
 2476TIP3    H2 7435   5.010   2.081   0.440 -0.7814 -0.6421 -0.2077
 2477TIP3   OH2 7436   0.541   5.190   4.136  0.1989  0.1561 -0.0825
 2477TIP3    H1 7437   0.548   5.285   4.144  0.8374  0.0477  0.9086
 2477TIP3    H2 7438   0.453   5.170   4.168 -0.3744  0.4949 -1.3719
 2478TIP3   OH2 7439   5.939   1.049   3.892 -0.0953 -0.2396  0.3078
 2478TIP3    H1 7440   5.928   1.031   3.986  0.7551  2.4704  0.9959
 2478TIP3    H2 7441   6.031   1.031   3.874 -0.1262 -0.2041  0.1083
 2479TIP3   OH2 7442   0.678   0.387   2.965 -0.4433  0.1093 -0.6283
 2479TIP3    H1 7443   0.756   0.436   2.990 -0.4448  0.7385 -1.8230
 2479TIP3    H2 7444   0.659   0.333   3.042  0.2278  1.1227  0.2791
 2480TIP3   OH2 7445   3.706   5.730   0.205  0.2067  0.8582  0.3292
 2480TIP3    H1 7446   3.670   5.694   0.286 -0.6812  1.4206  0.1877
 2480TIP3    H2 7447   3.774   5.791   0.234 -1.0226  2.0934  0.7304
 2481TIP3   OH2 7448   5.820   0.786   3.855  0.0817 -0.2762  0.6063
 2481TIP3    H1 7449   5.734   0.756   3.825 -0.4271  1.2798  0.4325
 2481TIP3    H2 7450   5.804   0.873   3.891  1.8206  0.7400 -0.8851
 2482TIP3   OH2 7451   1.422   4.807   0.177  0.3034  0.7450  0.4233
 2482TIP3    H1 7452   1.350   4.862   0.206 -0.1884  0.0116  0.6192
 2482TIP3    H2 7453   1.392   4.717   0.193  1.2258  0.4273  0.4471
 2483TIP3   OH2 7454   3.452   3.005   5.105 -0.0182 -0.3213  0.1770
 2483TIP3    H1 7455   3.506   3.078   5.136 -0.7415  0.6327 -0.7215
 2483TIP3    H2 7456   3.490   2.981   5.020  0.2918 -1.0972  0.5223
 2484TIP3   OH2 7457   4.315   1.855   3.944 -0.3030 -0.8489  0.1642
 2484TIP3    H1 7458   4.335   1.856   3.850  0.2404 -0.9295  0.2751
 2484TIP3    H2 7459   4.258   1.779   3.956  0.5268 -1.5036  0.0683
 2485TIP3   OH2 7460   0.492   2.391   0.523  0.5783 -0.2257 -0.0537
 2485TIP3    H1 7461   0.551   2.332   0.570  0.6626 -0.2570 -0.1995
 2485TIP3    H2 7462   0.546   2.466   0.500  0.9814 -0.9642 -1.6054
 2486TIP3   OH2 7463   1.240   5.081   5.063 -0.2312  0.1723  0.5993
 2486TIP3    H1 7464   1.276   5.098   4.976 -1.0277  0.1648  0.2617
 2486TIP3    H2 7465   1.170   5.146   5.073 -1.9614 -1.5156  0.1124
 2487TIP3   OH2 7466   5.528   2.508   2.836 -0.1011 -0.4200 -0.1189
 2487TIP3    H1 7467   5.530   2.542   2.926 -1.9501 -2.4323  0.7708
 2487TIP3    H2 7468   5.457   2.443   2.836 -3.3791  2.6024 -4.2226
 2488TIP3   OH2 7469   0.055   4.836   2.614 -0.0918  0.2866 -0.1232
 2488TIP3    H1 7470  -0.038   4.854   2.626 -0.3075 -0.5955 -0.4319
 2488TIP3    H2 7471   0.071   4.758   2.666  0.3602  0.1259 -0.5028
 2489TIP3   OH2 7472   5.412   2.584   0.527 -0.0451  0.2338  0.0419
 2489TIP3    H1 7473   5.418   2.644   0.601 -0.1308  0.6988 -0.3254
 2489TIP3    H2 7474   5.501   2.577   0.494 -0.4459  2.5215 -1.7619
 2490TIP3   OH2 7475   0.457   4.446   3.608 -0.7106 -0.2545 -0.2859
 2490TIP3    H1 7476   0.380   4.481   3.653 -0.5900  0.0213 -0.2994
 2490TIP3    H2 7477   0.528   4.454   3.671 -0.4349  0.5824 -0.7019
 2491TIP3   OH2 7478   4.869   2.238   3.248 -0.4009  0.0704  0.2109
 2491TIP3    H1 7479   4.859   2.164   3.188  0.0809 -0.5595  0.8904
 2491TIP3    H2 7480   4.791   2.235   3.304 -0.3928  0.0893  0.2235
 2492TIP3   OH2 7481   2.282   3.678   4.217  0.4164  0.4036 -0.4811
 2492TIP3    H1 7482   2.347   3.678   4.287  1.4204  0.9774 -1.3859
 2492TIP3    H2 7483   2.285   3.767   4.182  1.1962 -0.3181 -2.3697
 2493TIP3   OH2 7484   4.275   5.248   4.983  0.4829  0.2222 -0.5689
 2493TIP3    H1 7485   4.235   5.242   4.897  0.0934  0.1687 -0.3848
 2493TIP3    H2 7486   4.308   5.160   5.001 -0.5861 -0.0891 -0.1092
 2494TIP3   OH2 7487   2.668   4.823   3.439 -0.0783  0.1464  0.0801
 2494TIP3    H1 7488   2.594   4.805   3.382 -0.1705  0.1103  0.2121
 2494TIP3    H2 7489   2.712   4.739   3.450  0.5215  0.3428 -0.7557
 2495TIP3   OH2 7490   1.405   4.959   4.815  0.9203 -0.4114  0.7602
 2495TIP3    H1 7491   1.472   5.010   4.861 -0.0644 -0.3694  2.2158
 2495TIP3    H2 7492   1.452   4.883   4.782  2.2354  0.9180 -0.6525
 2496TIP3   OH2 7493   4.747   5.632   1.979  0.0094  0.2694  0.5558
 2496TIP3    H1 7494   4.746   5.646   1.885  2.4990 -0.0601  0.4312
 2496TIP3    H2 7495   4.686   5.559   1.993 -0.5423  0.4659 -0.7558
 2497TIP3   OH2 7496   4.562   2.475   2.063  0.1538 -0.1384 -0.2558
 2497TIP3    H1 7497   4.532   2.409   2.125 -0.7070 -0.3720 -0.8951
 2497TIP3    H2 7498   4.593   2.548   2.117 -1.8549  0.2386  0.4454
 2498TIP3   OH2 7499   1.004   2.301   1.233  0.2214 -0.6043  0.1312
 2498TIP3    H1 7500   1.042   2.214   1.235  0.2696 -0.6368 -1.0830
 2498TIP3    H2 7501   1.036   2.344   1.312 -1.6800 -2.4345  2.0387
 2499TIP3   OH2 7502   1.215   2.336   4.694  0.1011  0.8179 -0.3472
 2499TIP3    H1 7503   1.247   2.425   4.703  0.1314  1.0268 -2.1507
 2499TIP3    H2 7504   1.277   2.283   4.744  1.9130  1.4776 -1.8130
 2500TIP3   OH2 7505   1.359   5.899   0.484 -0.2367  0.3056  0.2206
 2500TIP3    H1 7506   1.431   5.954   0.454  0.4865  0.0052  1.3555
 2500TIP3    H2 7507   1.373   5.815   0.442 -0.7815  0.6667 -0.7253
 2501TIP3   OH2 7508   2.674   4.183   1.250  0.2561  0.5994  0.1823
 2501TIP3    H1 7509   2.585   4.151   1.239  0.7555 -2.0566  2.5805
 2501TIP3    H2 7510   2.696   4.224   1.166 -2.4578 -0.5586 -1.2138
 2502TIP3   OH2 7511   0.657   2.317   0.897  0.5387 -0.1589 -0.3487
 2502TIP3    H1 7512   0.601   2.348   0.967 -0.4855  1.0080 -1.6255
 2502TIP3    H2 7513   0.710   2.393   0.873  1.6761 -0.8469 -0.1376
 2503TIP3   OH2 7514   0.326   5.940   1.345 -0.4179  0.2211 -0.0517
 2503TIP3    H1 7515   0.249   5.917   1.398  0.1029 -1.7472 -0.0734
 2503TIP3    H2 7516   0.359   6.021   1.384 -3.7070  2.3977 -1.3721
 2504TIP3   OH2 7517   0.746   3.092   4.183 -0.0872 -0.5007  0.6654
 2504TIP3    H1 7518   0.705   3.176   4.204  2.3738  0.7106  0.9942
 2504TIP3    H2 7519   0.793   3.109   4.101 -1.1190 -2.1844 -0.3359
 2505TIP3   OH2 7520   0.547   3.071   0.037 -0.1130 -0.7087  0.1895
 2505TIP3    H1 7521   0.547   3.154   0.086  0.7892 -1.0217  0.7495
 2505TIP3    H2 7522   0.621   3.079  -0.023 -0.7497 -0.6433 -0.6113
 2506TIP3   OH2 7523   3.093   2.950   3.765  0.0675 -0.5196 -0.1688
 2506TIP3    H1 7524   3.103   2.947   3.861 -0.2919  0.1223 -0.1052
 2506TIP3    H2 7525   3.148   3.024   3.738  0.5676 -1.0125 -0.5196
 2507TIP3   OH2 7526   1.014   0.733   2.915 -0.1814 -0.3841  0.1537
 2507TIP3    H1 7527   0.921   0.744   2.935 -0.8716 -3.7742 -0.6095
 2507TIP3    H2 7528   1.037   0.811   2.865 -2.5927  0.5743  0.4170
 2508TIP3   OH2 7529   2.719   0.209   4.913 -0.2663 -0.0991 -0.4085
 2508TIP3    H1 7530   2.755   0.265   4.845  1.6182  0.0342  0.6379
 2508TIP3    H2 7531   2.745   0.120   4.887  0.4023 -0.0540  0.0741
 2509TIP3   OH2 7532   0.585   1.276   4.773 -0.1472  0.3806 -0.0470
 2509TIP3    H1 7533   0.571   1.234   4.688 -1.7929 -2.1088  1.3124
 2509TIP3    H2 7534   0.505   1.326   4.788  0.0510  0.6446  0.1272
 2510TIP3   OH2 7535   4.894   3.983   3.841  0.3385  0.1277 -0.9570
 2510TIP3    H1 7536   4.899   4.032   3.759  0.1810  3.1154  0.6688
 2510TIP3    H2 7537   4.940   4.038   3.905 -1.0568 -1.1980  1.3365
 2511TIP3   OH2 7538   5.034   1.326   3.774  0.7269 -0.3036  0.1532
 2511TIP3    H1 7539   5.076   1.303   3.691  0.5010 -0.5352  0.1038
 2511TIP3    H2 7540   5.091   1.393   3.812  0.7963 -0.1496 -0.2198
 2512TIP3   OH2 7541   1.152   3.534   0.405 -0.3497  0.8241 -0.5608
 2512TIP3    H1 7542   1.211   3.541   0.330  1.0216  0.5536  0.4580
 2512TIP3    H2 7543   1.121   3.623   0.420  0.3354  1.0884 -0.6962
 2513TIP3   OH2 7544   3.098   2.442   1.459  0.6858 -0.2205 -0.0220
 2513TIP3    H1 7545   3.117   2.536   1.466  1.9220 -0.2945 -1.7311
 2513TIP3    H2 7546   3.036   2.435   1.386 -0.4159 -0.6389  0.9338
 2514TIP3   OH2 7547   5.772   5.002   5.023  0.1891 -0.1844  0.1689
 2514TIP3    H1 7548   5.832   4.985   4.950  0.6038  1.0676  0.1910
 2514TIP3    H2 7549   5.691   4.957   4.999  0.8043 -1.0376 -0.3477
 2515TIP3   OH2 7550   3.443   5.276   4.190 -0.7010  0.1955  0.2223
 2515TIP3    H1 7551   3.409   5.222   4.261 -1.0606 -1.9025 -1.4355
 2515TIP3    H2 7552   3.511   5.330   4.231 -0.5421 -1.2937  2.0572
 2516TIP3   OH2 7553   0.597   3.265   1.588 -0.1560 -0.0013 -0.2677
 2516TIP3    H1 7554   0.559   3.345   1.553  0.8701  1.0178  0.8800
 2516TIP3    H2 7555   0.671   3.246   1.530 -0.5264 -0.2338 -0.6632
 2517TIP3   OH2 7556   6.059   3.118   1.168  0.2045  0.2265 -0.1038
 2517TIP3    H1 7557   6.009   3.198   1.155  0.5990  0.4932  0.0049
 2517TIP3    H2 7558   5.994   3.053   1.193  0.0560  0.8759  1.3010
 2518TIP3   OH2 7559   3.857   5.764   0.900 -0.3621  0.5550  0.0318
 2518TIP3    H1 7560   3.781   5.726   0.944 -0.4460  1.5185  0.7415
 2518TIP3    H2 7561   3.826   5.850   0.870  0.4057  0.9023  0.2194
 2519TIP3   OH2 7562   5.556   1.455   3.099  0.0362  1.0101 -0.5127
 2519TIP3    H1 7563   5.645   1.424   3.080 -0.8126 -0.7914 -1.7969
 2519TIP3    H2 7564   5.569   1.543   3.134  2.4053  0.3712  0.4589
 2520TIP3   OH2 7565   4.550   2.880   0.061  0.1940  0.2602  0.0991
 2520TIP3    H1 7566   4.641   2.867   0.035 -0.2986 -2.8820 -0.4012
 2520TIP3    H2 7567   4.503   2.890  -0.022 -0.3677 -2.1114  0.0668
 2521TIP3   OH2 7568   5.815   3.934   2.090  0.0702 -0.6515 -0.2289
 2521TIP3    H1 7569   5.782   3.971   2.172  1.9615  0.1405  0.2459
 2521TIP3    H2 7570   5.781   3.845   2.088  0.8630 -1.0883  2.0306
 2522TIP3   OH2 7571   0.915   2.968   1.741 -0.4049 -0.7364  0.1581
 2522TIP3    H1 7572   1.002   2.930   1.735 -0.6307 -1.0926 -1.1675
 2522TIP3    H2 7573   0.909   3.002   1.831  1.6370  0.6337 -0.1636
 2523TIP3   OH2 7574   5.249   5.344   4.660 -0.2843  0.2290  0.1934
 2523TIP3    H1 7575   5.277   5.299   4.739  0.5879 -2.3331 -1.4519
 2523TIP3    H2 7576   5.329   5.385   4.626 -0.8765  2.3211  1.1493
 2524TIP3   OH2 7577   0.016   5.234   4.327  0.2059  0.0698 -0.1331
 2524TIP3    H1 7578   0.068   5.155   4.340  0.0528 -0.0119 -0.0139
 2524TIP3    H2 7579   0.065   5.303   4.372 -1.6565 -0.6872  3.4647
 2525TIP3   OH2 7580   0.087   5.742   2.510  0.6214 -0.3984  0.1457
 2525TIP3    H1 7581   0.168   5.705   2.545  0.3981 -0.7137  0.3292
 2525TIP3    H2 7582   0.022   5.674   2.523  0.7911 -1.0655 -2.0646
 2526TIP3   OH2 7583   4.435   2.494   4.408  0.5014 -0.1366  0.1884
 2526TIP3    H1 7584   4.388   2.548   4.344  0.4934  2.0287  1.8671
 2526TIP3    H2 7585   4.521   2.480   4.369 -0.4393 -1.4853 -1.5569
 2527TIP3   OH2 7586   4.743   5.777   2.587  0.0705  0.1955 -0.0942
 2527TIP3    H1 7587   4.673   5.837   2.613  0.2005  0.1252  0.4289
 2527TIP3    H2 7588   4.766   5.731   2.668  0.4969 -0.0139 -0.3345
 2528TIP3   OH2 7589   2.573   4.813   1.544 -0.1628  0.4711 -0.3012
 2528TIP3    H1 7590   2.665   4.807   1.571 -0.4394 -1.7864  0.3423
 2528TIP3    H2 7591   2.524   4.812   1.626 -0.8220  4.6831 -0.4024
 2529TIP3   OH2 7592   4.789   1.062   0.920  0.2580 -0.4769  0.0764
 2529TIP3    H1 7593   4.700   1.052   0.954  0.0718  1.0041  0.0849
 2529TIP3    H2 7594   4.845   1.047   0.996 -0.0195 -0.6549  0.2462
 2530TIP3   OH2 7595   3.141   2.315  -0.026 -0.0883  0.0522 -0.0739
 2530TIP3    H1 7596   3.212   2.331   0.036  0.4512  1.3657 -0.9942
 2530TIP3    H2 7597   3.061   2.329   0.024  0.3410  1.0273  0.3473
 2531TIP3   OH2 7598   4.601   3.825   1.293 -0.4834 -0.2436 -0.0008
 2531TIP3    H1 7599   4.670   3.890   1.276 -0.3669 -0.2516  0.4334
 2531TIP3    H2 7600   4.562   3.853   1.376 -0.9072 -0.3261 -0.1699
 2532TIP3   OH2 7601   3.179   3.556   0.897 -0.0151 -0.2039  0.2858
 2532TIP3    H1 7602   3.092   3.594   0.881  0.1437 -0.0194 -0.1406
 2532TIP3    H2 7603   3.162   3.482   0.956 -0.3211  0.5739  1.1966
 2533TIP3   OH2 7604   3.117   3.642   4.653  0.2658  0.5331  0.3600
 2533TIP3    H1 7605   3.156   3.705   4.592 -0.7607  1.8150  0.9835
 2533TIP3    H2 7606   3.059   3.694   4.708  0.0433 -0.8297  1.4831
 2534TIP3   OH2 7607   4.512   5.664   0.236 -0.0192 -0.0398  0.6502
 2534TIP3    H1 7608   4.570   5.695   0.168 -0.7647 -1.1740 -0.5512
 2534TIP3    H2 7609   4.505   5.737   0.297  0.5012  1.0799 -0.5897
 2535TIP3   OH2 7610   4.693   3.949   2.260  0.3783 -0.4485  0.1369
 2535TIP3    H1 7611   4.706   4.035   2.221  0.8034 -0.0693  1.0777
 2535TIP3    H2 7612   4.600   3.947   2.282 -0.1801 -1.2257 -2.1427
 2536TIP3   OH2 7613   5.403   4.982   1.165  0.2350  0.0587  0.3959
 2536TIP3    H1 7614   5.403   5.072   1.131 -0.3620 -0.3690 -0.7939
 2536TIP3    H2 7615   5.447   4.989   1.250  3.3509  0.8894 -1.1468
 2537TIP3   OH2 7616   5.086   4.130   1.964  0.1553 -0.1422 -0.2752
 2537TIP3    H1 7617   5.032   4.052   1.956 -0.1371  0.0724 -0.3965
 2537TIP3    H2 7618   5.051   4.177   2.040 -0.8518  0.7889 -1.2724
 2538TIP3   OH2 7619   2.602   0.843   1.234  0.4239  0.2556 -0.1312
 2538TIP3    H1 7620   2.524   0.797   1.264  0.1806 -0.2713 -1.5213
 2538TIP3    H2 7621   2.668   0.825   1.301  0.0059 -1.1701 -0.0869
 2539TIP3   OH2 7622   3.239   0.829   4.248  0.1754 -0.1506 -0.1181
 2539TIP3    H1 7623   3.181   0.758   4.277  1.7332 -1.7547 -0.7548
 2539TIP3    H2 7624   3.288   0.853   4.327  0.2535 -0.3953 -0.0906
 2540TIP3   OH2 7625   3.003   2.068   2.942 -0.2256 -0.0516  0.0497
 2540TIP3    H1 7626   3.046   1.983   2.955  2.4473  1.1200 -0.4842
 2540TIP3    H2 7627   3.035   2.098   2.857 -1.9979  1.0276 -0.2802
 2541TIP3   OH2 7628   5.583   2.764   1.668 -0.0640 -0.1687 -0.1806
 2541TIP3    H1 7629   5.622   2.758   1.580  0.4360 -0.7296  0.0726
 2541TIP3    H2 7630   5.492   2.737   1.655  0.1864 -0.9349 -0.4192
 2542TIP3   OH2 7631   2.138   3.069   4.488  0.1153  0.6706  0.0585
 2542TIP3    H1 7632   2.154   3.104   4.576 -1.9083 -0.7350  1.0574
 2542TIP3    H2 7633   2.092   3.139   4.442  1.3535  1.4874  0.0121
 2543TIP3   OH2 7634   4.854   2.883   0.051 -0.2912  0.1270  0.6455
 2543TIP3    H1 7635   4.856   2.966   0.099  1.2123 -0.4455  1.6611
 2543TIP3    H2 7636   4.915   2.827   0.099 -0.4151 -1.2026 -0.6915
 2544TIP3   OH2 7637   2.421   0.872   0.481 -0.4897  0.4605 -0.2268
 2544TIP3    H1 7638   2.404   0.784   0.515  0.3033  0.6562  0.7321
 2544TIP3    H2 7639   2.351   0.925   0.518 -0.5213  0.3787 -0.1676
 2545TIP3   OH2 7640   1.337   0.343   1.244 -0.2655  0.3827  0.4287
 2545TIP3    H1 7641   1.297   0.390   1.317  1.5621 -1.6198  2.9032
 2545TIP3    H2 7642   1.412   0.397   1.218 -0.5288  0.7803  0.4934
 2546TIP3   OH2 7643   6.234   3.863   1.315  0.4847  0.3867 -0.0850
 2546TIP3    H1 7644   6.190   3.842   1.397  1.7938  1.3478  0.9131
 2546TIP3    H2 7645   6.314   3.810   1.317  1.4257  1.7663  0.1578
 2547TIP3   OH2 7646   1.084   0.521   4.930  0.0778  0.6290 -0.9270
 2547TIP3    H1 7647   1.122   0.590   4.984  1.2914  0.1476 -1.1390
 2547TIP3    H2 7648   1.126   0.531   4.845  1.4058 -1.2707 -0.5451
 2548TIP3   OH2 7649   4.365   0.029   1.745  0.3059  0.4156 -0.1435
 2548TIP3    H1 7650   4.365   0.015   1.839  1.4503 -0.7439 -0.2951
 2548TIP3    H2 7651   4.427  -0.035   1.710 -0.3161  0.6058 -1.7204
 2549TIP3   OH2 7652   3.788   1.322   0.608  0.1651  0.5155  0.5066
 2549TIP3    H1 7653   3.851   1.353   0.543  0.4768  0.1033  0.6096
 2549TIP3    H2 7654   3.737   1.399   0.630  0.1313  0.6876 -0.1441
 2550TIP3   OH2 7655   5.213   3.233   1.814  0.8397 -0.2711  0.3493
 2550TIP3    H1 7656   5.251   3.320   1.824  0.2737 -0.0981  1.1840
 2550TIP3    H2 7657   5.240   3.186   1.894  0.6020 -0.6405  0.2171
 2551TIP3   OH2 7658   5.612   3.139   0.911 -0.0640  0.4456 -0.0135
 2551TIP3    H1 7659   5.606   3.106   0.821  0.2106 -2.3076  0.8762
 2551TIP3    H2 7660   5.548   3.087   0.960  2.2894 -0.7418  2.0122
 2552TIP3   OH2 7661   3.260   1.674   1.336  0.0378 -0.3026  0.3923
 2552TIP3    H1 7662   3.241   1.699   1.246 -0.2660 -1.6294  0.0657
 2552TIP3    H2 7663   3.296   1.586   1.330  1.1538  0.0396  1.4818
 2553TIP3   OH2 7664   5.788   0.263   0.211 -0.3157 -0.3101 -0.1163
 2553TIP3    H1 7665   5.825   0.350   0.197 -1.3747  0.1541 -0.1798
 2553TIP3    H2 7666   5.795   0.248   0.305 -0.0625 -0.1818 -0.1157
 2554TIP3   OH2 7667   4.776   1.321   1.080 -0.0568  0.2283 -0.5035
 2554TIP3    H1 7668   4.736   1.255   1.137 -1.4191  0.4540 -1.1344
 2554TIP3    H2 7669   4.733   1.403   1.105  1.4307  0.8641  0.0929
 2555TIP3   OH2 7670   4.325   0.815   0.690 -0.0153 -0.3370  0.6112
 2555TIP3    H1 7671   4.247   0.814   0.634  0.0303  1.2729  0.4625
 2555TIP3    H2 7672   4.310   0.746   0.754 -1.6595  0.0391  0.6705
 2556TIP3   OH2 7673   2.844   3.702   1.311 -0.0466  0.1031  0.1907
 2556TIP3    H1 7674   2.861   3.775   1.251  0.9256 -0.4517 -0.2335
 2556TIP3    H2 7675   2.846   3.625   1.255  1.5604 -0.4965  1.0166
 2557TIP3   OH2 7676   5.910   4.035   1.052  0.0467 -0.2721 -0.4823
 2557TIP3    H1 7677   5.843   4.066   1.114 -0.9702 -1.2926 -1.0255
 2557TIP3    H2 7678   5.903   4.094   0.978 -0.6660 -0.7079 -0.7750
 2558TIP3   OH2 7679   0.531   0.315   2.747 -0.1839  0.0097 -0.1581
 2558TIP3    H1 7680   0.601   0.327   2.810  1.3169  1.7142 -2.0234
 2558TIP3    H2 7681   0.502   0.403   2.724 -1.8248 -0.6082 -0.6457
 2559TIP3   OH2 7682   5.569   0.931   1.294 -0.0375  0.1410 -0.0283
 2559TIP3    H1 7683   5.622   0.972   1.362  1.1863 -1.2766 -0.0572
 2559TIP3    H2 7684   5.632   0.906   1.226 -0.8724 -0.7030 -0.5282
 2560TIP3   OH2 7685   3.402   2.165   1.694 -0.0240  0.3704  0.1424
 2560TIP3    H1 7686   3.317   2.142   1.655 -0.0159  0.7781 -0.1180
 2560TIP3    H2 7687   3.383   2.181   1.786  0.0191 -0.9897  0.4115
 2561TIP3   OH2 7688   4.419   4.062   4.565 -0.4313  0.4932 -0.0613
 2561TIP3    H1 7689   4.357   4.119   4.520 -0.8667  0.4320  0.4502
 2561TIP3    H2 7690   4.383   3.974   4.552 -1.0849  0.5539  1.1934
 2562TIP3   OH2 7691   5.923   5.781   1.173  0.0865  0.3729  0.0527
 2562TIP3    H1 7692   5.907   5.688   1.191  0.0317  0.6961  1.8455
 2562TIP3    H2 7693   5.997   5.804   1.230  0.8769  1.1686 -1.2389
 2563TIP3   OH2 7694   2.326   4.536   4.255 -0.4359 -0.3765 -0.4834
 2563TIP3    H1 7695   2.260   4.474   4.226 -0.0358 -1.0748  0.0650
 2563TIP3    H2 7696   2.322   4.533   4.351  0.0397 -0.0560 -0.4472
 2564TIP3   OH2 7697   2.245   5.163   3.040  0.5977  0.1543 -0.1794
 2564TIP3    H1 7698   2.162   5.164   2.993  0.9806  0.2672 -0.8552
 2564TIP3    H2 7699   2.258   5.254   3.068 -0.2155 -0.1252  1.2057
 2565TIP3   OH2 7700   3.308   3.175   2.124  0.0969  0.2869 -0.1427
 2565TIP3    H1 7701   3.352   3.252   2.087 -1.1311  0.5057 -1.2157
 2565TIP3    H2 7702   3.295   3.117   2.049  0.2381 -0.5820  0.5043
 2566TIP3   OH2 7703   5.811   5.150   0.198  0.1662 -0.0016  1.2063
 2566TIP3    H1 7704   5.743   5.082   0.194  0.7645 -0.5648  0.2188
 2566TIP3    H2 7705   5.764   5.229   0.225 -1.0427 -0.2011 -0.1962
 2567TIP3   OH2 7706   1.728   4.754   3.182  0.0509  0.2192 -0.2780
 2567TIP3    H1 7707   1.661   4.742   3.116  0.7563 -1.6391 -0.7230
 2567TIP3    H2 7708   1.686   4.806   3.251 -0.8132  1.8697 -1.9546
 2568TIP3   OH2 7709   2.820   0.112   3.424 -0.2180 -1.0875  0.3749
 2568TIP3    H1 7710   2.845   0.199   3.391 -1.1670  0.0480  2.4478
 2568TIP3    H2 7711   2.890   0.088   3.485  0.6455 -2.3812 -1.0457
 2569TIP3   OH2 7712   5.866   1.104   2.905  0.1715  0.0105 -0.2237
 2569TIP3    H1 7713   5.931   1.038   2.880  1.9391  2.1992 -1.8137
 2569TIP3    H2 7714   5.883   1.121   2.997  0.5654 -0.8149 -0.1363
 2570TIP3   OH2 7715   1.070   0.064   5.118  0.2573 -0.0155  0.3022
 2570TIP3    H1 7716   0.977   0.066   5.095  0.6191  0.3993 -1.3010
 2570TIP3    H2 7717   1.099   0.155   5.109  0.7504 -0.0774  1.1545
 2571TIP3   OH2 7718   0.108   1.524   0.546 -0.0663  0.8061 -0.0138
 2571TIP3    H1 7719   0.185   1.566   0.585  0.6470  0.3045 -0.8466
 2571TIP3    H2 7720   0.076   1.588   0.482 -0.3587  1.0214  0.3440
 2572TIP3   OH2 7721   3.212   5.076   2.555 -0.2064  0.5758  0.0577
 2572TIP3    H1 7722   3.291   5.053   2.602 -0.5785 -2.2434 -0.5406
 2572TIP3    H2 7723   3.240   5.087   2.464 -0.7011 -2.9235 -0.6692
 2573TIP3   OH2 7724   5.263   3.636   3.386  0.7625  0.0098 -0.8632
 2573TIP3    H1 7725   5.301   3.724   3.383  0.3113  0.3504  1.3651
 2573TIP3    H2 7726   5.264   3.606   3.296  0.8713  2.3272 -1.6970
 2574TIP3   OH2 7727   0.545   0.429   1.864 -0.5019 -0.1261 -0.3213
 2574TIP3    H1 7728   0.590   0.489   1.806  0.6365  0.6176  1.2521
 2574TIP3    H2 7729   0.615   0.383   1.910 -1.2704  0.8135  1.9506
 2575TIP3   OH2 7730   4.633   3.224   4.778 -0.1096 -0.0368 -0.5520
 2575TIP3    H1 7731   4.574   3.165   4.731 -0.4747 -0.2055  0.1062
 2575TIP3    H2 7732   4.695   3.254   4.711 -0.8771  0.0665 -1.2436
 2576TIP3   OH2 7733   2.099   2.250   4.155 -0.0989  0.0496  0.1695
 2576TIP3    H1 7734   2.133   2.225   4.069  1.0507 -1.4855  1.0279
 2576TIP3    H2 7735   2.090   2.168   4.202 -1.9775  0.7423  1.1056
 2577TIP3   OH2 7736   0.652   3.167   1.849  0.6173  0.1043 -0.0841
 2577TIP3    H1 7737   0.653   3.192   1.756 -1.4298 -1.1652 -0.5355
 2577TIP3    H2 7738   0.743   3.148   1.870  1.1622  0.6497 -1.7646
 2578TIP3   OH2 7739   1.101   0.043   3.522  0.1874 -0.0082 -0.4681
 2578TIP3    H1 7740   1.115   0.134   3.546  0.2283 -0.5163  1.6050
 2578TIP3    H2 7741   1.008   0.036   3.503  0.3299  0.6176 -1.4698
 2579TIP3   OH2 7742   3.845   1.882   4.620  0.1711 -0.1335 -0.2339
 2579TIP3    H1 7743   3.761   1.843   4.599  1.1623 -1.9361 -1.1221
 2579TIP3    H2 7744   3.908   1.832   4.568  1.8518  0.8085  0.8007
 2580TIP3   OH2 7745   0.096   4.841   3.575  0.3156 -0.4455 -0.1073
 2580TIP3    H1 7746   0.036   4.772   3.602  0.4169 -0.7608 -0.6679
 2580TIP3    H2 7747   0.179   4.820   3.618  0.5206 -1.0298 -0.7736
 2581TIP3   OH2 7748   2.133   1.055   2.634  0.4822  0.2060  0.0553
 2581TIP3    H1 7749   2.067   0.989   2.612  0.5651 -0.1780  0.9226
 2581TIP3    H2 7750   2.201   1.006   2.681  1.4015  0.5953 -0.8090
 2582TIP3   OH2 7751   5.874   0.997   4.419 -0.5994 -0.0561  0.0538
 2582TIP3    H1 7752   5.834   1.058   4.481  0.1599  1.3267 -0.7761
 2582TIP3    H2 7753   5.842   0.911   4.447 -0.0402  0.4531  2.5599
 2583TIP3   OH2 7754   1.987   1.487   4.313  0.1422  0.3443 -0.1724
 2583TIP3    H1 7755   1.966   1.577   4.337  1.1028 -0.0908  2.7465
 2583TIP3    H2 7756   1.904   1.440   4.321 -0.4543  0.9719 -2.1177
 2584TIP3   OH2 7757   4.841   2.623   0.214  0.3892 -0.5483  0.6084
 2584TIP3    H1 7758   4.878   2.543   0.178  0.7776  0.6149 -1.7498
 2584TIP3    H2 7759   4.747   2.607   0.220  0.5152 -1.3085  0.5727
 2585TIP3   OH2 7760   5.014   1.342   1.986 -0.3178  0.7829 -0.0221
 2585TIP3    H1 7761   5.096   1.359   1.939  0.9123 -0.1264  1.6912
 2585TIP3    H2 7762   4.998   1.422   2.036 -0.4720  0.9506 -0.3359
 2586TIP3   OH2 7763   0.152   2.422   2.394 -0.5432  0.0642  0.4413
 2586TIP3    H1 7764   0.120   2.444   2.482 -0.6648  0.9458  0.1806
 2586TIP3    H2 7765   0.246   2.441   2.397 -0.4782 -0.2583  0.4885
 2587TIP3   OH2 7766   5.581   5.795   1.110  0.1902 -0.1655  0.7326
 2587TIP3    H1 7767   5.517   5.864   1.096  1.5631  1.2030  0.9790
 2587TIP3    H2 7768   5.654   5.838   1.154  1.8191 -1.3769 -0.6537
 2588TIP3   OH2 7769   1.398   0.837   3.530  0.3288  0.4131  0.0336
 2588TIP3    H1 7770   1.395   0.933   3.540 -2.8875  0.4898 -0.6018
 2588TIP3    H2 7771   1.386   0.803   3.618  0.1276  0.6189  0.0858
 2589TIP3   OH2 7772   3.218   0.779   1.290 -0.7382  0.2683  0.0317
 2589TIP3    H1 7773   3.206   0.709   1.355 -1.7555 -1.7320 -2.1705
 2589TIP3    H2 7774   3.244   0.733   1.210  1.7436  2.7511 -0.7398
 2590TIP3   OH2 7775   3.179   5.070   1.150 -0.6259  0.2729 -0.1924
 2590TIP3    H1 7776   3.124   5.130   1.101 -1.5800 -1.0716 -0.8013
 2590TIP3    H2 7777   3.265   5.112   1.151 -1.4676  2.0811  0.2081
 2591TIP3   OH2 7778   2.773   2.914   3.721  0.0185 -0.8864  0.6905
 2591TIP3    H1 7779   2.691   2.944   3.759 -0.3471  1.1605 -1.4930
 2591TIP3    H2 7780   2.839   2.937   3.787 -0.6812  1.6738  0.6212
 2592TIP3   OH2 7781   5.435   2.957   1.062 -0.6818 -0.0377  0.1492
 2592TIP3    H1 7782   5.396   2.952   1.149 -0.3749 -0.5907  0.2588
 2592TIP3    H2 7783   5.464   2.868   1.043 -0.5871  0.1150 -0.4450
 2593TIP3   OH2 7784   1.239   2.919   3.989 -0.2136  0.2415 -0.0366
 2593TIP3    H1 7785   1.334   2.914   3.996 -0.1783  0.2572 -0.4403
 2593TIP3    H2 7786   1.207   2.841   4.033  0.0786 -0.8307 -1.6207
 2594TIP3   OH2 7787   2.681   0.229   0.247 -0.2026 -0.2580 -0.0560
 2594TIP3    H1 7788   2.684   0.271   0.333  1.7222  0.8939 -0.6416
 2594TIP3    H2 7789   2.648   0.296   0.188 -1.7794 -1.1296 -0.2299
 2595TIP3   OH2 7790   6.131   5.255   1.849  0.3083 -0.0101  0.0334
 2595TIP3    H1 7791   6.159   5.332   1.800  1.1623 -0.2077  0.1839
 2595TIP3    H2 7792   6.076   5.207   1.789  0.5241  0.2572 -0.3855
 2596TIP3   OH2 7793   3.327   0.291   1.943 -0.0425 -0.0511 -0.5726
 2596TIP3    H1 7794   3.405   0.321   1.897 -0.3711  1.1646 -0.3750
 2596TIP3    H2 7795   3.309   0.360   2.007  1.6850 -2.5752  3.0144
 2597TIP3   OH2 7796   2.751   3.578   0.583  0.1963 -0.4263  0.6347
 2597TIP3    H1 7797   2.690   3.509   0.609  0.3876 -0.4807  0.9410
 2597TIP3    H2 7798   2.721   3.655   0.632 -1.2167  0.2353 -1.1602
 2598TIP3   OH2 7799   3.390   1.013   0.381  0.1996 -0.5215  0.9129
 2598TIP3    H1 7800   3.318   0.980   0.327  0.9598 -1.9498  0.7389
 2598TIP3    H2 7801   3.346   1.051   0.457 -0.7268 -2.7075  1.5476
 2599TIP3   OH2 7802   2.676   5.132   1.836  0.5258  0.4536 -0.3910
 2599TIP3    H1 7803   2.743   5.064   1.830  0.8810  0.9542 -2.8802
 2599TIP3    H2 7804   2.594   5.084   1.847  0.8875 -0.3493 -1.0994
 2600TIP3   OH2 7805   0.863   5.357   4.041 -0.1205  0.1088 -0.1089
 2600TIP3    H1 7806   0.901   5.337   3.955  0.0365 -0.0019 -0.0151
 2600TIP3    H2 7807   0.930   5.410   4.084  1.3721 -2.6610  1.2760
 2601TIP3   OH2 7808   0.759   0.732   2.298  0.3313 -0.3245  0.0347
 2601TIP3    H1 7809   0.805   0.686   2.368 -0.7668 -0.2944  0.8004
 2601TIP3    H2 7810   0.737   0.663   2.235 -0.6871 -0.7611  0.8368
 2602TIP3   OH2 7811   3.940   3.442   1.965 -0.0255  0.0563  0.2347
 2602TIP3    H1 7812   3.934   3.534   1.990  0.5755  0.7168 -1.8204
 2602TIP3    H2 7813   3.861   3.427   1.913  0.6399 -0.1066 -0.7572
 2603TIP3   OH2 7814   2.810   5.467   4.289 -0.2632  0.0437  0.0232
 2603TIP3    H1 7815   2.836   5.475   4.380 -1.3755 -0.4523  0.4040
 2603TIP3    H2 7816   2.756   5.388   4.286  1.6150 -1.2752 -1.5207
 2604TIP3   OH2 7817   2.572   2.582   3.431 -0.4907  0.2145 -0.4291
 2604TIP3    H1 7818   2.649   2.526   3.427 -0.9987 -0.4485 -1.3006
 2604TIP3    H2 7819   2.582   2.630   3.512 -1.0368 -2.6180  1.4605
 2605TIP3   OH2 7820   5.596   4.691   3.162  0.0643  0.4992 -0.1151
 2605TIP3    H1 7821   5.541   4.613   3.167  0.2320  0.4212  0.6007
 2605TIP3    H2 7822   5.677   4.667   3.207  0.0754  1.1143  0.2111
 2606TIP3   OH2 7823   3.433   4.609   1.441  0.3312  0.6142 -0.3078
 2606TIP3    H1 7824   3.452   4.685   1.385  0.5391 -0.7946 -2.2631
 2606TIP3    H2 7825   3.520   4.580   1.470  0.1635  2.1239  1.9781
 2607TIP3   OH2 7826   0.872   4.267   1.418  0.3805  0.1718 -0.2462
 2607TIP3    H1 7827   0.881   4.182   1.461 -0.4634  0.3456  0.2837
 2607TIP3    H2 7828   0.780   4.291   1.430  0.2446  0.4864 -1.6601
 2608TIP3   OH2 7829   0.500   5.676   2.541  0.4233  0.2806 -0.1551
 2608TIP3    H1 7830   0.577   5.668   2.485  0.2572  0.7942 -0.4578
 2608TIP3    H2 7831   0.462   5.760   2.518 -0.2040  0.0546  0.0295
 2609TIP3   OH2 7832   1.456   2.569   4.254  0.4840  0.1041  0.9574
 2609TIP3    H1 7833   1.501   2.596   4.174 -0.8504 -1.5157 -0.4285
 2609TIP3    H2 7834   1.514   2.597   4.325  2.5067  0.1815 -0.6228
 2610TIP3   OH2 7835   2.166   3.279   0.658  0.1604  0.5076  0.4873
 2610TIP3    H1 7836   2.104   3.262   0.728  0.3434 -1.8632  0.1587
 2610TIP3    H2 7837   2.123   3.345   0.603 -0.9423  0.7570  1.6072
 2611TIP3   OH2 7838   5.140   2.019   4.112 -0.3506 -0.4612  0.4122
 2611TIP3    H1 7839   5.077   2.020   4.185 -1.6740 -2.6151 -0.5768
 2611TIP3    H2 7840   5.146   2.110   4.085 -1.3535  0.1236  1.9540
 2612TIP3   OH2 7841   2.847   0.490   3.985  0.1410  0.1736  0.4915
 2612TIP3    H1 7842   2.827   0.424   3.919  1.7921  1.4202 -1.3861
 2612TIP3    H2 7843   2.933   0.466   4.018  1.0116  1.5965 -0.6112
 2613TIP3   OH2 7844   4.058   5.685   0.087 -0.5001  0.0303 -0.1056
 2613TIP3    H1 7845   4.141   5.638   0.102 -0.3729  0.2590 -0.0852
 2613TIP3    H2 7846   3.991   5.617   0.092 -0.2726 -0.2415 -0.6163
 2614TIP3   OH2 7847   3.528   5.865   0.942 -0.0674 -0.4150  0.1304
 2614TIP3    H1 7848   3.531   5.774   0.972  1.2989 -0.0094  1.3120
 2614TIP3    H2 7849   3.435   5.889   0.948 -0.3206 -1.4627  0.6113
 2615TIP3   OH2 7850   2.406   1.734   2.592  0.1618  0.1049  0.2937
 2615TIP3    H1 7851   2.367   1.648   2.605 -0.6779  0.3129 -0.6481
 2615TIP3    H2 7852   2.382   1.784   2.670 -0.8171 -0.0119  0.0785
 2616TIP3   OH2 7853   3.007   0.247   1.833  0.2464  0.0843  0.6852
 2616TIP3    H1 7854   3.073   0.193   1.790 -0.3981  0.2647 -0.5719
 2616TIP3    H2 7855   3.043   0.336   1.830 -0.0837  0.2031 -0.1152
 2617TIP3   OH2 7856   2.121   1.844   3.036 -0.0849  0.2389  0.2632
 2617TIP3    H1 7857   2.101   1.857   2.943 -0.0900 -0.6081  0.1322
 2617TIP3    H2 7858   2.203   1.891   3.049 -0.6005  1.2283  0.0867
 2618TIP3   OH2 7859   0.137   1.510   4.034 -0.1662  0.0920  0.2449
 2618TIP3    H1 7860   0.085   1.446   4.082 -0.5297  0.7689  0.7890
 2618TIP3    H2 7861   0.102   1.595   4.063 -0.5044  0.5278 -1.3312
 2619TIP3   OH2 7862   3.227   1.934   0.686  0.1170 -0.6305  0.0460
 2619TIP3    H1 7863   3.287   1.931   0.760  0.1514  1.0011  0.1389
 2619TIP3    H2 7864   3.159   1.996   0.713  0.4564  0.4727 -1.4827
 2620TIP3   OH2 7865   4.890   0.924   3.887  0.2241 -0.5998 -0.0787
 2620TIP3    H1 7866   4.928   0.994   3.940  0.1838 -0.8832  0.3268
 2620TIP3    H2 7867   4.887   0.961   3.798 -1.8879  0.7922  0.4805
 2621TIP3   OH2 7868   1.018   5.316   1.413 -0.4591  0.4907  0.1695
 2621TIP3    H1 7869   0.967   5.239   1.440 -0.5816  0.7526  0.6952
 2621TIP3    H2 7870   1.080   5.329   1.485  0.1917  0.3191 -0.3539
 2622TIP3   OH2 7871   2.637   4.592   0.324 -0.5678 -0.0376 -0.3359
 2622TIP3    H1 7872   2.640   4.654   0.396 -0.0750  1.2328 -1.4042
 2622TIP3    H2 7873   2.569   4.529   0.348  0.3408 -0.2967  1.7119
 2623TIP3   OH2 7874   5.784   0.301   3.516  0.4982 -0.0988  0.4238
 2623TIP3    H1 7875   5.773   0.381   3.466  1.1043 -0.4316 -0.2540
 2623TIP3    H2 7876   5.869   0.310   3.559  0.2395 -0.0669  0.9487
 2624TIP3   OH2 7877   4.879   5.261   0.927  0.2469  0.3009  0.3305
 2624TIP3    H1 7878   4.870   5.293   0.837 -3.1937  0.8422  0.7574
 2624TIP3    H2 7879   4.793   5.227   0.950  1.6135 -1.9058  2.7272
 2625TIP3   OH2 7880   3.854   3.497   4.142 -0.8293 -0.2999  0.3687
 2625TIP3    H1 7881   3.852   3.403   4.163 -2.1553 -0.0102  1.7786
 2625TIP3    H2 7882   3.940   3.511   4.103 -0.7273 -2.1579 -0.1865
 2626TIP3   OH2 7883   1.314   5.609   4.089 -0.2320  0.2117  0.2925
 2626TIP3    H1 7884   1.296   5.593   4.182 -0.7645  0.8663  0.3108
 2626TIP3    H2 7885   1.366   5.533   4.061  1.8560  1.0282  1.6630
 2627TIP3   OH2 7886   0.837   0.882   4.861 -0.0883 -0.2918 -0.0895
 2627TIP3    H1 7887   0.768   0.947   4.871 -0.3972 -0.8730  1.9106
 2627TIP3    H2 7888   0.793   0.805   4.826 -0.4399 -0.5972  0.9955
 2628TIP3   OH2 7889   2.268   0.434   2.136 -0.0923  0.4290  0.0585
 2628TIP3    H1 7890   2.344   0.392   2.095  0.4597  0.0602  1.4132
 2628TIP3    H2 7891   2.276   0.526   2.112 -0.4769  0.0582 -1.6734
 2629TIP3   OH2 7892   6.155   3.877   2.463 -0.0137  0.1319  0.0806
 2629TIP3    H1 7893   6.196   3.803   2.509 -0.0643  0.1920  0.2219
 2629TIP3    H2 7894   6.067   3.882   2.500 -0.0778  0.1373 -0.0733
 2630TIP3   OH2 7895   3.736   5.025   0.703 -0.5216 -0.2708 -0.2426
 2630TIP3    H1 7896   3.689   5.010   0.785 -1.4125 -0.8016 -0.8232
 2630TIP3    H2 7897   3.822   4.985   0.717 -0.8436 -0.8011  0.2593
 2631TIP3   OH2 7898   3.635   5.543   3.751 -0.0568  0.1459  0.0153
 2631TIP3    H1 7899   3.568   5.604   3.720 -0.9035 -0.9395 -0.3369
 2631TIP3    H2 7900   3.651   5.485   3.677 -0.1403 -0.8097  0.7313
 2632TIP3   OH2 7901   3.392   3.509   2.090  0.2223  0.5847  0.1701
 2632TIP3    H1 7902   3.413   3.491   1.998  1.8168 -0.2141  0.6554
 2632TIP3    H2 7903   3.296   3.505   2.094  0.1507  0.1681 -1.3638
 2633TIP3   OH2 7904   4.363   0.121   2.900 -0.3263 -0.6249 -0.8745
 2633TIP3    H1 7905   4.342   0.082   2.815 -0.3020 -0.8688 -0.7714
 2633TIP3    H2 7906   4.456   0.139   2.896 -0.3018 -0.7454 -0.8578
 2634TIP3   OH2 7907   2.334   4.901   4.344 -0.0078  0.0262  0.6152
 2634TIP3    H1 7908   2.272   4.837   4.310  0.3970 -0.3297  0.5312
 2634TIP3    H2 7909   2.295   4.986   4.325  0.0916 -0.1707 -0.5043
 2635TIP3   OH2 7910   0.554   2.230   2.249  0.7968 -0.4077 -0.0206
 2635TIP3    H1 7911   0.499   2.220   2.327 -0.4759  3.0491 -0.3188
 2635TIP3    H2 7912   0.635   2.269   2.281  0.8275 -0.2607 -0.2763
 2636TIP3   OH2 7913   1.828   4.237   2.712  0.3165  0.0587 -0.1211
 2636TIP3    H1 7914   1.906   4.289   2.695  0.6698 -0.2337  0.5661
 2636TIP3    H2 7915   1.849   4.150   2.678 -1.3136  0.9761 -3.8851
 2637TIP3   OH2 7916   0.838   1.001   0.989  0.1756 -0.0532  0.2008
 2637TIP3    H1 7917   0.801   0.921   1.026 -0.1911 -0.2660 -0.5985
 2637TIP3    H2 7918   0.933   0.985   0.988  0.2072  0.0333  1.2027
 2638TIP3   OH2 7919   0.628   0.049   4.296  0.4872 -0.0030  0.2696
 2638TIP3    H1 7920   0.681   0.057   4.376  0.4374  0.7671  0.2332
 2638TIP3    H2 7921   0.575  -0.029   4.310  0.1121  0.4087  1.2100
 2639TIP3   OH2 7922   1.450  -0.019   2.623 -0.0763 -0.0866  0.3287
 2639TIP3    H1 7923   1.436  -0.005   2.716 -1.2805  0.3675  0.0852
 2639TIP3    H2 7924   1.402   0.051   2.579 -0.5345 -0.9927 -0.6760
 2640TIP3   OH2 7925   0.481   3.304   3.150 -0.0894 -0.4507  0.8159
 2640TIP3    H1 7926   0.493   3.392   3.116  1.0505 -0.4309  1.2018
 2640TIP3    H2 7927   0.505   3.246   3.078 -1.7922 -0.4876  0.2351
 2641TIP3   OH2 7928   5.460   5.970   2.071  0.2239 -0.0483  0.6981
 2641TIP3    H1 7929   5.458   5.909   1.998  2.6748 -0.1150  0.5981
 2641TIP3    H2 7930   5.553   5.991   2.083 -0.1306  0.4091  3.4195
 2642TIP3   OH2 7931   2.461   4.414   2.998  0.5668 -0.0433  0.3853
 2642TIP3    H1 7932   2.493   4.379   2.915 -0.1903 -0.7834  0.3821
 2642TIP3    H2 7933   2.530   4.393   3.061  0.8692 -0.0417  0.0566
 2643TIP3   OH2 7934   3.310   1.770   2.456 -0.2169 -0.6385  0.3324
 2643TIP3    H1 7935   3.322   1.729   2.370 -0.2236 -1.8527  0.8956
 2643TIP3    H2 7936   3.395   1.761   2.499  0.3131  1.4903 -0.1469
 2644TIP3   OH2 7937   0.869   1.475   2.998 -0.2283  0.3567  0.4742
 2644TIP3    H1 7938   0.861   1.490   2.903  1.5491  1.3229  0.4336
 2644TIP3    H2 7939   0.782   1.494   3.032 -0.7657  0.5237 -0.8959
 2645TIP3   OH2 7940   5.919   4.197   0.821 -0.0960  0.3054 -0.1709
 2645TIP3    H1 7941   5.904   4.282   0.779 -0.8307  0.0719 -0.3972
 2645TIP3    H2 7942   5.905   4.133   0.751  0.1778 -0.0141  0.0677
 2646TIP3   OH2 7943   0.488   1.287   1.941  0.4334 -0.1355 -0.7925
 2646TIP3    H1 7944   0.456   1.377   1.935  0.2293 -0.0064  1.2527
 2646TIP3    H2 7945   0.540   1.274   1.862  0.0988  1.6252 -1.3473
 2647TIP3   OH2 7946   4.558   2.260   0.276  0.4527  0.2506  0.3271
 2647TIP3    H1 7947   4.465   2.272   0.294  0.6139 -0.3671  1.6936
 2647TIP3    H2 7948   4.576   2.169   0.301  1.7306  0.7907  1.5312
 2648TIP3   OH2 7949   1.077   4.275   2.677 -0.5537  0.1617  0.4509
 2648TIP3    H1 7950   1.138   4.202   2.670  0.7965  1.3273 -0.6741
 2648TIP3    H2 7951   1.083   4.320   2.593 -0.9153  1.8717  1.2842
 2649TIP3   OH2 7952   1.275   3.590   2.490  0.4941 -0.2994 -0.3944
 2649TIP3    H1 7953   1.200   3.634   2.532 -0.3442 -1.4719 -0.6173
 2649TIP3    H2 7954   1.321   3.547   2.562  0.0080 -0.9218 -0.4408
 2650TIP3   OH2 7955   2.318   5.521   2.288 -0.7126 -0.6026 -0.1018
 2650TIP3    H1 7956   2.297   5.612   2.266  0.0191 -0.4672 -0.2789
 2650TIP3    H2 7957   2.308   5.474   2.205 -0.8347 -0.6317 -0.0698
 2651TIP3   OH2 7958   4.319   5.911   3.611 -0.4773 -0.1994  0.8524
 2651TIP3    H1 7959   4.304   5.880   3.522  0.6775 -1.5558  1.0965
 2651TIP3    H2 7960   4.291   5.839   3.667 -1.0536  0.5818  1.5969
 2652TIP3   OH2 7961   3.933   5.677   2.063 -0.2554 -0.4920 -0.0991
 2652TIP3    H1 7962   3.946   5.770   2.081 -0.0649 -0.8285  1.7102
 2652TIP3    H2 7963   3.850   5.656   2.105  0.3082 -1.3796  0.6285
 2653TIP3   OH2 7964   4.820   4.047   0.923 -0.1004 -0.7051 -0.5972
 2653TIP3    H1 7965   4.778   4.048   1.009  1.0856 -1.2264  0.0171
 2653TIP3    H2 7966   4.866   4.131   0.918  0.9804 -1.2422 -0.0995
 2654TIP3   OH2 7967   0.307   0.892   4.136  0.1230  0.0365 -0.0823
 2654TIP3    H1 7968   0.244   0.847   4.081  0.5137 -0.6495  0.0224
 2654TIP3    H2 7969   0.331   0.971   4.087  0.0483 -0.2844 -0.6372
 2655TIP3   OH2 7970   2.934   4.018   1.746 -0.5493 -0.3036 -0.2028
 2655TIP3    H1 7971   2.856   4.007   1.800 -1.0436 -1.8598 -1.1597
 2655TIP3    H2 7972   2.912   3.974   1.663  0.8913  0.3055 -0.9460
 2656TIP3   OH2 7973   2.303   5.687   2.999 -0.1788 -0.0374 -0.7213
 2656TIP3    H1 7974   2.361   5.624   2.956  0.2469 -0.7155  0.7659
 2656TIP3    H2 7975   2.242   5.715   2.931  0.9252 -0.4895 -1.9276
 2657TIP3   OH2 7976   4.902   1.617   1.405 -0.0019  0.2256  0.1543
 2657TIP3    H1 7977   4.850   1.544   1.437 -2.2384  2.5082  2.2253
 2657TIP3    H2 7978   4.837   1.680   1.374  1.7818  1.6267 -0.9325
 2658TIP3   OH2 7979   0.389   4.405   0.573 -0.0949 -0.0390 -0.7134
 2658TIP3    H1 7980   0.367   4.486   0.527  0.5967  1.2417  1.1039
 2658TIP3    H2 7981   0.316   4.391   0.633  1.8193  1.9246  2.3362
 2659TIP3   OH2 7982   0.978   2.230   0.990 -0.5468 -0.1744 -0.3769
 2659TIP3    H1 7983   1.001   2.266   1.076 -0.8992  0.8419 -0.6931
 2659TIP3    H2 7984   0.976   2.306   0.932 -3.8182 -0.2506 -0.5560
 2660TIP3   OH2 7985   3.657   5.365   3.555  0.0515 -0.0028 -0.0891
 2660TIP3    H1 7986   3.729   5.302   3.546 -0.1122 -0.0386 -1.3708
 2660TIP3    H2 7987   3.578   5.314   3.533  0.1078  1.0481 -3.2939
 2661TIP3   OH2 7988   2.227   0.991   2.903 -0.4972 -0.5630  0.0356
 2661TIP3    H1 7989   2.213   1.022   2.992  0.2910 -1.0182  0.3231
 2661TIP3    H2 7990   2.321   0.998   2.889 -0.5784 -0.7631 -0.6648
 2662TIP3   OH2 7991   5.518   1.684   0.260  0.1955 -0.0399 -0.2511
 2662TIP3    H1 7992   5.598   1.645   0.296  0.6166  0.7821 -0.2800
 2662TIP3    H2 7993   5.525   1.670   0.166  0.7197  0.7841 -0.3368
 2663TIP3   OH2 7994   6.288   5.537   3.462 -0.3287  0.2954  1.0663
 2663TIP3    H1 7995   6.299   5.593   3.538 -0.0869  0.4846  0.8956
 2663TIP3    H2 7996   6.193   5.528   3.451 -0.3622  0.2524  1.3962
 2664TIP3   OH2 7997   2.593   4.195   3.260 -0.5568 -0.1392  0.4641
 2664TIP3    H1 7998   2.682   4.228   3.242 -1.0107  1.3029  0.6738
 2664TIP3    H2 7999   2.583   4.205   3.354 -1.5521  1.4605  0.2360
 2665TIP3   OH2 8000   0.297   1.267   2.523  0.2613  0.1273  0.3169
 2665TIP3    H1 8001   0.309   1.212   2.446  0.1174 -0.1135  0.4657
 2665TIP3    H2 8002   0.249   1.343   2.491  2.3762  1.2799 -0.3687
 2666TIP3   OH2 8003   5.253   4.453   0.047  0.2466 -0.0302  0.2611
 2666TIP3    H1 8004   5.240   4.359   0.035  0.2708 -0.2088  1.4460
 2666TIP3    H2 8005   5.184   4.494  -0.004 -0.1194 -0.7209  0.1953
 2667TIP3   OH2 8006   4.324   3.131   1.952  0.1314  0.6435 -0.0360
 2667TIP3    H1 8007   4.232   3.153   1.967 -0.0960  1.0828 -1.8461
 2667TIP3    H2 8008   4.349   3.183   1.875  2.4303  1.9002  1.4532
 2668TIP3   OH2 8009   5.702   4.946   1.896 -0.0539 -0.3062  0.1093
 2668TIP3    H1 8010   5.728   5.008   1.964  0.1305 -0.1466 -0.1052
 2668TIP3    H2 8011   5.746   4.977   1.817 -0.4880 -0.3297 -0.1442
 2669TIP3   OH2 8012   6.223   1.295   0.673 -0.0552  0.0117 -0.1287
 2669TIP3    H1 8013   6.239   1.389   0.680  2.5131 -0.2705 -1.3392
 2669TIP3    H2 8014   6.167   1.286   0.595 -0.4004  0.5213  0.0558
 2670TIP3   OH2 8015   1.222   3.187   2.168 -1.2082 -0.4911  0.1539
 2670TIP3    H1 8016   1.240   3.095   2.150 -1.6742 -0.2327 -1.8983
 2670TIP3    H2 8017   1.278   3.234   2.106 -0.9292  0.6326  1.2260
 2671TIP3   OH2 8018   5.438   2.298   1.407  0.4906  0.5749  0.3248
 2671TIP3    H1 8019   5.498   2.331   1.474 -0.0818 -1.0911  1.7310
 2671TIP3    H2 8020   5.478   2.218   1.374 -0.5368 -0.1158  0.6960
 2672TIP3   OH2 8021   0.996   1.310   3.909  0.0661  0.3023 -0.1180
 2672TIP3    H1 8022   0.919   1.310   3.852 -0.2580  0.5901  0.3121
 2672TIP3    H2 8023   0.973   1.250   3.980  0.2003  0.4654  0.0628
 2673TIP3   OH2 8024   3.481   3.385   1.850 -0.3429 -0.3640  0.4235
 2673TIP3    H1 8025   3.525   3.313   1.895 -0.6803 -1.5792 -1.1058
 2673TIP3    H2 8026   3.466   3.352   1.761  1.7316  2.4796 -1.1373
 2674TIP3   OH2 8027   4.159   4.299   4.746 -0.0785  0.4776 -0.4651
 2674TIP3    H1 8028   4.064   4.307   4.739  0.0049  0.9700 -1.2143
 2674TIP3    H2 8029   4.184   4.367   4.809 -0.2352  0.2142 -0.1139
 2675TIP3   OH2 8030   2.554   5.832   3.341  0.2759  0.0707  0.3980
 2675TIP3    H1 8031   2.638   5.787   3.349 -0.3764 -1.4129 -0.7217
 2675TIP3    H2 8032   2.490   5.773   3.382 -0.3085  0.9870  0.8555
 2676TIP3   OH2 8033   3.759   2.722   4.908 -0.1580  0.3597  0.0119
 2676TIP3    H1 8034   3.715   2.767   4.836 -1.6951 -0.1999  0.5713
 2676TIP3    H2 8035   3.696   2.723   4.980  1.6442  1.6467  1.6881
 2677TIP3   OH2 8036   1.207   3.806   3.989 -0.0496  0.3763  0.1424
 2677TIP3    H1 8037   1.117   3.812   3.960  0.3156 -1.0570 -1.4595
 2677TIP3    H2 8038   1.203   3.757   4.072 -0.7084 -0.1804 -0.2116
 2678TIP3   OH2 8039   0.435   0.626   4.887 -0.2258 -0.0327 -0.4114
 2678TIP3    H1 8040   0.392   0.545   4.913 -0.8138  0.6976  0.9954
 2678TIP3    H2 8041   0.370   0.694   4.901 -0.1140  0.6099 -2.5904
 2679TIP3   OH2 8042   4.973   5.803   3.738  0.1446 -0.1548  0.0218
 2679TIP3    H1 8043   4.940   5.874   3.793  0.0564 -1.4272  1.6956
 2679TIP3    H2 8044   4.935   5.820   3.652 -2.3451  0.2020  1.0973
 2680TIP3   OH2 8045   5.881   5.118   1.765 -0.2678 -0.3963  0.5026
 2680TIP3    H1 8046   5.957   5.066   1.738  1.5621  1.5996  1.4725
 2680TIP3    H2 8047   5.864   5.175   1.690 -0.2524 -0.2676  0.5964
 2681TIP3   OH2 8048   2.163   4.135   3.856  0.7685 -0.0287 -0.0879
 2681TIP3    H1 8049   2.219   4.205   3.889 -0.3393  0.6119  0.4921
 2681TIP3    H2 8050   2.084   4.179   3.827 -0.7682 -1.1732  2.0637
 2682TIP3   OH2 8051   3.726   5.199   2.622 -0.0177 -0.7371 -1.1909
 2682TIP3    H1 8052   3.759   5.123   2.669  0.3806  0.3828  0.4414
 2682TIP3    H2 8053   3.767   5.194   2.535 -0.3678 -2.5841 -1.2924
 2683TIP3   OH2 8054   6.324  -0.017   2.491 -0.3455 -0.1067  0.4189
 2683TIP3    H1 8055   6.289   0.053   2.547 -1.8000 -0.0639 -0.4870
 2683TIP3    H2 8056   6.389   0.026   2.437 -1.0630  0.5195  0.0345
 2684TIP3   OH2 8057   2.139   5.266   3.903  0.1594 -0.0446  0.1670
 2684TIP3    H1 8058   2.188   5.185   3.920  0.7826 -0.1013 -1.7301
 2684TIP3    H2 8059   2.048   5.238   3.903  0.3376 -0.6603  0.0267
 2685TIP3   OH2 8060   4.302   1.187   4.899  0.2350 -0.7624  0.3581
 2685TIP3    H1 8061   4.361   1.258   4.922  0.2566 -0.5936 -0.2120
 2685TIP3    H2 8062   4.220   1.230   4.875 -0.1865 -1.0004  1.2974
 2686TIP3   OH2 8063   4.114   0.196   3.010 -0.5452  0.3442 -0.1920
 2686TIP3    H1 8064   4.202   0.163   2.990  0.3928  2.5955 -0.1096
 2686TIP3    H2 8065   4.113   0.203   3.106  1.3885  5.3108 -0.1970
 2687TIP3   OH2 8066   3.026   2.001   3.890  0.3029 -0.1970  0.0602
 2687TIP3    H1 8067   2.969   1.993   3.966 -0.2280 -1.8100 -0.4701
 2687TIP3    H2 8068   3.057   2.092   3.892 -1.1243  0.2903  1.1764
 2688TIP3   OH2 8069   2.832   4.650   4.253  0.3783 -0.0556  0.6244
 2688TIP3    H1 8070   2.747   4.687   4.280 -1.0506 -1.7249 -1.2873
 2688TIP3    H2 8071   2.863   4.709   4.185  0.6262  0.3773  1.1016
 2689TIP3   OH2 8072   2.429   1.450   4.843  0.0351 -0.4304 -0.0823
 2689TIP3    H1 8073   2.446   1.506   4.919 -1.2593  1.8402 -1.3269
 2689TIP3    H2 8074   2.335   1.430   4.848 -0.3039  0.5986 -1.5246
 2690TIP3   OH2 8075   4.902   5.506   1.085 -0.3428 -0.5656  0.6681
 2690TIP3    H1 8076   4.933   5.589   1.049  1.0391 -0.9312  0.9517
 2690TIP3    H2 8077   4.839   5.474   1.021 -0.1588  0.2242  0.0763
 2691TIP3   OH2 8078   4.561   1.692   2.880 -0.5680  0.1978 -0.0654
 2691TIP3    H1 8079   4.519   1.610   2.854 -2.4740  0.9105  0.5694
 2691TIP3    H2 8080   4.525   1.757   2.820  0.0345  0.7639  0.1806
 2692TIP3   OH2 8081   4.683   0.081   4.292  0.3397 -0.0011 -0.3089
 2692TIP3    H1 8082   4.736   0.144   4.342 -0.8772  1.2836 -0.5511
 2692TIP3    H2 8083   4.743   0.045   4.227  1.1114  0.8127 -0.0703
 2693TIP3   OH2 8084   1.099   3.018   0.346 -0.5265  0.7543  0.5607
 2693TIP3    H1 8085   1.088   3.044   0.438 -0.8537  1.3941  0.3433
 2693TIP3    H2 8086   1.031   3.066   0.299  0.2761  1.1933 -0.1678
 2694TIP3   OH2 8087   2.739   4.969   0.643 -0.2272  0.2712  0.1163
 2694TIP3    H1 8088   2.675   5.033   0.674 -0.2461 -0.2421  1.1853
 2694TIP3    H2 8089   2.787   5.014   0.573 -0.2125  1.4623  0.8718
 2695TIP3   OH2 8090   2.338   3.623   0.367 -0.0966 -0.0938  0.1508
 2695TIP3    H1 8091   2.243   3.616   0.359 -0.4675  1.4182  2.2137
 2695TIP3    H2 8092   2.353   3.631   0.462  1.8652  1.9237 -0.2488
 2696TIP3   OH2 8093   0.276   4.905   5.140  0.6142 -0.0796  0.1559
 2696TIP3    H1 8094   0.332   4.836   5.105  1.2607  0.6947 -0.3959
 2696TIP3    H2 8095   0.270   4.969   5.069  0.2609  0.5622  0.7506
 2697TIP3   OH2 8096   5.273   1.577   3.171  0.1193  0.1023 -0.1096
 2697TIP3    H1 8097   5.282   1.508   3.237  2.3379 -1.8719 -2.2830
 2697TIP3    H2 8098   5.350   1.633   3.183  0.2146  0.0924 -0.6429
 2698TIP3   OH2 8099   6.186   0.984   4.966 -0.0443 -0.0636  0.0397
 2698TIP3    H1 8100   6.277   0.975   4.993  0.1615  1.0190 -0.2435
 2698TIP3    H2 8101   6.136   0.985   5.047  0.4280  1.6584  0.3389
 2699TIP3   OH2 8102   4.526   1.027   2.954 -0.1483  0.7836  0.4404
 2699TIP3    H1 8103   4.435   1.032   2.982 -0.0422  0.3265  0.8744
 2699TIP3    H2 8104   4.536   0.939   2.920  0.2041  0.7384  0.6519
 2700TIP3   OH2 8105   4.690   0.790   3.975  0.3890  0.2122  0.0642
 2700TIP3    H1 8106   4.780   0.818   3.988  0.1358  1.3835 -0.5996
 2700TIP3    H2 8107   4.663   0.831   3.893 -0.5780 -0.5689 -0.0359
 2701TIP3   OH2 8108   3.549   0.811   0.243  0.3220 -0.2485  0.2010
 2701TIP3    H1 8109   3.480   0.866   0.280 -0.0654 -0.0823 -0.7567
 2701TIP3    H2 8110   3.603   0.871   0.191 -1.7149 -1.0932 -3.2286
 2702TIP3   OH2 8111   5.386   3.556   3.170 -0.5031 -0.0073 -0.2431
 2702TIP3    H1 8112   5.472   3.587   3.197 -0.0508  1.6261 -3.1631
 2702TIP3    H2 8113   5.388   3.462   3.184  0.5974  0.3681  2.5651
 2703TIP3   OH2 8114   6.309   1.403   2.187  0.2252  0.4474 -0.1432
 2703TIP3    H1 8115   6.299   1.486   2.234  0.9697  0.9977 -0.9362
 2703TIP3    H2 8116   6.223   1.386   2.149 -0.6545 -0.4270  2.0236
 2704TIP3   OH2 8117   4.932   3.573   2.474  0.4763  0.0516 -0.3122
 2704TIP3    H1 8118   4.879   3.500   2.505 -0.8076  0.6569 -1.0461
 2704TIP3    H2 8119   4.876   3.650   2.483  1.7004  0.9207  0.1549
 2705TIP3   OH2 8120   4.253   3.642   2.232  0.3089  0.0604 -0.3077
 2705TIP3    H1 8121   4.240   3.550   2.209 -2.5441  0.4859 -0.7137
 2705TIP3    H2 8122   4.257   3.642   2.328  0.8499 -0.5216 -0.3236
 2706TIP3   OH2 8123   1.200   2.395   0.420 -0.4200  0.5096  0.2777
 2706TIP3    H1 8124   1.135   2.438   0.364 -0.3590  0.6409  0.3083
 2706TIP3    H2 8125   1.277   2.452   0.415  0.1558 -0.3228 -0.8258
 2707TIP3   OH2 8126   4.690   3.207   1.638  0.1662  0.3174 -0.2473
 2707TIP3    H1 8127   4.679   3.185   1.545  0.9830 -0.8242 -0.0950
 2707TIP3    H2 8128   4.652   3.133   1.685 -1.3097  1.4261  0.3706
 2708TIP3   OH2 8129   1.374   3.480   0.932 -0.2886  0.1357 -0.4431
 2708TIP3    H1 8130   1.446   3.427   0.968 -1.2297  0.3427  1.9342
 2708TIP3    H2 8131   1.308   3.416   0.908 -0.7926  0.0999  0.9508
 2709TIP3   OH2 8132   5.644   2.510   4.346  0.0295 -0.3627 -0.0551
 2709TIP3    H1 8133   5.630   2.600   4.315 -1.9117 -0.9608 -1.1471
 2709TIP3    H2 8134   5.671   2.462   4.267  1.8925 -0.6165  0.6916
 2710TIP3   OH2 8135   4.575   2.002   2.875  0.2443 -0.8906 -0.0218
 2710TIP3    H1 8136   4.664   1.968   2.869  0.2780 -0.6793 -0.7094
 2710TIP3    H2 8137   4.579   2.067   2.946  0.7396 -0.5665 -0.3417
 2711TIP3   OH2 8138   4.366   1.126   2.361  0.2890 -0.5136 -0.3886
 2711TIP3    H1 8139   4.401   1.049   2.406  0.4554 -1.1751 -1.6145
 2711TIP3    H2 8140   4.441   1.161   2.312  0.1867  0.3732  0.0576
 2712TIP3   OH2 8141   4.734   5.791   4.902  0.4685 -0.2726  0.3421
 2712TIP3    H1 8142   4.689   5.725   4.956  1.5859 -0.6764  0.8317
 2712TIP3    H2 8143   4.692   5.785   4.817  0.6990 -1.8358  0.2933
 2713TIP3   OH2 8144   3.409   0.844   5.055  0.2695  0.2694  0.6423
 2713TIP3    H1 8145   3.463   0.922   5.041  0.4988  0.1833  1.0549
 2713TIP3    H2 8146   3.456   0.794   5.121  0.6620 -0.7261 -0.3638
 2714TIP3   OH2 8147   2.182   4.227   4.902 -0.1418 -0.8930  0.3575
 2714TIP3    H1 8148   2.207   4.139   4.930  0.3776 -0.6831  0.5636
 2714TIP3    H2 8149   2.103   4.214   4.850 -0.2418 -1.4514  0.6391
 2715TIP3   OH2 8150   4.647   2.300   5.048 -0.2996  0.2104 -0.5817
 2715TIP3    H1 8151   4.635   2.269   5.138 -2.7354  0.3751 -0.7868
 2715TIP3    H2 8152   4.724   2.357   5.052 -0.1801 -0.0206  1.3142
 2716TIP3   OH2 8153   2.478   0.238   3.151 -0.5810  0.1768 -0.4281
 2716TIP3    H1 8154   2.455   0.209   3.239  0.3926 -0.6499 -0.4274
 2716TIP3    H2 8155   2.420   0.312   3.134 -2.9042 -1.4967 -0.2507
 2717TIP3   OH2 8156   1.080   0.290   0.625  0.0550  0.3948 -0.1511
 2717TIP3    H1 8157   1.062   0.373   0.581  1.1463 -0.1062 -1.6173
 2717TIP3    H2 8158   1.170   0.299   0.657  0.7363 -0.7204 -1.6294
 2718TIP3   OH2 8159   2.282   2.661   1.287 -0.3584 -0.4913  0.3049
 2718TIP3    H1 8160   2.349   2.691   1.349 -0.2632  0.3629 -0.1919
 2718TIP3    H2 8161   2.250   2.741   1.246  0.0968 -1.0781 -1.2758
 2719TIP3   OH2 8162   2.820   5.317   2.172 -0.0860 -0.8135  0.8102
 2719TIP3    H1 8163   2.738   5.267   2.175 -1.9470  2.0190  1.3843
 2719TIP3    H2 8164   2.830   5.352   2.261 -0.7283  2.4036 -0.2425
 2720TIP3   OH2 8165   4.671   2.519   4.739 -0.2558 -0.2071  0.0642
 2720TIP3    H1 8166   4.672   2.511   4.643 -2.0260  1.0802 -0.1318
 2720TIP3    H2 8167   4.627   2.440   4.769 -0.3594 -0.2738 -0.2553
 2721TIP3   OH2 8168   1.778   1.278   0.350  0.4629 -0.1781  0.6977
 2721TIP3    H1 8169   1.692   1.317   0.334  0.2202 -0.0453  2.1503
 2721TIP3    H2 8170   1.759   1.194   0.391  1.0050  0.0848  1.5252
 2722TIP3   OH2 8171   3.548   4.021   4.126  0.4861  0.4843  0.1381
 2722TIP3    H1 8172   3.605   4.004   4.051  0.0230 -1.1050  0.1080
 2722TIP3    H2 8173   3.460   4.007   4.092  0.0909  2.0448  0.4177
 2723TIP3   OH2 8174   3.791   2.053   0.084 -0.0859  0.3541 -0.0278
 2723TIP3    H1 8175   3.728   2.005   0.031  0.3849  1.3680 -1.5797
 2723TIP3    H2 8176   3.873   2.005   0.074 -0.3582 -0.4112  1.2009
 2724TIP3   OH2 8177   5.878   0.524   0.204  0.7696  0.4345 -0.2224
 2724TIP3    H1 8178   5.814   0.594   0.218  0.4116  0.2509 -0.8770
 2724TIP3    H2 8179   5.911   0.503   0.291 -0.2463  0.3695  0.1536
 2725TIP3   OH2 8180   4.083   3.119   3.220  0.3496 -0.2345  0.2408
 2725TIP3    H1 8181   4.164   3.135   3.172  0.3208 -1.5558 -0.3046
 2725TIP3    H2 8182   4.106   3.128   3.312  1.1381 -0.6627  0.0894
 2726TIP3   OH2 8183   0.535   1.284   2.651  0.1950  0.7281  0.1311
 2726TIP3    H1 8184   0.595   1.310   2.581  0.7845  0.1357  0.3930
 2726TIP3    H2 8185   0.448   1.301   2.617  0.5181  1.7346 -0.2101
 2727TIP3   OH2 8186   2.688   1.082   0.791  0.1291  0.0076 -0.0958
 2727TIP3    H1 8187   2.668   1.169   0.827 -1.2015 -0.2858 -0.0593
 2727TIP3    H2 8188   2.650   1.021   0.855 -0.1785 -0.5626 -0.8103
 2728TIP3   OH2 8189   0.925   3.377   0.411  0.5040 -0.8071  0.5748
 2728TIP3    H1 8190   0.860   3.442   0.385  0.9025 -0.0388  1.4303
 2728TIP3    H2 8191   1.009   3.418   0.391  0.7701 -0.9106  1.4316
 2729TIP3   OH2 8192   2.349   4.047   0.607 -0.0508  0.6667 -0.1028
 2729TIP3    H1 8193   2.389   3.977   0.658 -0.4388 -0.2623 -1.0571
 2729TIP3    H2 8194   2.267   4.067   0.654  0.0773  0.5130  0.1886
 2730TIP3   OH2 8195   0.362   0.593   1.975 -0.9092  0.0763  0.0614
 2730TIP3    H1 8196   0.427   0.523   1.961 -0.4067  0.6854 -0.7335
 2730TIP3    H2 8197   0.391   0.636   2.056 -0.2211  0.4267 -0.3554
 2731TIP3   OH2 8198   2.781   1.723   3.740  0.2552  0.7960  0.1115
 2731TIP3    H1 8199   2.754   1.633   3.755  0.5459  0.2598 -2.1299
 2731TIP3    H2 8200   2.726   1.775   3.798  0.3154 -0.8268  1.6898
 2732TIP3   OH2 8201   3.897   5.140   1.234  0.2496 -0.2680  0.8544
 2732TIP3    H1 8202   3.988   5.156   1.209  0.0214  0.2998  0.3630
 2732TIP3    H2 8203   3.876   5.055   1.195  0.3446 -0.0554  0.3341
 2733TIP3   OH2 8204   2.188   4.942   2.027  0.1662 -0.4579 -0.3711
 2733TIP3    H1 8205   2.267   4.895   2.052 -0.4955 -1.8876 -0.8938
 2733TIP3    H2 8206   2.203   5.031   2.059  2.3490 -0.4479 -1.2406
 2734TIP3   OH2 8207   1.900   0.582   3.646 -0.0666  0.2215  0.0190
 2734TIP3    H1 8208   1.950   0.624   3.577  0.6638  2.7002  1.8818
 2734TIP3    H2 8209   1.938   0.494   3.654  2.1034  1.0520 -0.4916
 2735TIP3   OH2 8210   5.073   4.049   2.462  0.7440  0.2155 -0.1448
 2735TIP3    H1 8211   5.165   4.070   2.446  0.5826  0.7988 -0.3396
 2735TIP3    H2 8212   5.032   4.134   2.479  0.2092 -0.0249 -0.2244
 2736TIP3   OH2 8213   4.882   4.723   1.508 -0.2554  0.3458 -0.0886
 2736TIP3    H1 8214   4.891   4.758   1.420 -3.4609  0.0194 -0.6717
 2736TIP3    H2 8215   4.938   4.778   1.562  2.7161 -0.1535 -2.4099
 2737TIP3   OH2 8216   4.829   1.667   2.946  0.1272 -0.3129  0.1653
 2737TIP3    H1 8217   4.734   1.672   2.939  0.1542  0.0408  0.0396
 2737TIP3    H2 8218   4.858   1.638   2.860  0.1681  0.0773  0.0458
 2738TIP3   OH2 8219   2.262   2.783   0.376 -0.1281  0.5943  0.3591
 2738TIP3    H1 8220   2.235   2.719   0.441 -2.6118  1.5395  0.3659
 2738TIP3    H2 8221   2.185   2.795   0.320  0.3485  3.2421  0.1244
 2739TIP3   OH2 8222   2.577   0.818   3.662 -0.3543  0.2134  0.2012
 2739TIP3    H1 8223   2.492   0.819   3.619  0.6175  1.2176 -1.8263
 2739TIP3    H2 8224   2.603   0.726   3.662 -1.7141 -0.2294  1.5594
 2740TIP3   OH2 8225   0.184   3.279   4.498  0.5204  0.5051 -0.5973
 2740TIP3    H1 8226   0.108   3.234   4.462  0.8011  1.2232 -2.1617
 2740TIP3    H2 8227   0.168   3.283   4.593 -0.9104 -0.1913 -0.7931
 2741TIP3   OH2 8228   3.895   2.903   0.647  0.1506  0.5097  0.2761
 2741TIP3    H1 8229   3.960   2.861   0.704 -1.0332 -1.7012  0.1187
 2741TIP3    H2 8230   3.934   2.901   0.560  0.5541  0.7440  0.4498
 2742TIP3   OH2 8231   3.478   5.859   2.393 -0.1056 -0.0838  0.0269
 2742TIP3    H1 8232   3.512   5.870   2.305  1.5289  1.7409  0.8172
 2742TIP3    H2 8233   3.555   5.847   2.448 -0.6595  2.9468  1.7136
 2743TIP3   OH2 8234   3.635   2.939   3.750  0.0417 -0.6595  0.0514
 2743TIP3    H1 8235   3.721   2.907   3.776 -0.3896 -0.4846  1.7899
 2743TIP3    H2 8236   3.577   2.864   3.758  0.0757 -0.9035 -1.5768
 2744TIP3   OH2 8237   1.726   3.014   4.895  0.2979  0.3921 -0.5515
 2744TIP3    H1 8238   1.808   2.975   4.924 -0.2518 -0.4851 -0.1315
 2744TIP3    H2 8239   1.696   2.957   4.823 -0.1283  0.4858 -0.4550
 2745TIP3   OH2 8240   6.307   3.082   0.025 -0.0949  0.0672 -0.0440
 2745TIP3    H1 8241   6.239   3.146   0.043  0.9200  0.9948  0.5856
 2745TIP3    H2 8242   6.389   3.130   0.034  0.6446 -0.4245 -3.1073
 2746TIP3   OH2 8243   3.431   4.029   4.397  0.5771 -0.7843 -0.9028
 2746TIP3    H1 8244   3.468   3.942   4.410  0.2586 -1.0366 -1.6133
 2746TIP3    H2 8245   3.441   4.046   4.303 -0.8677 -0.7619 -1.0696
 2747TIP3   OH2 8246   2.733   5.354   1.171  0.7021  0.0326 -0.3211
 2747TIP3    H1 8247   2.657   5.394   1.214  0.3908 -1.8461  0.9841
 2747TIP3    H2 8248   2.807   5.408   1.199  0.5963 -1.3647  3.1508
 2748TIP3   OH2 8249   5.914   3.376   3.502  0.0463  0.5990 -0.6038
 2748TIP3    H1 8250   5.952   3.371   3.589 -2.3383  1.5585  0.5856
 2748TIP3    H2 8251   5.898   3.470   3.488 -2.5813  0.2206 -0.6098
 2749TIP3   OH2 8252   0.874   4.268   4.826 -0.0593 -0.1244 -0.4066
 2749TIP3    H1 8253   0.969   4.257   4.825  0.0414  0.7056 -1.2050
 2749TIP3    H2 8254   0.861   4.363   4.825 -0.8994 -0.2223  0.0658
 2750TIP3   OH2 8255   4.152   1.618   0.483 -0.3142 -0.2699 -0.2554
 2750TIP3    H1 8256   4.119   1.597   0.570  1.2597  0.0571  0.4631
 2750TIP3    H2 8257   4.114   1.704   0.462 -1.4978 -0.8051 -0.3495
 2751TIP3   OH2 8258   2.351   1.122   1.621 -0.2366 -0.7684  0.9136
 2751TIP3    H1 8259   2.437   1.118   1.663  1.0411  1.2438 -1.3107
 2751TIP3    H2 8260   2.368   1.107   1.528 -2.0565  1.1620  0.1869
 2752TIP3   OH2 8261   0.558   5.839   3.498 -0.2101  0.0508  0.0606
 2752TIP3    H1 8262   0.594   5.875   3.580 -0.8712 -0.2964  0.5024
 2752TIP3    H2 8263   0.535   5.917   3.447 -1.4263  0.2820  0.9249
 2753TIP3   OH2 8264   6.125   5.665   0.992  0.1085 -0.2925  0.2943
 2753TIP3    H1 8265   6.154   5.677   0.901 -0.7366  2.8005  0.3361
 2753TIP3    H2 8266   6.054   5.727   1.003 -1.2533 -2.1106  2.5211
 2754TIP3   OH2 8267   5.172   3.102   3.334  0.2948 -1.1082  0.5694
 2754TIP3    H1 8268   5.138   3.127   3.420 -1.2472  2.3783 -0.8679
 2754TIP3    H2 8269   5.096   3.068   3.286  0.5254 -0.5315 -0.2298
 2755TIP3   OH2 8270   6.216   5.427   4.598  0.5094  0.0240 -0.3670
 2755TIP3    H1 8271   6.133   5.462   4.630  0.4562 -0.3913 -0.0429
 2755TIP3    H2 8272   6.193   5.381   4.517  0.5513  0.5752 -0.6972
 2756TIP3   OH2 8273   3.537   5.804   2.998 -0.0094  0.1288  0.3160
 2756TIP3    H1 8274   3.597   5.863   2.952  0.4477 -0.1958  0.4821
 2756TIP3    H2 8275   3.495   5.753   2.928  0.4394 -0.1346  0.2320
 2757TIP3   OH2 8276   2.460   5.532   2.835 -0.1156 -0.5744  0.4537
 2757TIP3    H1 8277   2.523   5.550   2.765 -0.7040  2.1530  0.5106
 2757TIP3    H2 8278   2.394   5.475   2.795  1.2108 -1.6913 -0.2273
 2758TIP3   OH2 8279   2.664   5.605   2.007 -0.0764 -0.1096  0.4444
 2758TIP3    H1 8280   2.671   5.526   1.953  0.9035  1.5302 -1.9659
 2758TIP3    H2 8281   2.661   5.677   1.945 -4.3446  1.7057  2.3876
 2759TIP3   OH2 8282   2.335   4.294   0.270 -0.0892 -0.5437 -0.0374
 2759TIP3    H1 8283   2.327   4.209   0.227 -0.9050 -0.0590 -0.8712
 2759TIP3    H2 8284   2.429   4.313   0.268  0.0476 -1.2143 -0.2542
 2760TIP3   OH2 8285   4.785   2.135   4.085  0.1886 -0.7313  0.3596
 2760TIP3    H1 8286   4.831   2.097   4.010  0.2831 -0.9978  0.5528
 2760TIP3    H2 8287   4.848   2.129   4.157 -0.0502 -0.8485  0.5595
 2761TIP3   OH2 8288   2.869   3.533   4.551  0.7210 -0.0253  0.2199
 2761TIP3    H1 8289   2.880   3.516   4.644 -1.2040  0.1420  0.5248
 2761TIP3    H2 8290   2.892   3.625   4.540  0.4533  0.0932  0.6347
 2762TIP3   OH2 8291   3.203   5.718   0.740  0.1753  0.1126 -0.1617
 2762TIP3    H1 8292   3.193   5.623   0.747  0.4890  0.0305 -0.7577
 2762TIP3    H2 8293   3.198   5.750   0.830  1.4721 -0.6040  0.1775
 2763TIP3   OH2 8294   4.032   1.987   5.186  0.7027  0.0211  0.9372
 2763TIP3    H1 8295   3.943   1.955   5.200  0.6543  0.1168  0.8500
 2763TIP3    H2 8296   4.076   1.917   5.137  0.4810  0.2554  0.3925
 2764TIP3   OH2 8297   3.476   4.878   3.341 -0.0646 -0.2514  0.3298
 2764TIP3    H1 8298   3.410   4.818   3.376 -0.5140 -0.2556 -0.5163
 2764TIP3    H2 8299   3.534   4.822   3.289 -1.5235  0.2675 -1.9669
 2765TIP3   OH2 8300   2.994   2.271   4.189  0.1980  0.4205  0.0877
 2765TIP3    H1 8301   2.990   2.321   4.107 -0.6690  1.2462  0.6118
 2765TIP3    H2 8302   3.075   2.299   4.230 -0.7076  2.1388  0.8016
 2766TIP3   OH2 8303   4.736   5.621   3.887  0.0538 -0.3108 -0.3812
 2766TIP3    H1 8304   4.721   5.709   3.922 -0.4801 -0.3339 -0.5331
 2766TIP3    H2 8305   4.675   5.615   3.813  1.8889  0.1382 -2.0002
 2767TIP3   OH2 8306   2.959   0.909   1.642  0.4100 -0.5229  0.2663
 2767TIP3    H1 8307   3.022   0.946   1.580 -0.0976  0.1140  0.1174
 2767TIP3    H2 8308   2.876   0.907   1.594  0.1092 -0.4547  0.7697
 2768TIP3   OH2 8309   1.550   1.304   3.013 -0.0939 -0.3386  0.0454
 2768TIP3    H1 8310   1.519   1.373   3.072 -0.1839  0.4804 -0.9198
 2768TIP3    H2 8311   1.490   1.310   2.938 -0.2862 -1.6785  0.0773
 2769TIP3   OH2 8312   1.470   4.006   1.080  0.2616 -0.0211 -0.8046
 2769TIP3    H1 8313   1.429   4.075   1.132 -0.9964 -0.2691 -1.4257
 2769TIP3    H2 8314   1.430   3.925   1.112  0.4431 -0.2957 -1.2665
 2770TIP3   OH2 8315   0.605   5.036   3.884  0.7897 -0.1240 -0.3154
 2770TIP3    H1 8316   0.567   5.119   3.914  0.5052 -0.2215 -0.4072
 2770TIP3    H2 8317   0.644   4.998   3.963 -1.9380 -1.4718  0.4883
 2771TIP3   OH2 8318   1.703   3.361   2.690 -0.9097  0.4649  0.0815
 2771TIP3    H1 8319   1.616   3.400   2.702  0.1580  2.7597  1.2070
 2771TIP3    H2 8320   1.751   3.386   2.769  0.7665 -0.7490 -0.4963
 2772TIP3   OH2 8321   0.286   4.178   3.241  0.0549  0.7903  0.6664
 2772TIP3    H1 8322   0.241   4.097   3.218  0.6167  1.0133 -1.5096
 2772TIP3    H2 8323   0.239   4.212   3.317 -2.6000  0.3499 -0.6825
 2773TIP3   OH2 8324   2.002   4.494   3.997  0.0743  0.4498  0.1191
 2773TIP3    H1 8325   2.066   4.555   3.959 -1.7198  0.9787 -2.3102
 2773TIP3    H2 8326   2.002   4.419   3.937 -0.5763 -0.1696  0.8759
 2774TIP3   OH2 8327   1.165   2.063   0.868 -0.3710  0.1872 -0.3186
 2774TIP3    H1 8328   1.220   2.138   0.891 -1.0696  0.4954  0.3908
 2774TIP3    H2 8329   1.090   2.069   0.928 -0.6277 -0.8550 -0.5166
 2775TIP3   OH2 8330   6.169   5.105   1.028  0.2908 -0.3462  0.1264
 2775TIP3    H1 8331   6.075   5.094   1.037  0.2367 -0.3520 -0.4296
 2775TIP3    H2 8332   6.188   5.083   0.937  0.6835  0.6845 -0.0596
 2776TIP3   OH2 8333   3.175   4.722   4.163 -0.0919  0.4760 -0.3959
 2776TIP3    H1 8334   3.259   4.717   4.116  0.5098  1.3746  0.5329
 2776TIP3    H2 8335   3.109   4.699   4.097  0.8956 -0.5260 -1.0746
 2777TIP3   OH2 8336   1.679   5.830   0.144  0.2558 -0.0818 -0.0361
 2777TIP3    H1 8337   1.676   5.760   0.080  0.0150  0.8269 -1.0429
 2777TIP3    H2 8338   1.613   5.893   0.115  2.0603  1.6955 -0.5218
 2778TIP3   OH2 8339   4.797   1.072   4.206  0.4257 -0.2549 -0.3902
 2778TIP3    H1 8340   4.807   1.153   4.256  1.5764 -0.6972  0.1321
 2778TIP3    H2 8341   4.829   1.092   4.119 -0.5660  0.2170 -0.6594
 2779TIP3   OH2 8342   6.266   1.796   3.518 -0.0276 -0.0007  0.3153
 2779TIP3    H1 8343   6.231   1.807   3.430 -1.0733 -0.7050  0.6345
 2779TIP3    H2 8344   6.192   1.765   3.570  0.3283  1.2502  1.6514
 2780TIP3   OH2 8345   1.214   4.060   1.588 -0.6174 -0.0686  0.0124
 2780TIP3    H1 8346   1.139   4.029   1.639  0.3695 -0.8547  1.0232
 2780TIP3    H2 8347   1.193   4.037   1.498 -1.9254  0.4076  0.1755
 2781TIP3   OH2 8348   5.745   3.121   1.683 -0.3448  0.5556  0.1824
 2781TIP3    H1 8349   5.756   3.184   1.612 -2.4293 -1.1478 -1.8208
 2781TIP3    H2 8350   5.743   3.036   1.639  0.8818 -0.8470  2.6174
 2782TIP3   OH2 8351   5.852   5.543   0.110  0.4377 -0.6132  0.0072
 2782TIP3    H1 8352   5.809   5.520   0.192 -0.6935  0.2988 -0.3009
 2782TIP3    H2 8353   5.881   5.460   0.073  1.4533 -0.9936  1.5754
 2783TIP3   OH2 8354   5.855   5.827   3.318  0.3421  0.2642  0.1370
 2783TIP3    H1 8355   5.860   5.886   3.243 -1.8623 -0.0870 -0.3453
 2783TIP3    H2 8356   5.808   5.751   3.285  1.9692 -1.2410  1.1107
 2784TIP3   OH2 8357   4.446   0.611   4.679  0.2272  0.1608 -0.1937
 2784TIP3    H1 8358   4.516   0.627   4.743  1.2895 -0.1953 -1.2230
 2784TIP3    H2 8359   4.367   0.601   4.732  0.8533  1.1303  0.9663
 2785TIP3   OH2 8360   2.944   5.889   3.204  0.3079 -0.3727  0.4005
 2785TIP3    H1 8361   3.019   5.897   3.145  0.6294  0.1752  0.8621
 2785TIP3    H2 8362   2.979   5.916   3.289 -0.4359 -0.0332  0.5996
 2786TIP3   OH2 8363   6.171   0.907   0.038 -0.0583 -0.3924 -0.2116
 2786TIP3    H1 8364   6.208   0.966  -0.028  1.4703 -0.3844  0.6033
 2786TIP3    H2 8365   6.211   0.822   0.020  4.0644  0.4955  3.3036
 2787TIP3   OH2 8366   3.561   0.249   2.195  0.2581 -0.3195  0.0055
 2787TIP3    H1 8367   3.594   0.258   2.285 -1.1678 -0.4945  0.5639
 2787TIP3    H2 8368   3.506   0.171   2.197 -0.6255  0.2708 -0.7623
 2788TIP3   OH2 8369   1.004   5.445   4.308 -0.0332 -0.1360  0.1928
 2788TIP3    H1 8370   1.090   5.487   4.318  0.0285 -0.4810  1.1323
 2788TIP3    H2 8371   0.943   5.504   4.352 -0.3821  0.3711 -0.9096
 2789TIP3   OH2 8372   0.199   4.919   0.537  0.2928 -0.0490  0.5746
 2789TIP3    H1 8373   0.159   5.000   0.568 -1.0367  0.1449 -1.4051
 2789TIP3    H2 8374   0.137   4.850   0.562  0.4603 -0.2008  0.5727
 2790TIP3   OH2 8375   4.149   5.457   3.920 -0.2900 -0.6484 -0.1526
 2790TIP3    H1 8376   4.205   5.472   3.843  0.2349 -1.0114  0.1523
 2790TIP3    H2 8377   4.192   5.505   3.991 -0.5335 -0.6793  0.0160
 2791TIP3   OH2 8378   4.576   2.306   1.661 -0.3068  0.1549 -0.0946
 2791TIP3    H1 8379   4.633   2.268   1.727 -0.1446  1.4867  0.5600
 2791TIP3    H2 8380   4.501   2.340   1.710  0.6636  2.8026 -0.2819
 2792TIP3   OH2 8381   4.963   1.516   3.394 -0.4082  0.6087 -0.9241
 2792TIP3    H1 8382   5.022   1.446   3.421 -0.8625  0.9496  1.1025
 2792TIP3    H2 8383   4.899   1.473   3.338 -0.9012 -0.7047  0.5909
 2793TIP3   OH2 8384   5.218   4.400   3.705 -0.4618  0.0017  0.3633
 2793TIP3    H1 8385   5.312   4.409   3.718 -0.2095 -0.5403 -0.8680
 2793TIP3    H2 8386   5.178   4.452   3.774  0.7623  2.0900 -0.4339
 2794TIP3   OH2 8387   5.872   1.924   4.265 -0.6419 -0.2065 -0.2524
 2794TIP3    H1 8388   5.799   1.924   4.204 -0.5868 -0.6167 -0.3210
 2794TIP3    H2 8389   5.950   1.916   4.209 -0.5821 -0.4006 -0.1409
 2795TIP3   OH2 8390   5.601   1.891   0.561 -0.6395 -0.3429  0.5320
 2795TIP3    H1 8391   5.624   1.943   0.484 -0.8121 -2.2377 -0.8545
 2795TIP3    H2 8392   5.505   1.884   0.558 -0.5534 -1.6163  0.0624
 2796TIP3   OH2 8393   3.969   0.402   1.355 -1.1903 -0.4151 -0.1188
 2796TIP3    H1 8394   3.991   0.451   1.434  0.7413  1.0849 -1.4888
 2796TIP3    H2 8395   3.984   0.464   1.283 -1.5796 -2.1186 -1.7517
 2797TIP3   OH2 8396   2.671   2.721   0.337  0.2452 -0.4967 -0.0805
 2797TIP3    H1 8397   2.677   2.632   0.303  0.7547 -0.3076 -0.4938
 2797TIP3    H2 8398   2.610   2.715   0.410 -1.6258 -0.7600 -1.5823
 2798TIP3   OH2 8399   5.513   2.537   5.079 -0.3693  0.4158  0.1869
 2798TIP3    H1 8400   5.488   2.530   5.171 -0.5974  0.3444  0.1185
 2798TIP3    H2 8401   5.434   2.565   5.034 -0.4756 -0.3052 -0.1020
 2799TIP3   OH2 8402   4.905   0.314   4.047 -0.4956 -0.4641  0.6461
 2799TIP3    H1 8403   4.920   0.351   3.960  1.3985 -1.6103  0.4284
 2799TIP3    H2 8404   4.888   0.390   4.103 -0.4108  0.3990 -0.4653
 2800TIP3   OH2 8405   2.846   2.558   0.144 -0.4535  0.6511  0.9042
 2800TIP3    H1 8406   2.904   2.607   0.202 -1.1427  0.0109  2.1736
 2800TIP3    H2 8407   2.854   2.467   0.172 -0.8863  0.3438  0.0678
 2801TIP3   OH2 8408   2.621   1.744   0.062  0.3128 -0.2280 -0.0906
 2801TIP3    H1 8409   2.704   1.786   0.083 -0.0177 -0.4536  1.8618
 2801TIP3    H2 8410   2.583   1.798  -0.008  2.1813 -0.2944 -1.2168
 2802TIP3   OH2 8411   4.772   3.062   2.043  0.0058 -0.2173 -0.3182
 2802TIP3    H1 8412   4.694   3.116   2.046 -0.7869 -1.3813  1.2069
 2802TIP3    H2 8413   4.833   3.112   1.989 -1.1051  1.6135  0.0192
 2803TIP3   OH2 8414   2.766   2.881   5.169 -0.0287  0.2306  0.0483
 2803TIP3    H1 8415   2.834   2.861   5.105  0.5944  0.4461  0.6408
 2803TIP3    H2 8416   2.739   2.970   5.148 -0.2209  0.1059 -0.2560
 2804TIP3   OH2 8417   2.803   0.367   2.219 -0.3269 -0.4265  0.1942
 2804TIP3    H1 8418   2.791   0.373   2.314 -0.1643 -0.2413  0.2044
 2804TIP3    H2 8419   2.739   0.301   2.190 -0.7247 -0.1223  0.3680
 2805TIP3   OH2 8420   6.178   0.368   0.709 -0.0977  0.0216 -0.5326
 2805TIP3    H1 8421   6.098   0.384   0.759 -0.6050  0.6324 -1.5077
 2805TIP3    H2 8422   6.207   0.282   0.738 -0.0562  0.5990  1.2151
 2806TIP3   OH2 8423   2.976   5.883   2.291  0.1419  0.0809 -0.2161
 2806TIP3    H1 8424   3.019   5.889   2.376  0.7464 -0.3805 -0.4789
 2806TIP3    H2 8425   3.024   5.945   2.235  0.0062  0.0912 -0.3206
 2807TIP3   OH2 8426   4.621   3.719   3.024  0.0237 -0.0116 -0.0896
 2807TIP3    H1 8427   4.658   3.737   2.937  0.5438 -0.5261  0.0193
 2807TIP3    H2 8428   4.540   3.770   3.026 -0.9686 -1.4249 -1.5843
 2808TIP3   OH2 8429   3.779   0.556   5.005 -0.1159  0.8008  0.1843
 2808TIP3    H1 8430   3.796   0.489   5.071 -0.5599 -0.1941 -0.6793
 2808TIP3    H2 8431   3.809   0.517   4.923 -0.7892  1.4797 -0.4032
 2809TIP3   OH2 8432   0.878   3.161   3.918  0.3220 -0.3640 -0.0114
 2809TIP3    H1 8433   0.815   3.124   3.856 -2.2085 -0.0402  2.1473
 2809TIP3    H2 8434   0.870   3.256   3.907  0.4417 -0.3237  0.2293
 2810TIP3   OH2 8435   6.089   2.256   2.579  0.1715  0.0594 -0.6096
 2810TIP3    H1 8436   6.084   2.331   2.638 -0.0906  0.0110 -0.5690
 2810TIP3    H2 8437   6.174   2.216   2.598  0.7791  0.9539 -1.3831
 2811TIP3   OH2 8438   0.849   0.766   3.611 -0.0546 -0.1130  0.3276
 2811TIP3    H1 8439   0.818   0.727   3.693 -0.3366 -1.2697 -0.3031
 2811TIP3    H2 8440   0.774   0.813   3.576 -1.3524 -3.1665 -1.3551
 2812TIP3   OH2 8441   2.416   0.214   0.467  0.3875 -0.3077 -0.2504
 2812TIP3    H1 8442   2.408   0.169   0.383  0.9839 -1.1265  0.1222
 2812TIP3    H2 8443   2.483   0.282   0.451  0.2736 -0.2571 -0.5186
 2813TIP3   OH2 8444   6.256   2.850   3.348 -0.3320 -0.4747 -0.3364
 2813TIP3    H1 8445   6.350   2.848   3.330 -0.4444  0.1322 -1.0149
 2813TIP3    H2 8446   6.249   2.834   3.442  0.4516 -0.3849 -0.2594
 2814TIP3   OH2 8447   0.734   0.297   2.012 -0.7952  0.1028  0.1380
 2814TIP3    H1 8448   0.824   0.269   1.993 -1.5344 -0.9351 -2.0778
 2814TIP3    H2 8449   0.699   0.228   2.069 -0.8245 -0.5763 -0.6900
 2815TIP3   OH2 8450   3.178   2.369   4.994  0.5242  0.0240  0.0949
 2815TIP3    H1 8451   3.100   2.377   5.049  0.9223 -0.4851  0.7459
 2815TIP3    H2 8452   3.200   2.276   4.997  0.4874 -0.0259 -1.0285
 2816TIP3   OH2 8453   2.589   2.498   5.025 -0.2518 -0.2691 -0.3115
 2816TIP3    H1 8454   2.529   2.440   4.978 -1.5811  1.7936 -1.3208
 2816TIP3    H2 8455   2.630   2.551   4.956 -0.0148  0.8117  0.6315
 2817TIP3   OH2 8456   0.890   0.052   4.911  0.2199 -0.1412 -0.2234
 2817TIP3    H1 8457   0.804   0.065   4.870  1.0818  1.7671 -1.5843
 2817TIP3    H2 8458   0.894  -0.042   4.929 -2.3554 -0.2077  0.4105
 2818TIP3   OH2 8459   2.300   3.795   0.148 -0.2161  0.4224 -0.1787
 2818TIP3    H1 8460   2.370   3.855   0.124  0.9571 -1.1657 -0.9359
 2818TIP3    H2 8461   2.322   3.765   0.236  0.0833 -0.0703 -0.4133
 2819TIP3   OH2 8462   5.833   0.411   4.678 -0.1097 -0.1894 -0.5377
 2819TIP3    H1 8463   5.837   0.340   4.741  0.8266 -0.3648 -0.7812
 2819TIP3    H2 8464   5.885   0.381   4.604  0.1452  0.6610 -0.7215
 2820TIP3   OH2 8465   2.988   4.563   2.058  0.2415  0.0940 -0.1088
 2820TIP3    H1 8466   3.040   4.620   2.001  0.0451  1.5113  1.0695
 2820TIP3    H2 8467   2.949   4.498   1.998 -1.4944  2.6248 -1.9462
 2821TIP3   OH2 8468   5.059   0.544   4.476  0.2051  0.1139 -0.8797
 2821TIP3    H1 8469   5.131   0.541   4.413  1.2903 -0.1357  0.3192
 2821TIP3    H2 8470   5.065   0.461   4.523 -2.0934 -0.7574 -2.0209
 2822TIP3   OH2 8471   5.596   2.315   2.110  0.6118 -0.1130  0.4042
 2822TIP3    H1 8472   5.659   2.387   2.105 -0.5080  0.9714  1.3265
 2822TIP3    H2 8473   5.635   2.253   2.172  1.9412 -0.7295 -0.9614
 2823TIP3   OH2 8474   2.718   5.899   2.987 -0.9009  0.3870  0.2545
 2823TIP3    H1 8475   2.632   5.930   3.014 -0.3775  0.4997  1.9109
 2823TIP3    H2 8476   2.775   5.916   3.063  0.4031 -0.4025 -0.5029
 2824TIP3   OH2 8477   3.805   2.984   4.621  0.1095 -0.2950  0.4166
 2824TIP3    H1 8478   3.777   2.936   4.543  0.4464 -0.8777  0.6428
 2824TIP3    H2 8479   3.832   2.915   4.682 -1.3613  0.0893  1.5286
 2825TIP3   OH2 8480   3.086   2.099   4.411  0.1126  0.0255  0.4028
 2825TIP3    H1 8481   3.120   2.179   4.370 -0.5134 -0.5098 -1.2271
 2825TIP3    H2 8482   2.991   2.103   4.396 -0.1696 -0.1452  1.9351
 2826TIP3   OH2 8483   6.227   1.588   1.847  0.2454 -0.2948  0.1086
 2826TIP3    H1 8484   6.205   1.495   1.849  1.5690 -0.6248  2.0950
 2826TIP3    H2 8485   6.291   1.599   1.917 -2.0406  2.6714  1.9993
 2827TIP3   OH2 8486   5.410   5.325   2.400  0.6053 -0.3295 -0.6874
 2827TIP3    H1 8487   5.421   5.285   2.486  0.5457 -1.0789 -1.0279
 2827TIP3    H2 8488   5.439   5.416   2.413  0.8852 -0.5131  0.0449
 2828TIP3   OH2 8489   3.098   4.065   2.526  0.1734  0.1165 -0.0822
 2828TIP3    H1 8490   3.128   4.062   2.617 -0.1226 -0.9545  0.0012
 2828TIP3    H2 8491   3.078   3.974   2.505 -2.0457  0.6269 -0.4444
 2829TIP3   OH2 8492   6.059   0.626   1.533  0.3766  0.5052  0.3475
 2829TIP3    H1 8493   6.029   0.709   1.570  2.3376  0.3177  2.5187
 2829TIP3    H2 8494   6.001   0.560   1.572 -0.3762  0.6975 -0.4087
 2830TIP3   OH2 8495   1.398   2.476   2.619 -0.0709 -0.3712 -0.4312
 2830TIP3    H1 8496   1.492   2.460   2.613  0.2273  1.3805 -0.9678
 2830TIP3    H2 8497   1.372   2.496   2.529 -0.7143  0.3397 -0.0991
 2831TIP3   OH2 8498   4.070   2.251   3.389 -0.0421 -0.1804 -0.5494
 2831TIP3    H1 8499   3.998   2.188   3.383 -0.1485  0.0500 -2.1416
 2831TIP3    H2 8500   4.139   2.204   3.436 -1.7931  0.1920  2.6560
 2832TIP3   OH2 8501   0.943   5.738   4.637  0.0914 -0.4820 -0.0291
 2832TIP3    H1 8502   0.932   5.698   4.551 -0.6739  0.4485 -0.3777
 2832TIP3    H2 8503   0.891   5.684   4.696  0.4580 -1.0050 -0.1833
 2833TIP3   OH2 8504   0.808   2.656   1.878  0.2391 -0.5843  0.4371
 2833TIP3    H1 8505   0.780   2.588   1.817  1.3819 -1.1167  0.4837
 2833TIP3    H2 8506   0.795   2.738   1.831 -0.0385 -0.9146 -0.0618
 2834TIP3   OH2 8507   2.200   5.154   3.316  0.1808  0.5352  0.2736
 2834TIP3    H1 8508   2.138   5.226   3.300  0.9981  0.8160 -1.9780
 2834TIP3    H2 8509   2.217   5.117   3.229 -1.7591 -3.7865  1.4473
 2835TIP3   OH2 8510   2.277   2.607   3.063 -0.3771  0.2520 -0.0623
 2835TIP3    H1 8511   2.248   2.519   3.089 -1.6022  1.6306  3.8850
 2835TIP3    H2 8512   2.372   2.603   3.069 -0.3835 -0.8879 -0.3657
 2836TIP3   OH2 8513   3.574   4.238   2.270  0.4723 -0.0212  0.2250
 2836TIP3    H1 8514   3.634   4.289   2.324  0.4937  0.9274 -0.6866
 2836TIP3    H2 8515   3.570   4.284   2.186 -2.3009  0.5580  0.5600
 2837TIP3   OH2 8516   3.512   5.588   0.467  0.1754 -0.2850  0.0720
 2837TIP3    H1 8517   3.492   5.648   0.395  0.7504  1.1754  1.0703
 2837TIP3    H2 8518   3.528   5.646   0.542 -0.1549 -1.7487  1.3102
 2838TIP3   OH2 8519   1.242   5.317   4.771  0.5883 -0.5714 -0.3738
 2838TIP3    H1 8520   1.309   5.365   4.819 -0.4769  0.4710  0.1471
 2838TIP3    H2 8521   1.175   5.383   4.751 -0.5139 -1.6593 -0.4197
 2839TIP3   OH2 8522   3.451   3.075   4.063 -0.3444  0.1517  0.2715
 2839TIP3    H1 8523   3.540   3.111   4.067 -0.3560  0.1017  1.0741
 2839TIP3    H2 8524   3.394   3.151   4.078 -0.4414  0.1799 -0.2201
 2840TIP3   OH2 8525   5.692   2.398   2.588 -0.5296 -0.3055  0.0259
 2840TIP3    H1 8526   5.691   2.447   2.670 -2.1083  0.6041 -0.4928
 2840TIP3    H2 8527   5.613   2.343   2.593 -0.8982  0.0981 -1.0459
 2841TIP3   OH2 8528   3.823   5.015   3.606  0.3783  0.2236 -0.2793
 2841TIP3    H1 8529   3.856   4.928   3.581  0.6481 -0.3735  1.9283
 2841TIP3    H2 8530   3.882   5.044   3.675  0.3094  2.2111 -1.0140
 2842TIP3   OH2 8531   5.674   5.736   2.006 -0.2738  0.0338 -0.1316
 2842TIP3    H1 8532   5.589   5.698   2.028 -0.0067 -0.8164 -0.5093
 2842TIP3    H2 8533   5.716   5.751   2.091  0.3046 -2.1744  0.0458
 2843TIP3   OH2 8534   4.789   1.497   4.326  0.5754  0.1266 -0.0702
 2843TIP3    H1 8535   4.703   1.486   4.285  0.1458  0.7225  0.6374
 2843TIP3    H2 8536   4.824   1.409   4.333  0.4125 -0.0422 -1.1703
 2844TIP3   OH2 8537   2.512   2.361   0.638 -0.4030  0.0631  0.4463
 2844TIP3    H1 8538   2.560   2.278   0.634 -1.8213 -0.8103  0.8517
 2844TIP3    H2 8539   2.507   2.381   0.732 -1.2928 -0.1450  0.4490
 2845TIP3   OH2 8540   5.622   0.946   4.919  0.3845  0.0478  0.0838
 2845TIP3    H1 8541   5.535   0.905   4.916  0.6575 -0.5764  0.4534
 2845TIP3    H2 8542   5.606   1.032   4.959 -0.2179  0.3877 -0.8474
 2846TIP3   OH2 8543   3.201   5.088   2.235 -0.5845 -0.3535  0.3938
 2846TIP3    H1 8544   3.163   5.006   2.265 -0.1640 -0.4324  0.7278
 2846TIP3    H2 8545   3.140   5.156   2.266 -2.2382 -0.6455 -1.9541
 2847TIP3   OH2 8546   4.972   3.385   4.543  0.4480 -0.2061  0.2355
 2847TIP3    H1 8547   5.035   3.335   4.491  1.5761 -0.0758  1.4210
 2847TIP3    H2 8548   4.998   3.476   4.531 -1.9946  0.2848 -2.4370
 2848TIP3   OH2 8549   1.135   3.477   0.695  0.3524 -0.0559  0.4917
 2848TIP3    H1 8550   1.165   3.392   0.664  0.5138  0.6688 -1.4679
 2848TIP3    H2 8551   1.109   3.524   0.616  1.8427  2.3288  1.2944
 2849TIP3   OH2 8552   1.813   3.186   1.745 -0.0578 -0.5651 -0.0411
 2849TIP3    H1 8553   1.890   3.234   1.714  0.6679 -1.0858  0.8984
 2849TIP3    H2 8554   1.739   3.242   1.720  0.5527 -0.3642 -1.5520
 2850TIP3   OH2 8555   2.824   1.970   2.547 -0.1352 -0.4389 -0.1980
 2850TIP3    H1 8556   2.732   1.992   2.556 -0.3611 -1.4085  0.0086
 2850TIP3    H2 8557   2.837   1.895   2.606  1.0699  0.4325  0.6848
 2851TIP3   OH2 8558   2.383   1.258   2.612  0.1597  0.4350 -0.4558
 2851TIP3    H1 8559   2.401   1.205   2.534 -0.3994  0.2979 -0.4959
 2851TIP3    H2 8560   2.362   1.194   2.680  2.4360  0.4259  0.3375
 2852TIP3   OH2 8561   4.069   4.118   1.629 -0.4079  0.4159 -0.1089
 2852TIP3    H1 8562   3.996   4.072   1.587  0.1483 -2.2189  1.5798
 2852TIP3    H2 8563   4.029   4.163   1.703 -0.4891 -0.2626  0.2715
 2853TIP3   OH2 8564   5.571   0.751   3.093 -0.3674  0.3968 -0.3448
 2853TIP3    H1 8565   5.655   0.760   3.138 -0.3398  2.6816 -0.7549
 2853TIP3    H2 8566   5.509   0.797   3.149 -0.5649  2.1686 -1.9375
 2854TIP3   OH2 8567   1.747   0.473   1.736 -0.6984  0.2686 -0.4329
 2854TIP3    H1 8568   1.659   0.480   1.700 -0.9850 -1.4458 -0.1485
 2854TIP3    H2 8569   1.803   0.457   1.660 -0.5232  1.8424 -0.6734
 2855TIP3   OH2 8570   5.940   2.633   5.133 -0.2261  0.2049  0.4582
 2855TIP3    H1 8571   5.957   2.575   5.208  0.0857  0.6426  0.7280
 2855TIP3    H2 8572   6.027   2.658   5.102 -0.2791 -1.6374 -1.3779
 2856TIP3   OH2 8573   0.651   2.408   0.195 -0.1025 -0.4914 -0.3734
 2856TIP3    H1 8574   0.596   2.486   0.204  2.1349  1.1716 -0.2499
 2856TIP3    H2 8575   0.690   2.416   0.108  0.7678 -1.0164 -0.0490
 2857TIP3   OH2 8576   1.649   2.267   1.125 -0.3789 -0.1565 -0.4910
 2857TIP3    H1 8577   1.719   2.300   1.182  0.2941  0.7157 -1.7697
 2857TIP3    H2 8578   1.655   2.171   1.134  0.0268 -0.0583  0.4980
 2858TIP3   OH2 8579   3.678   3.800   3.681  0.2528  0.4336  0.5734
 2858TIP3    H1 8580   3.616   3.735   3.715  1.5428 -0.7423  0.7464
 2858TIP3    H2 8581   3.745   3.748   3.636 -0.0469  1.8017 -1.6060
 2859TIP3   OH2 8582   3.726   2.668   0.510 -0.8702 -0.0431 -0.2477
 2859TIP3    H1 8583   3.800   2.689   0.453 -1.4686 -0.2815 -1.1268
 2859TIP3    H2 8584   3.762   2.609   0.575 -0.0715  0.5847 -0.0997
 2860TIP3   OH2 8585   1.048   4.795   3.051  0.1136  0.4830 -0.0139
 2860TIP3    H1 8586   0.992   4.720   3.027  0.6099  0.2934 -0.6106
 2860TIP3    H2 8587   1.131   4.755   3.077 -0.0166  0.7662  0.8520
 2861TIP3   OH2 8588   3.102   3.500   2.511  0.1117  0.5057 -0.2057
 2861TIP3    H1 8589   3.071   3.562   2.445  1.6487  0.1374 -1.3210
 2861TIP3    H2 8590   3.080   3.414   2.476 -0.2331  0.3350  0.4030
 2862TIP3   OH2 8591   5.709   4.622   1.708 -0.0760  0.5057  0.4134
 2862TIP3    H1 8592   5.714   4.529   1.729  2.6620  0.5458  0.3073
 2862TIP3    H2 8593   5.733   4.666   1.789 -1.1283  1.1424  0.3952
 2863TIP3   OH2 8594   0.882   5.091   2.097  0.3086 -0.3647 -0.2714
 2863TIP3    H1 8595   0.835   5.169   2.070  0.0898 -0.9537 -1.7119
 2863TIP3    H2 8596   0.944   5.074   2.025  0.7093 -1.2162  0.2548
 2864TIP3   OH2 8597   1.995   4.480   5.085 -0.1774  0.2175  0.1111
 2864TIP3    H1 8598   2.051   4.521   5.151 -0.3770  2.5218 -1.0639
 2864TIP3    H2 8599   2.056   4.432   5.028  0.7485  2.8509 -1.2726
 2865TIP3   OH2 8600   2.729   3.373   1.844  0.8572 -0.3456 -0.5504
 2865TIP3    H1 8601   2.643   3.332   1.840  1.1027 -0.7503 -2.6804
 2865TIP3    H2 8602   2.739   3.399   1.936 -1.9083  0.5543 -0.4230
 2866TIP3   OH2 8603   5.820   1.795   4.492 -0.3875  0.1843  0.2041
 2866TIP3    H1 8604   5.736   1.827   4.524 -0.5766  1.5002 -1.4789
 2866TIP3    H2 8605   5.844   1.855   4.422  3.2318  1.5294  2.2705
 2867TIP3   OH2 8606   5.997   2.886   2.593  0.4201 -0.1068 -0.1781
 2867TIP3    H1 8607   6.018   2.866   2.502 -1.1947  1.3317 -0.9395
 2867TIP3    H2 8608   5.940   2.815   2.621  2.1675 -1.3962  0.2872
 2868TIP3   OH2 8609   3.262   4.852   0.632 -0.4506  0.4114 -0.3884
 2868TIP3    H1 8610   3.280   4.920   0.696 -0.2850 -1.0327  1.1610
 2868TIP3    H2 8611   3.318   4.874   0.558  1.0181  0.9371  0.8295
 2869TIP3   OH2 8612   0.455   5.345   2.759  0.8688  0.2794 -0.1000
 2869TIP3    H1 8613   0.371   5.314   2.793  0.2702  2.1806  0.2520
 2869TIP3    H2 8614   0.485   5.274   2.703 -1.6656  0.1000 -1.3874
 2870TIP3   OH2 8615   0.418   4.775   2.226 -0.3446 -0.5548 -0.6737
 2870TIP3    H1 8616   0.474   4.849   2.252 -2.0043  0.2034  0.9647
 2870TIP3    H2 8617   0.474   4.698   2.238  0.8357  0.2790 -0.6071
 2871TIP3   OH2 8618   6.221   0.366   4.339  0.9619  0.2265  0.4375
 2871TIP3    H1 8619   6.191   0.450   4.303  1.9539 -0.4097 -2.0344
 2871TIP3    H2 8620   6.166   0.353   4.416 -1.5650  1.5223 -1.0090
 2872TIP3   OH2 8621   3.808   2.238   1.114  0.1036  0.0724  0.2947
 2872TIP3    H1 8622   3.883   2.185   1.142  0.0747  1.1654  2.7288
 2872TIP3    H2 8623   3.734   2.204   1.165 -0.3034  1.2115  0.4993
 2873TIP3   OH2 8624   0.565   3.338   0.168  0.4550 -0.2628  0.0045
 2873TIP3    H1 8625   0.496   3.405   0.164  0.1054 -0.5565  0.8147
 2873TIP3    H2 8626   0.603   3.347   0.256  1.6449  0.0722 -0.5293
 2874TIP3   OH2 8627   2.991   5.933   0.322  0.1384 -0.0818  0.6930
 2874TIP3    H1 8628   3.026   5.992   0.390 -0.3946  0.0830  0.8283
 2874TIP3    H2 8629   2.974   5.990   0.248 -2.3391  0.3427  1.5124
 2875TIP3   OH2 8630   0.505   2.586   1.821  0.7086  0.2071  0.1548
 2875TIP3    H1 8631   0.433   2.537   1.780  0.2167  0.7523  0.3577
 2875TIP3    H2 8632   0.468   2.672   1.840  1.0091  0.0508  1.5048
 2876TIP3   OH2 8633   0.803   5.332   5.057 -0.0684 -0.0408 -0.2144
 2876TIP3    H1 8634   0.813   5.247   5.014 -1.0082 -0.9258  1.2285
 2876TIP3    H2 8635   0.883   5.342   5.109 -0.6712 -0.8652  0.9218
 2877TIP3   OH2 8636   2.516   4.778   0.546 -0.1505  0.5723 -0.3551
 2877TIP3    H1 8637   2.575   4.832   0.598 -0.1673  0.6745 -0.4426
 2877TIP3    H2 8638   2.440   4.833   0.529  0.4524  1.0400 -1.6766
 2878TIP3   OH2 8639   0.419   2.595   3.033  0.1391  0.5929 -0.4033
 2878TIP3    H1 8640   0.367   2.558   3.104  1.6715  1.3234  1.1730
 2878TIP3    H2 8641   0.356   2.643   2.980 -1.2568 -1.0999 -0.3482
 2879TIP3   OH2 8642   4.761   3.987   0.180  0.2569 -0.1774  0.0202
 2879TIP3    H1 8643   4.749   4.075   0.216  3.0678  0.0723  0.5735
 2879TIP3    H2 8644   4.806   3.939   0.249  0.0691 -1.6326 -0.8349
 2880TIP3   OH2 8645   4.811   0.916   2.240  0.2511 -0.4912  0.2674
 2880TIP3    H1 8646   4.893   0.936   2.195  0.1788  1.0306  0.7754
 2880TIP3    H2 8647   4.753   0.885   2.171  1.3578 -1.9887 -0.0384
 2881TIP3   OH2 8648   6.202   4.045   3.511  0.8454 -0.7261 -0.1806
 2881TIP3    H1 8649   6.199   4.117   3.448 -0.6393  0.0072  0.6676
 2881TIP3    H2 8650   6.243   4.082   3.589  0.3687 -0.8690  0.1477
 2882TIP3   OH2 8651   4.227   2.815   0.225 -0.4401 -0.2121  0.3229
 2882TIP3    H1 8652   4.273   2.738   0.257 -0.2690 -0.4264 -0.4278
 2882TIP3    H2 8653   4.249   2.820   0.132  0.7121  1.5699  0.6608
 2883TIP3   OH2 8654   4.234   2.517   3.248 -0.3551 -0.2388  0.2536
 2883TIP3    H1 8655   4.268   2.493   3.334  0.6323 -0.1893 -0.1129
 2883TIP3    H2 8656   4.257   2.609   3.238 -0.3141 -0.2905 -0.1392
 2884TIP3   OH2 8657   5.382   4.119   0.059 -0.0549  0.3808 -0.1445
 2884TIP3    H1 8658   5.338   4.049   0.010  0.7517  0.0252 -0.3822
 2884TIP3    H2 8659   5.441   4.159  -0.005  1.9964 -0.9388  0.8036
 2885TIP3   OH2 8660   1.850   2.802   4.469 -0.0235  0.4035  0.3720
 2885TIP3    H1 8661   1.893   2.763   4.545 -1.0787 -1.1553  0.2305
 2885TIP3    H2 8662   1.920   2.816   4.406  0.7562  1.0810  1.3680
 2886TIP3   OH2 8663   4.015   2.967   2.513  0.0151  0.4381 -0.1799
 2886TIP3    H1 8664   3.971   2.954   2.430 -0.3076 -2.2620  0.3210
 2886TIP3    H2 8665   4.103   2.932   2.499 -0.3812 -1.0656  0.8720
 2887TIP3   OH2 8666   5.280   1.785   0.314  0.3999  0.4286  0.1076
 2887TIP3    H1 8667   5.365   1.741   0.310  0.0421 -0.5480  2.1673
 2887TIP3    H2 8668   5.285   1.840   0.391 -1.2595 -0.6337  1.0316
 2888TIP3   OH2 8669   2.856   2.747   1.776  0.0504 -0.2510 -0.8582
 2888TIP3    H1 8670   2.775   2.748   1.828 -0.2110  0.3678 -1.2645
 2888TIP3    H2 8671   2.912   2.684   1.821 -0.9712 -1.3416 -1.0603
 2889TIP3   OH2 8672   2.089   0.606   1.072  0.0362 -0.6817  0.1281
 2889TIP3    H1 8673   2.058   0.645   0.990  0.7524 -1.0103 -0.3154
 2889TIP3    H2 8674   2.184   0.621   1.071  0.1067 -1.0509  0.7029
 2890TIP3   OH2 8675   6.341   5.923   4.345 -0.0590  0.2507 -0.2608
 2890TIP3    H1 8676   6.280   5.957   4.411  1.6391 -0.2326  1.6655
 2890TIP3    H2 8677   6.286   5.870   4.287 -1.7070  1.1018  0.4281
 2891TIP3   OH2 8678   5.368   1.955   5.137 -0.1095 -0.2169 -0.5504
 2891TIP3    H1 8679   5.383   1.945   5.231  1.3595 -0.0296 -0.7410
 2891TIP3    H2 8680   5.325   2.040   5.129 -0.4990 -0.3570 -0.0268
 2892TIP3   OH2 8681   3.291   5.675   3.150  0.1813  0.3962 -0.1354
 2892TIP3    H1 8682   3.346   5.607   3.112 -0.9118  0.0282 -1.1343
 2892TIP3    H2 8683   3.352   5.744   3.177  1.1345 -0.0845 -1.0223
 2893TIP3   OH2 8684   0.545   1.125   5.030 -0.0079 -0.0252 -0.2030
 2893TIP3    H1 8685   0.596   1.120   5.111 -1.0366  2.5279  0.6942
 2893TIP3    H2 8686   0.603   1.168   4.967  0.0418 -0.0472 -0.1721
 2894TIP3   OH2 8687   2.020   5.507   3.912 -0.1851  0.2485 -0.6544
 2894TIP3    H1 8688   2.074   5.429   3.922 -1.8429 -0.8291  0.6120
 2894TIP3    H2 8689   1.977   5.496   3.827  0.9463  0.7080 -1.2954
 2895TIP3   OH2 8690   5.812   5.882   0.929  0.1986  0.1076 -0.3272
 2895TIP3    H1 8691   5.838   5.965   0.970  0.0243  0.4627 -0.9277
 2895TIP3    H2 8692   5.819   5.818   0.999  1.4770  0.4161 -0.1372
 2896TIP3   OH2 8693   3.809   3.508   0.161  0.2134  0.8663 -0.1200
 2896TIP3    H1 8694   3.718   3.500   0.190  0.0747  2.0742 -0.1830
 2896TIP3    H2 8695   3.855   3.439   0.209 -0.9461 -0.6459 -1.0826
 2897TIP3   OH2 8696   0.125   4.532   4.251  0.2513  0.0035  0.5397
 2897TIP3    H1 8697   0.207   4.577   4.229  0.8272 -1.6841 -1.0573
 2897TIP3    H2 8698   0.057   4.585   4.209  0.8475 -0.2362 -0.7805
 2898TIP3   OH2 8699   3.473   4.358   3.799 -0.0952  0.5354  0.0636
 2898TIP3    H1 8700   3.411   4.303   3.848 -1.3811  0.8035 -1.2111
 2898TIP3    H2 8701   3.432   4.370   3.714  1.4988  1.1629 -0.6398
 2899TIP3   OH2 8702   2.225   4.657   2.725 -0.7145 -0.0297  0.1598
 2899TIP3    H1 8703   2.284   4.658   2.649  2.4730 -0.5235  2.3968
 2899TIP3    H2 8704   2.170   4.734   2.714 -1.0400 -0.5756 -3.0480
 2900TIP3   OH2 8705   1.371   4.712   4.258 -0.2823 -0.1078  0.3811
 2900TIP3    H1 8706   1.370   4.734   4.165 -0.4028  0.5301  0.5291
 2900TIP3    H2 8707   1.327   4.627   4.263 -1.9411  0.6841  0.0502
 2901TIP3   OH2 8708   0.369   2.117   1.424  0.5469 -0.2560 -0.4195
 2901TIP3    H1 8709   0.405   2.103   1.336 -0.6674 -1.6480 -0.7353
 2901TIP3    H2 8710   0.394   2.039   1.473 -0.0594 -0.1800  0.0248
 2902TIP3   OH2 8711   5.935   3.844   3.935  0.1071  0.7985 -0.1254
 2902TIP3    H1 8712   5.896   3.766   3.974  0.2323  0.6845 -0.2309
 2902TIP3    H2 8713   5.917   3.836   3.842 -1.7417  1.9241  0.0740
 2903TIP3   OH2 8714  -0.020   5.903   2.771 -0.4469  0.4153  0.0768
 2903TIP3    H1 8715  -0.007   5.823   2.822 -0.8024 -1.3811 -2.5074
 2903TIP3    H2 8716   0.050   5.962   2.801 -1.8990  0.4012  4.1538
 2904TIP3   OH2 8717   2.439   1.878   2.363  0.2772 -0.8317 -0.1208
 2904TIP3    H1 8718   2.414   1.824   2.438  0.5507 -3.0421 -1.5102
 2904TIP3    H2 8719   2.412   1.826   2.287  0.1721  1.2318 -1.5784
 2905TIP3   OH2 8720   5.695   2.532   2.344  0.5495  0.6640  0.5389
 2905TIP3    H1 8721   5.620   2.588   2.327  0.3789  0.2316 -0.1454
 2905TIP3    H2 8722   5.671   2.483   2.423 -0.3904 -0.3492 -0.3646
 2906TIP3   OH2 8723   5.442   0.910   0.253 -0.0775 -0.2178  0.0737
 2906TIP3    H1 8724   5.379   0.853   0.297  0.3432  0.3268  1.4415
 2906TIP3    H2 8725   5.401   0.997   0.255  0.8141  0.2009  1.2550
 2907TIP3   OH2 8726   5.480   4.499   2.052  0.2678  0.2342 -0.1934
 2907TIP3    H1 8727   5.412   4.481   1.987 -0.1119 -1.1863  0.5643
 2907TIP3    H2 8728   5.443   4.568   2.107 -1.2220 -1.4829  1.0802
 2908TIP3   OH2 8729   2.241   5.376   4.940  0.3870 -0.5753  0.1615
 2908TIP3    H1 8730   2.225   5.283   4.954  2.5967 -1.0291 -0.0012
 2908TIP3    H2 8731   2.219   5.417   5.024 -0.3622 -1.2440  0.3055
 2909TIP3   OH2 8732   1.867   5.063   1.244 -0.4682 -0.3732  0.2681
 2909TIP3    H1 8733   1.833   5.028   1.326  1.4275 -1.0232  0.8455
 2909TIP3    H2 8734   1.870   5.157   1.257 -2.5776 -0.2274 -0.0566
 2910TIP3   OH2 8735   6.163   3.458   0.627  0.1139  0.2103  0.0745
 2910TIP3    H1 8736   6.126   3.547   0.632 -0.0212  0.1009  2.8500
 2910TIP3    H2 8737   6.097   3.407   0.582 -0.9504  1.0395  0.6354
 2911TIP3   OH2 8738   3.181   3.020   2.744 -0.0687 -0.1709 -0.1219
 2911TIP3    H1 8739   3.257   3.066   2.708  2.3967 -0.9600  3.4815
 2911TIP3    H2 8740   3.187   2.932   2.708  1.7904 -0.6889  1.2955
 2912TIP3   OH2 8741   4.581   2.746   1.146 -0.2589  0.2751 -0.7738
 2912TIP3    H1 8742   4.660   2.697   1.121 -0.4083  0.4774 -1.6839
 2912TIP3    H2 8743   4.609   2.803   1.217  0.4632  0.4590 -1.1955
 2913TIP3   OH2 8744   5.082   2.653   2.879 -0.1807 -0.5369 -0.1353
 2913TIP3    H1 8745   5.065   2.737   2.920  1.7654 -0.4832  0.6303
 2913TIP3    H2 8746   5.082   2.671   2.785  1.8640  0.6833  0.0569
 2914TIP3   OH2 8747   2.241   2.562   4.295 -0.3747  0.2084 -0.5738
 2914TIP3    H1 8748   2.335   2.558   4.278  0.1485 -1.0534  2.0092
 2914TIP3    H2 8749   2.228   2.646   4.338 -0.2000 -0.0551  0.0119
 2915TIP3   OH2 8750   5.799   4.153   4.530 -0.2568 -0.3965  0.2894
 2915TIP3    H1 8751   5.851   4.194   4.461 -0.0738 -0.8133  0.1743
 2915TIP3    H2 8752   5.848   4.073   4.552 -1.1580 -1.1184 -0.2507
 2916TIP3   OH2 8753   0.435   3.632   4.888  0.2957 -0.3862 -0.5395
 2916TIP3    H1 8754   0.443   3.538   4.907 -0.8088 -0.3669  0.0895
 2916TIP3    H2 8755   0.518   3.655   4.846  1.9039 -0.9995  2.0795
 2917TIP3   OH2 8756   2.242   4.278   1.028 -0.3606 -0.2884  0.7043
 2917TIP3    H1 8757   2.287   4.209   1.077 -1.2373  0.5571  2.8274
 2917TIP3    H2 8758   2.150   4.250   1.026 -0.3347 -0.3366 -0.5681
 2918TIP3   OH2 8759   5.345   3.899   1.084  0.3253  0.1072 -0.8638
 2918TIP3    H1 8760   5.290   3.949   1.144  1.9501  1.6679 -0.5905
 2918TIP3    H2 8761   5.315   3.924   0.997  0.5269  0.8956 -0.7159
 2919TIP3   OH2 8762   0.145   3.720   0.208  0.2108  0.7849 -0.2898
 2919TIP3    H1 8763   0.153   3.815   0.197 -1.1743  0.9724  0.1254
 2919TIP3    H2 8764   0.124   3.708   0.300  0.7537  0.0363 -0.2560
 2920TIP3   OH2 8765   3.333   5.597   5.142 -0.0155  0.5413  0.1273
 2920TIP3    H1 8766   3.273   5.602   5.216 -0.5493 -1.4409 -0.1102
 2920TIP3    H2 8767   3.390   5.674   5.152 -0.8720  1.0074  1.8592
 2921TIP3   OH2 8768   4.571   1.546   1.505  0.3423  0.4901 -0.3595
 2921TIP3    H1 8769   4.498   1.499   1.466  0.2236 -0.1478  0.6182
 2921TIP3    H2 8770   4.531   1.619   1.552  0.3396  0.2005  0.0900
 2922TIP3   OH2 8771   5.837   1.287   3.747  0.4480 -0.3586 -0.2859
 2922TIP3    H1 8772   5.897   1.245   3.685  0.2805 -0.6837 -0.2291
 2922TIP3    H2 8773   5.884   1.284   3.831  0.3501 -0.6136 -0.2411
 2923TIP3   OH2 8774   0.107   4.129   4.499  0.1291 -0.0650  0.5541
 2923TIP3    H1 8775   0.146   4.179   4.427  0.6682  0.9692  1.5351
 2923TIP3    H2 8776   0.181   4.100   4.551 -0.3469  1.9464  2.4601
 2924TIP3   OH2 8777   3.509   3.798   2.650 -0.0127  0.3095 -0.0666
 2924TIP3    H1 8778   3.473   3.885   2.635 -1.6923  0.1036  2.1905
 2924TIP3    H2 8779   3.432   3.742   2.660  1.0027 -1.0447  0.4266
 2925TIP3   OH2 8780   2.773   1.739   2.763  0.1660 -0.7585 -0.3587
 2925TIP3    H1 8781   2.843   1.675   2.780 -0.1372 -1.4270 -1.4978
 2925TIP3    H2 8782   2.733   1.709   2.681  0.7092  1.4947 -1.5233
 2926TIP3   OH2 8783   2.893   5.476   4.551  0.2519 -0.0125  0.0694
 2926TIP3    H1 8784   2.971   5.532   4.555  1.4894 -1.7458  1.2887
 2926TIP3    H2 8785   2.834   5.512   4.618  0.2225  0.9445 -0.4535
 2927TIP3   OH2 8786   3.333   0.468   2.361 -1.0531  0.2884  0.3352
 2927TIP3    H1 8787   3.258   0.459   2.420 -2.0464 -0.3659 -0.9978
 2927TIP3    H2 8788   3.294   0.480   2.274  0.3903  0.2603 -0.3383
 2928TIP3   OH2 8789   3.086   1.340   4.145  0.1587 -0.3021 -0.1542
 2928TIP3    H1 8790   3.166   1.371   4.188  0.4274  0.5592 -1.2215
 2928TIP3    H2 8791   3.101   1.247   4.129 -0.4838 -1.0240  2.7342
 2929TIP3   OH2 8792   6.044   4.718   0.895  0.5843 -0.6382  0.7583
 2929TIP3    H1 8793   6.074   4.733   0.805 -0.1204 -1.3361  0.3941
 2929TIP3    H2 8794   6.122   4.688   0.941  0.5981 -1.8952 -0.0399
 2930TIP3   OH2 8795   4.773   3.491   4.953  0.3808  0.1294 -0.4159
 2930TIP3    H1 8796   4.693   3.460   4.996  0.4689 -1.7123 -1.4468
 2930TIP3    H2 8797   4.743   3.564   4.898 -0.6356 -0.5507 -0.8107
 2931TIP3   OH2 8798   1.225   5.829   3.941  0.0393 -0.5684  0.2000
 2931TIP3    H1 8799   1.281   5.868   3.873 -0.3238 -0.2951  0.0549
 2931TIP3    H2 8800   1.273   5.752   3.970  0.4357 -0.4064 -0.0135
 2932TIP3   OH2 8801   5.949   2.475   0.784  0.0765  0.1580  0.0947
 2932TIP3    H1 8802   6.027   2.506   0.738 -0.1774 -2.3335 -2.2080
 2932TIP3    H2 8803   5.978   2.396   0.829 -0.2959  1.2241  2.3567
 2933TIP3   OH2 8804   2.469   4.102   4.060  0.2374 -0.2802  0.0521
 2933TIP3    H1 8805   2.561   4.122   4.079  0.2424 -1.1966  1.0727
 2933TIP3    H2 8806   2.429   4.187   4.045  1.0511  0.2019  0.5398
 2934TIP3   OH2 8807   5.831   5.240   4.367  0.7875  0.1596 -0.3402
 2934TIP3    H1 8808   5.838   5.334   4.352  2.0358  0.2188  0.4482
 2934TIP3    H2 8809   5.839   5.231   4.462  3.5609 -0.9158 -0.5712
 2935TIP3   OH2 8810   5.820   4.542   4.181  0.0528  0.6979  0.6027
 2935TIP3    H1 8811   5.725   4.530   4.188  0.0189 -1.1220 -1.7501
 2935TIP3    H2 8812   5.835   4.631   4.213 -2.4491  1.0901  0.8874
 2936TIP3   OH2 8813   2.755   3.993   3.433 -0.1687 -0.7972  0.3142
 2936TIP3    H1 8814   2.681   3.945   3.397  1.0071 -0.9240 -2.1506
 2936TIP3    H2 8815   2.715   4.068   3.478 -1.8027 -1.1078 -0.5445
 2937TIP3   OH2 8816   1.574   4.740   2.948  0.2207 -0.0625 -0.0028
 2937TIP3    H1 8817   1.522   4.676   2.900  3.6196 -2.1467 -1.2683
 2937TIP3    H2 8818   1.631   4.779   2.882 -0.6470  3.2365  1.0426
 2938TIP3   OH2 8819   3.873   4.128   3.816 -0.3859  0.0396 -0.0696
 2938TIP3    H1 8820   3.823   4.061   3.862 -0.3849  0.5925  0.7623
 2938TIP3    H2 8821   3.815   4.204   3.814  0.6756  0.9731  1.6699
 2939TIP3   OH2 8822   5.862   0.015   0.865 -0.2484  0.0747  0.4944
 2939TIP3    H1 8823   5.785  -0.016   0.912  1.2223 -2.7594  1.2729
 2939TIP3    H2 8824   5.828   0.046   0.782 -2.2667 -0.9605  0.8555
 2940TIP3   OH2 8825   3.940   4.110   0.587  0.5211  0.6558  0.5144
 2940TIP3    H1 8826   4.011   4.063   0.543 -0.0473 -1.6341  1.8793
 2940TIP3    H2 8827   3.861   4.082   0.541  0.3516  2.2857 -0.2503
 2941TIP3   OH2 8828   5.497   0.132   1.133 -0.4322 -0.3945  0.1929
 2941TIP3    H1 8829   5.467   0.076   1.062  1.3124 -1.2982  0.1262
 2941TIP3    H2 8830   5.435   0.205   1.134 -1.5559 -1.2935 -1.0367
 2942TIP3   OH2 8831   1.982   0.698   5.116  0.3693 -0.2389 -0.1118
 2942TIP3    H1 8832   2.073   0.718   5.094  0.5703  0.0348  0.9235
 2942TIP3    H2 8833   1.931   0.739   5.046  1.0701 -1.0984 -1.1518
 2943TIP3   OH2 8834   5.656   0.414   1.377 -0.5021 -1.0966  0.1645
 2943TIP3    H1 8835   5.739   0.430   1.332  1.9800 -0.6531  4.4215
 2943TIP3    H2 8836   5.605   0.494   1.364  1.6597  0.5223  1.0844
 2944TIP3   OH2 8837   4.765   2.790   2.577  0.1229 -0.1012  0.3230
 2944TIP3    H1 8838   4.765   2.695   2.562 -1.1483  0.0390 -0.8453
 2944TIP3    H2 8839   4.734   2.826   2.494  1.5407  1.4143  0.4200
 2945TIP3   OH2 8840   2.260   3.055   3.461 -0.1132 -0.5774  0.3725
 2945TIP3    H1 8841   2.316   2.983   3.431  0.5166  0.0893 -0.0833
 2945TIP3    H2 8842   2.261   3.118   3.389  1.1084  0.8760  1.5837
 2946TIP3   OH2 8843   5.145   2.204   3.804  0.0029 -0.0286  0.1352
 2946TIP3    H1 8844   5.111   2.213   3.893  1.6785 -0.6512  0.8774
 2946TIP3    H2 8845   5.110   2.280   3.757 -0.8858  0.3241  1.3233
 2947TIP3   OH2 8846   5.809   0.434   2.287  0.2975  0.0870 -0.2769
 2947TIP3    H1 8847   5.882   0.382   2.319  0.9896  1.0922 -0.1983
 2947TIP3    H2 8848   5.732   0.377   2.299  0.9518 -0.6859  0.3538
 2948TIP3   OH2 8849   5.819   1.447   3.140  0.4028 -0.0238  0.0679
 2948TIP3    H1 8850   5.855   1.519   3.192 -1.9396  0.9158  0.5096
 2948TIP3    H2 8851   5.849   1.464   3.051  1.0917  0.6397  0.4136
 2949TIP3   OH2 8852   5.267   2.858   3.051  0.2564  0.7396  0.3302
 2949TIP3    H1 8853   5.234   2.769   3.060 -0.0793  0.8074 -0.1995
 2949TIP3    H2 8854   5.308   2.877   3.136  1.2126 -0.2728  0.1223
 2950TIP3   OH2 8855   3.128   2.843   0.281 -0.3224 -0.1154 -0.5098
 2950TIP3    H1 8856   3.046   2.879   0.247  0.3480  0.1868 -1.8788
 2950TIP3    H2 8857   3.114   2.748   0.282 -0.6788 -0.0671 -0.7436
 2951TIP3   OH2 8858   0.864   4.779   1.572  0.4464  0.0915  0.4572
 2951TIP3    H1 8859   0.797   4.820   1.627 -0.1443  1.1703 -1.0032
 2951TIP3    H2 8860   0.823   4.699   1.538  0.6055 -0.2685  1.1003
 2952TIP3   OH2 8861   0.107   0.651   4.706  0.3083 -0.1615 -0.4427
 2952TIP3    H1 8862   0.087   0.635   4.798  1.9009  0.0739 -0.0317
 2952TIP3    H2 8863   0.095   0.566   4.664  1.8325 -0.8437  0.4244
 2953TIP3   OH2 8864   1.998   0.480   3.307  0.6524 -0.3235 -0.1502
 2953TIP3    H1 8865   1.918   0.524   3.277 -0.0471  0.5017  2.6834
 2953TIP3    H2 8866   2.059   0.551   3.325  1.3907 -0.8566 -0.5087
 2954TIP3   OH2 8867   5.041   0.094   1.522 -0.1313 -0.3068 -0.4402
 2954TIP3    H1 8868   4.996   0.027   1.472  0.1880 -2.0394  1.4569
 2954TIP3    H2 8869   4.972   0.150   1.557 -0.5013 -0.5150 -0.8395
 2955TIP3   OH2 8870   6.203   3.720   3.708 -0.1924  0.5475 -0.1440
 2955TIP3    H1 8871   6.155   3.644   3.742  1.3879  0.1246  1.3036
 2955TIP3    H2 8872   6.226   3.771   3.785  1.5788  0.7533 -0.7422
 2956TIP3   OH2 8873   3.870   2.492   0.682  0.2995  1.0135  0.5291
 2956TIP3    H1 8874   3.912   2.413   0.716  1.3062  0.3417 -2.0673
 2956TIP3    H2 8875   3.876   2.556   0.753  1.2224 -0.6357  1.9777
 2957TIP3   OH2 8876   1.436   5.527   1.287 -0.1273  0.2861  0.9788
 2957TIP3    H1 8877   1.504   5.568   1.233  0.8166 -1.6983  0.5897
 2957TIP3    H2 8878   1.354   5.542   1.239  0.5596 -0.5406 -0.5099
 2958TIP3   OH2 8879   1.311   0.880   2.686 -0.2228  0.0976  0.1637
 2958TIP3    H1 8880   1.384   0.867   2.747  0.3614  1.0523 -0.3051
 2958TIP3    H2 8881   1.312   0.801   2.631  1.6292  0.8723 -1.0045
 2959TIP3   OH2 8882   1.147   4.759   3.825  0.3706 -0.0705 -0.7620
 2959TIP3    H1 8883   1.115   4.678   3.784  1.8415 -1.2218  0.2769
 2959TIP3    H2 8884   1.068   4.812   3.837 -1.0903 -2.4350  0.9492
 2960TIP3   OH2 8885   3.575   1.434   4.777 -0.2980  0.1002  0.1544
 2960TIP3    H1 8886   3.486   1.436   4.741 -0.1598  0.2282 -0.1858
 2960TIP3    H2 8887   3.598   1.341   4.780 -0.6261  0.0317  0.7073
 2961TIP3   OH2 8888   5.092   0.972   1.697 -0.1167  0.4531  0.1787
 2961TIP3    H1 8889   5.181   0.942   1.712 -1.1782 -2.4032  1.3836
 2961TIP3    H2 8890   5.071   1.022   1.776 -0.7204 -1.9673  1.6324
 2962TIP3   OH2 8891   5.262   2.228   5.131 -0.2244  0.8145  0.5474
 2962TIP3    H1 8892   5.181   2.185   5.159  1.2903 -1.5024  1.6550
 2962TIP3    H2 8893   5.295   2.271   5.210  0.9588 -0.5606  0.8397
 2963TIP3   OH2 8894   5.014   4.202   3.986  0.0583  0.1591  0.0116
 2963TIP3    H1 8895   5.076   4.274   3.985  2.1498 -1.4152  2.2144
 2963TIP3    H2 8896   4.970   4.210   4.071 -1.4936  0.2002 -0.7614
 2964TIP3   OH2 8897   1.867   5.159   1.958 -0.0968  0.1054  0.3138
 2964TIP3    H1 8898   1.938   5.169   1.894  0.5440 -0.4332  0.9183
 2964TIP3    H2 8899   1.818   5.083   1.927  0.5287 -0.4869  0.7251
 2965TIP3   OH2 8900   3.591   4.919   3.696  0.0815  0.1681  0.7047
 2965TIP3    H1 8901   3.530   4.988   3.721 -2.7614 -0.1324 -4.1246
 2965TIP3    H2 8902   3.671   4.965   3.671 -0.5306  1.3150  0.7948
 2966TIP3   OH2 8903   2.768   3.212   4.702  0.0198  0.8332 -0.3449
 2966TIP3    H1 8904   2.753   3.305   4.683  0.9943  1.3336  1.1089
 2966TIP3    H2 8905   2.838   3.213   4.767  0.8630 -0.9989 -1.1860
 2967TIP3   OH2 8906   4.043   0.272   4.906 -0.3549  0.6447  0.0294
 2967TIP3    H1 8907   4.106   0.202   4.890 -1.5659 -0.3525 -0.5086
 2967TIP3    H2 8908   4.045   0.285   5.001  0.0831  0.0824  0.1029
 2968TIP3   OH2 8909   3.108   2.321   1.867  0.1000  0.0952 -0.2763
 2968TIP3    H1 8910   3.184   2.275   1.902  0.8717  1.9163  0.5398
 2968TIP3    H2 8911   3.042   2.316   1.937 -0.1999 -0.6312 -0.5985
 2969TIP3   OH2 8912   0.941   1.503   3.340 -0.0837  0.3586 -0.3423
 2969TIP3    H1 8913   0.859   1.464   3.371  0.2149  0.8307  1.1276
 2969TIP3    H2 8914   0.972   1.444   3.272 -0.2349 -1.3570  1.0240
 2970TIP3   OH2 8915   4.563   4.874   0.410  0.1225 -0.2270 -0.0954
 2970TIP3    H1 8916   4.606   4.904   0.490  0.2578 -2.8283  0.9353
 2970TIP3    H2 8917   4.470   4.875   0.432  0.0282  0.6389 -0.5185
 2971TIP3   OH2 8918   0.830   5.157   0.309 -0.7177  0.3987  0.0745
 2971TIP3    H1 8919   0.741   5.165   0.275 -0.5515 -0.3396 -0.5594
 2971TIP3    H2 8920   0.852   5.065   0.299  1.0285  0.9706 -2.1780
 2972TIP3   OH2 8921   1.036   5.832   3.558 -0.1395 -0.0819  0.2031
 2972TIP3    H1 8922   0.952   5.812   3.518  0.6886  1.8573 -2.7904
 2972TIP3    H2 8923   1.049   5.762   3.622 -3.3046 -1.2648 -0.2852
 2973TIP3   OH2 8924   4.408   4.851   1.394 -0.4167 -0.0765  0.3141
 2973TIP3    H1 8925   4.425   4.913   1.465 -0.6508  3.0708 -2.1346
 2973TIP3    H2 8926   4.484   4.859   1.337 -0.4150 -2.2131 -0.0638
 2974TIP3   OH2 8927   0.592   0.542   4.242  0.5055 -0.8212 -0.1085
 2974TIP3    H1 8928   0.574   0.456   4.204 -3.5655 -0.7558  1.1974
 2974TIP3    H2 8929   0.583   0.604   4.170  1.3077 -1.2876 -0.6234
 2975TIP3   OH2 8930   6.293   3.396   3.642 -0.2094 -0.1223  1.1320
 2975TIP3    H1 8931   6.341   3.433   3.568  0.8723 -1.1933  1.2649
 2975TIP3    H2 8932   6.216   3.453   3.652 -0.2873  0.1404 -0.6817
 2976TIP3   OH2 8933   3.879   3.119   0.913  0.3996 -0.3796  0.0147
 2976TIP3    H1 8934   3.786   3.114   0.890  0.4004  0.2600 -0.1683
 2976TIP3    H2 8935   3.921   3.055   0.856  0.2220  0.2149 -0.8126
 2977TIP3   OH2 8936   4.799   0.114   0.286  0.0586 -0.0012  0.2666
 2977TIP3    H1 8937   4.817   0.034   0.236  2.2190  0.1768  0.6220
 2977TIP3    H2 8938   4.746   0.085   0.360  2.1524 -1.5148  1.3015
 2978TIP3   OH2 8939   2.911   4.976   2.971 -0.0509  0.2854 -0.0136
 2978TIP3    H1 8940   2.845   5.005   3.034 -0.7331  1.9555 -1.4122
 2978TIP3    H2 8941   2.940   5.056   2.928 -0.2635 -0.8483 -2.4234
 2979TIP3   OH2 8942   2.491   3.596   4.948 -0.2905  0.1787  0.3387
 2979TIP3    H1 8943   2.536   3.528   4.897  1.0712  2.0783 -1.1218
 2979TIP3    H2 8944   2.460   3.659   4.883 -0.0790  1.7861  1.7266
 2980TIP3   OH2 8945   2.180   1.046   5.103  0.0972  0.3906  0.1064
 2980TIP3    H1 8946   2.184   0.968   5.048  1.0397  1.2698 -1.1157
 2980TIP3    H2 8947   2.231   1.023   5.181 -2.0464 -1.2083  1.1471
 2981TIP3   OH2 8948   3.301   2.814   4.911  0.2430 -0.2800  0.2316
 2981TIP3    H1 8949   3.390   2.847   4.897 -0.4609  1.0071 -1.5152
 2981TIP3    H2 8950   3.308   2.720   4.897  1.5581 -0.4073  1.4662
 2982TIP3   OH2 8951   5.309   5.402   2.064  0.4689  0.1521  0.2952
 2982TIP3    H1 8952   5.330   5.341   1.993 -1.6974  0.0230 -0.3068
 2982TIP3    H2 8953   5.333   5.355   2.144 -0.5724 -1.2499 -0.1831
 2983TIP3   OH2 8954   5.906   1.950   2.101 -0.1406  0.2358 -0.0971
 2983TIP3    H1 8955   5.953   2.024   2.063  1.4387 -0.2542  0.8320
 2983TIP3    H2 8956   5.973   1.884   2.118 -1.5179 -1.4805 -0.9748
 2984TIP3   OH2 8957   4.958   5.536   4.381  0.3668 -0.1744  0.2591
 2984TIP3    H1 8958   5.040   5.581   4.405  0.7238 -0.4322 -0.4457
 2984TIP3    H2 8959   4.950   5.551   4.287 -0.6153  0.1884  0.3934
 2985TIP3   OH2 8960   4.904   1.510   4.927  0.2257  0.4093 -0.5378
 2985TIP3    H1 8961   4.850   1.512   4.848  0.5681 -0.7760 -0.8086
 2985TIP3    H2 8962   4.993   1.522   4.896  0.4886 -1.2052 -0.4716
 2986TIP3   OH2 8963   1.082   3.068   1.318 -0.2386  0.2486  0.0180
 2986TIP3    H1 8964   1.144   3.032   1.382 -0.0102 -0.4082 -0.5632
 2986TIP3    H2 8965   1.044   2.992   1.276 -1.2609  0.6605  0.1798
 2987TIP3   OH2 8966   3.579   3.902   4.722  0.1559  0.2416 -0.0022
 2987TIP3    H1 8967   3.512   3.939   4.779  1.8325  0.5960  1.8564
 2987TIP3    H2 8968   3.539   3.822   4.687 -1.5084  0.8733  0.3558
 2988TIP3   OH2 8969   0.670   1.302   1.714 -0.6548 -0.4794 -0.2550
 2988TIP3    H1 8970   0.647   1.236   1.650 -1.5077 -1.1742  0.7324
 2988TIP3    H2 8971   0.758   1.279   1.743 -0.7231 -0.8391 -0.3379
 2989TIP3   OH2 8972   6.140   5.965   2.951  0.0165 -0.7369  0.1513
 2989TIP3    H1 8973   6.219   6.002   2.913 -0.6647  0.5188 -0.0906
 2989TIP3    H2 8974   6.097   5.921   2.878  0.6314 -1.6987  0.3528
 2990TIP3   OH2 8975   5.285   5.358   2.869  0.9593  0.3473 -0.5143
 2990TIP3    H1 8976   5.377   5.344   2.845  1.6824  1.0504  1.5961
 2990TIP3    H2 8977   5.283   5.446   2.905 -0.0844 -0.4321  1.4708
 2991TIP3   OH2 8978   1.640  -0.006   0.630  0.0388 -0.0055  0.6259
 2991TIP3    H1 8979   1.592  -0.048   0.700 -1.0324  1.3476  0.7331
 2991TIP3    H2 8980   1.690   0.063   0.673  1.6584 -0.9814  0.4286
 2992TIP3   OH2 8981   3.617   0.076   4.583  0.1376  0.0621 -0.2397
 2992TIP3    H1 8982   3.662   0.161   4.583  4.0107 -1.7994 -1.6220
 2992TIP3    H2 8983   3.686   0.012   4.596 -2.3473 -3.0802 -1.3184
 2993TIP3   OH2 8984   5.600   5.404   3.269  0.0407 -0.9101  0.0382
 2993TIP3    H1 8985   5.694   5.388   3.267  0.0787 -0.8394  0.8023
 2993TIP3    H2 8986   5.592   5.496   3.296 -0.2332 -0.6208 -0.9800
 2994TIP3   OH2 8987   2.898   4.212   0.632 -0.1364  0.0733  0.1301
 2994TIP3    H1 8988   2.833   4.155   0.592 -2.1834  1.1891  1.6627
 2994TIP3    H2 8989   2.982   4.170   0.614 -1.1148 -0.8043 -2.9760
 2995TIP3   OH2 8990   3.531   0.643   2.522 -0.1939 -0.0775 -0.1361
 2995TIP3    H1 8991   3.444   0.650   2.482 -0.7704  1.0732  1.2349
 2995TIP3    H2 8992   3.521   0.572   2.587 -0.4067  0.6817  0.6809
 2996TIP3   OH2 8993   1.703   3.617   0.216 -0.0024 -0.3726 -0.1877
 2996TIP3    H1 8994   1.796   3.595   0.217  0.2392  0.5829 -0.6901
 2996TIP3    H2 8995   1.671   3.592   0.303  0.6311 -1.0513 -0.1394
 2997TIP3   OH2 8996   2.623   0.861   1.873 -0.0207 -0.1927 -0.1065
 2997TIP3    H1 8997   2.615   0.949   1.836  1.6710  0.2187  0.4458
 2997TIP3    H2 8998   2.572   0.806   1.813 -1.2670  1.1704 -0.3523
 2998TIP3   OH2 8999   3.832   3.993   4.699 -0.1593  0.3518 -0.0039
 2998TIP3    H1 9000   3.838   4.075   4.747 -0.2379  0.8621 -0.8474
 2998TIP3    H2 9001   3.739   3.978   4.688 -0.1426  1.1658 -1.5171
 2999TIP3   OH2 9002   5.152   0.469   3.051 -0.1050  0.2530  0.1996
 2999TIP3    H1 9003   5.197   0.542   3.009  1.2664 -1.0634 -0.7211
 2999TIP3    H2 9004   5.139   0.406   2.980 -0.1235 -0.9103  1.2199
 3000TIP3   OH2 9005   3.515   1.954   1.055  0.5683  0.0394  0.2032
 3000TIP3    H1 9006   3.509   1.880   1.116  1.1010 -0.8307 -0.7733
 3000TIP3    H2 9007   3.427   1.993   1.056  0.1847 -0.8113  0.4686
 3001TIP3   OH2 9008   1.573   0.071   4.319 -0.8869  0.6284 -0.3302
 3001TIP3    H1 9009   1.648   0.129   4.333 -0.5271 -0.0290  0.5803
 3001TIP3    H2 9010   1.592  -0.006   4.372 -1.9270  0.1880 -0.5687
 3002TIP3   OH2 9011   1.353   4.557   3.559  0.6302  0.1086  0.5230
 3002TIP3    H1 9012   1.293   4.592   3.493  0.5992  1.5121  1.2660
 3002TIP3    H2 9013   1.314   4.473   3.585  0.5107 -0.3564 -1.0313
 3003TIP3   OH2 9014   1.436   3.226   1.272  0.2102 -0.1391  0.0601
 3003TIP3    H1 9015   1.483   3.253   1.193  1.4845  0.3000  0.9460
 3003TIP3    H2 9016   1.347   3.258   1.258  0.1025 -1.0815 -1.6939
 3004TIP3   OH2 9017   4.237   0.245   3.888  0.2219 -0.1070  0.5489
 3004TIP3    H1 9018   4.204   0.251   3.799 -0.4273 -0.1275  0.7800
 3004TIP3    H2 9019   4.332   0.236   3.879 -0.0288 -2.6044 -0.2408
 3005TIP3   OH2 9020   4.179   3.224   4.165  0.0076  0.0894 -0.2346
 3005TIP3    H1 9021   4.183   3.290   4.234  0.4133 -0.4572  0.2741
 3005TIP3    H2 9022   4.132   3.151   4.205  0.2322 -0.2280 -0.5462
 3006TIP3   OH2 9023   3.963   5.669   4.410  0.0658 -0.1002 -0.0803
 3006TIP3    H1 9024   4.021   5.691   4.483  0.5063 -2.1212  0.2674
 3006TIP3    H2 9025   3.883   5.638   4.452  0.3462 -1.3379 -0.4093
 3007TIP3   OH2 9026   5.945   4.853   3.469  0.5345 -0.3044 -0.2413
 3007TIP3    H1 9027   5.865   4.847   3.521 -0.2982 -0.8253 -1.5422
 3007TIP3    H2 9028   5.956   4.947   3.453 -0.6005 -0.3129 -1.1953
 3008TIP3   OH2 9029   0.207   2.509   4.809  0.2042  0.3274 -0.1092
 3008TIP3    H1 9030   0.181   2.421   4.782 -0.1014 -0.2942  2.0316
 3008TIP3    H2 9031   0.299   2.515   4.784  0.2880 -0.6850 -0.0877
 3009TIP3   OH2 9032   1.891   5.860   0.796 -0.5983 -0.3635  0.1257
 3009TIP3    H1 9033   1.923   5.840   0.708  0.0568 -0.0158  0.2748
 3009TIP3    H2 9034   1.872   5.954   0.794 -1.2380 -0.4867  0.1610
 3010TIP3   OH2 9035   2.086   2.058   0.406 -0.3840 -0.2959 -0.1252
 3010TIP3    H1 9036   2.120   2.088   0.490 -1.2240  0.6984 -0.1208
 3010TIP3    H2 9037   2.011   2.004   0.428 -0.4624 -0.2295 -0.2259
 3011TIP3   OH2 9038   2.675   1.837   0.602 -0.2013 -0.1637 -0.4630
 3011TIP3    H1 9039   2.663   1.896   0.677  1.7626 -1.8087  1.2952
 3011TIP3    H2 9040   2.620   1.761   0.623 -0.0032 -0.4330 -0.9245
 3012TIP3   OH2 9041   2.697   3.088   2.386 -0.2841  0.5005  0.1369
 3012TIP3    H1 9042   2.747   3.006   2.378  0.3468  0.9694 -0.9654
 3012TIP3    H2 9043   2.659   3.084   2.474 -1.5515 -1.6951 -0.4185
 3013TIP3   OH2 9044   1.881   5.429   1.564  0.2943  0.0133 -0.0420
 3013TIP3    H1 9045   1.847   5.515   1.588 -0.6702 -0.4588  0.3401
 3013TIP3    H2 9046   1.941   5.406   1.636  0.2563  0.1951  0.0486
 3014TIP3   OH2 9047   1.470   2.487   0.152 -0.6070  0.0788  0.0697
 3014TIP3    H1 9048   1.462   2.493   0.057 -1.9306 -2.1774 -0.0477
 3014TIP3    H2 9049   1.553   2.441   0.166 -2.1131 -3.0113 -0.2904
 3015TIP3   OH2 9050   1.820   2.714   3.246 -0.2956 -0.0794 -0.2157
 3015TIP3    H1 9051   1.825   2.620   3.228  1.3968 -0.4810  1.8720
 3015TIP3    H2 9052   1.818   2.755   3.159  2.2020 -1.9460 -1.2901
 3016TIP3   OH2 9053   3.507   5.602   2.810 -0.0299 -0.2036 -0.6039
 3016TIP3    H1 9054   3.436   5.614   2.747 -1.0801 -2.8464 -0.0664
 3016TIP3    H2 9055   3.551   5.523   2.781  0.3591 -0.6689  1.1361
 3017TIP3   OH2 9056   2.938   0.573   4.584  0.1126  0.2275  0.2342
 3017TIP3    H1 9057   2.904   0.535   4.503  1.1035 -2.7997  1.1160
 3017TIP3    H2 9058   3.022   0.611   4.559  0.0422  0.0241 -0.3191
 3018TIP3   OH2 9059   3.064   0.968   4.582 -0.6434 -0.3311 -0.0900
 3018TIP3    H1 9060   2.985   0.926   4.614  0.0664 -1.2608  0.4904
 3018TIP3    H2 9061   3.033   1.043   4.531 -1.8521  0.0977  1.2315
 3019TIP3   OH2 9062   3.521   3.116   1.391  0.0859 -0.1509  0.2779
 3019TIP3    H1 9063   3.520   3.151   1.302 -3.0173  2.3195  1.0929
 3019TIP3    H2 9064   3.491   3.026   1.381  3.8598 -1.4225 -1.4451
 3020TIP3   OH2 9065   3.127   4.533   3.039 -0.1127  0.1050  0.4085
 3020TIP3    H1 9066   3.126   4.628   3.056 -0.2604  0.2432 -0.3442
 3020TIP3    H2 9067   3.220   4.511   3.035 -0.0529  0.5312 -1.0424
 3021TIP3   OH2 9068   0.110   3.684   0.464  0.0545 -0.2956  0.6483
 3021TIP3    H1 9069   0.186   3.736   0.489  0.9817 -1.8638  1.2825
 3021TIP3    H2 9070   0.085   3.637   0.544  0.6181 -2.4254 -0.3489
 3022TIP3   OH2 9071   6.062   1.337   1.897 -0.0435  0.3956 -0.2994
 3022TIP3    H1 9072   6.048   1.349   1.991 -2.3579  0.2378 -0.5786
 3022TIP3    H2 9073   6.052   1.243   1.883 -3.4751  0.7617 -1.1556
 3023TIP3   OH2 9074   5.854   4.627   3.256 -0.1035  0.0290  0.0749
 3023TIP3    H1 9075   5.891   4.657   3.339  2.0040  0.2353 -0.8690
 3023TIP3    H2 9076   5.884   4.691   3.192 -1.7711 -0.0780 -0.8607
 3024TIP3   OH2 9077   1.899   2.632   1.839  0.0610 -0.5969 -0.5594
 3024TIP3    H1 9078   1.880   2.672   1.754 -0.0396  2.4269  0.7310
 3024TIP3    H2 9079   1.822   2.580   1.860 -0.3768 -0.4812 -1.8129
 3025TIP3   OH2 9080   1.033   2.845   2.696 -0.4894  0.0490  0.0946
 3025TIP3    H1 9081   0.998   2.925   2.658  1.3725  0.6294 -0.4999
 3025TIP3    H2 9082   1.091   2.876   2.767  0.3855 -0.7450 -0.2551
 3026TIP3   OH2 9083   1.026   3.078   2.545  0.1934  0.2783 -0.4170
 3026TIP3    H1 9084   1.103   3.133   2.526  1.2218 -1.2572 -0.9090
 3026TIP3    H2 9085   1.005   3.037   2.461 -0.1566 -0.5484  0.0634
 3027TIP3   OH2 9086   1.953   0.964   1.116  0.2399 -0.0793 -0.3571
 3027TIP3    H1 9087   1.985   1.044   1.159 -0.3323  0.2182 -0.4728
 3027TIP3    H2 9088   1.912   0.914   1.186  2.1252 -1.1066  0.0704
 3028TIP3   OH2 9089   0.829   1.091   3.989 -0.2315 -0.2857 -0.1039
 3028TIP3    H1 9090   0.851   0.998   3.996  0.0501 -0.2064  0.0873
 3028TIP3    H2 9091   0.733   1.092   3.987 -0.2987 -0.4941  1.4451
 3029TIP3   OH2 9092   5.146   0.401   0.765 -0.0911 -0.6162  0.5851
 3029TIP3    H1 9093   5.069   0.395   0.822 -0.7038 -0.1994 -0.1814
 3029TIP3    H2 9094   5.170   0.311   0.746 -2.5959 -0.8284 -2.0707
 3030TIP3   OH2 9095   4.658   1.228   4.864  0.3458 -0.2489 -0.1509
 3030TIP3    H1 9096   4.630   1.313   4.831 -1.5007 -0.7220  0.1152
 3030TIP3    H2 9097   4.632   1.228   4.956  1.6918 -0.5432  0.2510
 3031TIP3   OH2 9098   5.206   1.368   0.844  0.4009 -0.1911  0.2055
 3031TIP3    H1 9099   5.111   1.376   0.848  0.1428 -2.8978  2.3712
 3031TIP3    H2 9100   5.225   1.358   0.751 -1.7768 -2.1601 -0.1281
 3032TIP3   OH2 9101   3.018   2.620   2.212  0.1129 -0.1835 -0.0493
 3032TIP3    H1 9102   2.977   2.701   2.180  0.3811 -0.1967 -0.4273
 3032TIP3    H2 9103   2.968   2.598   2.291  1.0416  1.2134  0.9568
 3033TIP3   OH2 9104   4.455   2.819   4.500  0.0952  0.0263 -0.4750
 3033TIP3    H1 9105   4.453   2.748   4.564  1.1507 -1.6347 -2.1737
 3033TIP3    H2 9106   4.363   2.839   4.482 -0.2161 -1.1105 -0.1851
 3034TIP3   OH2 9107   3.327   1.752   4.938 -0.0608 -0.1722  0.0973
 3034TIP3    H1 9108   3.247   1.710   4.906  0.4928 -0.9434 -0.3383
 3034TIP3    H2 9109   3.327   1.736   5.032 -1.6074  1.9355  0.5129
 3035TIP3   OH2 9110   3.371   1.600   0.768  0.0551  0.3628  0.6041
 3035TIP3    H1 9111   3.446   1.552   0.733 -1.2039  0.2343 -2.1172
 3035TIP3    H2 9112   3.389   1.691   0.747  0.1223  0.5271  1.3315
 3036TIP3   OH2 9113   2.224   5.007   3.986  0.5307 -0.2947 -0.4744
 3036TIP3    H1 9114   2.253   4.916   3.977  3.7110  0.6901 -1.6543
 3036TIP3    H2 9115   2.191   5.013   4.075  2.1313 -2.1669  0.3335
 3037TIP3   OH2 9116   2.034   4.857   1.797 -0.0466  0.5266  0.2860
 3037TIP3    H1 9117   2.076   4.918   1.858  0.1095  1.7763 -0.9975
 3037TIP3    H2 9118   2.022   4.909   1.717 -0.7036 -0.8979 -0.5721
 3038TIP3   OH2 9119   3.181   4.609   0.347  0.0615  0.0274 -0.0134
 3038TIP3    H1 9120   3.139   4.655   0.274  0.6934  0.2005 -0.2736
 3038TIP3    H2 9121   3.265   4.654   0.358  0.3425 -0.5615  0.2479
 3039TIP3   OH2 9122   1.496   4.976   0.924  0.1387  0.1321 -0.4024
 3039TIP3    H1 9123   1.590   4.991   0.915  0.1614  0.3230  0.1528
 3039TIP3    H2 9124   1.479   4.987   1.017 -0.1524 -1.5219 -0.2377
 3040TIP3   OH2 9125   1.444   2.507   3.353 -0.4482 -0.3537  0.3183
 3040TIP3    H1 9126   1.483   2.590   3.327  2.2829 -1.9258 -1.1142
 3040TIP3    H2 9127   1.498   2.476   3.426 -0.1722 -1.6825 -0.4026
 3041TIP3   OH2 9128   0.444   2.542   4.674 -0.1920  0.3559 -0.0696
 3041TIP3    H1 9129   0.462   2.623   4.721  1.3005  0.7289 -1.2056
 3041TIP3    H2 9130   0.501   2.546   4.597 -1.2474 -1.0459 -0.9749
 3042TIP3   OH2 9131   3.910   3.126   1.498 -0.5530  0.1471  0.0802
 3042TIP3    H1 9132   3.874   3.190   1.561 -3.4025 -0.1877 -1.0708
 3042TIP3    H2 9133   3.856   3.048   1.509  1.0601 -1.1206 -0.5209
 3043TIP3   OH2 9134   0.272   5.547   4.797 -0.3679  0.1169  0.3373
 3043TIP3    H1 9135   0.180   5.570   4.786 -0.3965 -0.5314 -0.8949
 3043TIP3    H2 9136   0.320   5.620   4.757 -0.3680  0.0204  0.1603
 3044TIP3   OH2 9137   4.588   4.260   2.178 -0.4389 -0.2326 -0.0566
 3044TIP3    H1 9138   4.503   4.295   2.206 -0.7329 -0.1265 -1.0243
 3044TIP3    H2 9139   4.567   4.207   2.101 -0.2530 -3.8345  2.1468
 3045TIP3   OH2 9140   3.360   4.435   0.821 -0.1701 -0.1170  0.2372
 3045TIP3    H1 9141   3.284   4.491   0.837 -0.8332 -0.4489 -1.5472
 3045TIP3    H2 9142   3.425   4.465   0.884 -1.7033  0.3010  1.6824
 3046TIP3   OH2 9143   1.903   4.206   0.366 -0.5445  0.2990 -0.1636
 3046TIP3    H1 9144   1.853   4.124   0.367 -0.5735  0.3036  1.4701
 3046TIP3    H2 9145   1.979   4.188   0.421 -0.5455  1.3658  0.2098
 3047TIP3   OH2 9146   6.095   5.899   0.374  0.2367  0.5158 -0.5468
 3047TIP3    H1 9147   6.115   5.808   0.353 -0.0461 -0.6193  3.3826
 3047TIP3    H2 9148   6.006   5.897   0.409  0.1305  2.3570 -0.6330
 3048TIP3   OH2 9149   2.593   4.971   4.636  0.3939 -0.0027 -0.0698
 3048TIP3    H1 9150   2.533   4.900   4.616 -0.8571  1.1526 -0.6118
 3048TIP3    H2 9151   2.546   5.024   4.700  1.3713  0.2396  0.4526
 3049TIP3   OH2 9152   4.744   0.140   2.447 -0.1846  0.2980  0.0749
 3049TIP3    H1 9153   4.742   0.144   2.351 -0.2369  0.9132  0.0949
 3049TIP3    H2 9154   4.825   0.185   2.471  1.0182 -1.8416  0.2476
 3050TIP3   OH2 9155   0.368   3.924   4.433 -0.1358 -0.0115 -0.7563
 3050TIP3    H1 9156   0.461   3.901   4.430  0.0921  0.6147  0.7428
 3050TIP3    H2 9157   0.326   3.850   4.477 -0.5823 -0.8592 -2.4985
 3051TIP3   OH2 9158   0.482   0.409   1.418 -0.2139  0.1220 -0.2057
 3051TIP3    H1 9159   0.577   0.398   1.424 -0.0328  1.6960  0.3643
 3051TIP3    H2 9160   0.462   0.393   1.326  0.3867 -1.5593 -0.0805
 3052TIP3   OH2 9161   1.957   0.658   0.841 -0.5937 -0.1939  0.4333
 3052TIP3    H1 9162   1.993   0.619   0.761 -1.6650  0.8203 -0.5889
 3052TIP3    H2 9163   1.865   0.632   0.842 -0.9456  0.9640  0.5566
 3053TIP3   OH2 9164   4.160   1.849   1.625  0.4714 -0.3615 -0.2564
 3053TIP3    H1 9165   4.165   1.804   1.709 -1.8969 -0.0705  0.1293
 3053TIP3    H2 9166   4.182   1.940   1.645 -1.1662 -0.0532  0.3494
 3054TIP3   OH2 9167   2.037   0.782   2.619 -0.5344  0.4568  0.2661
 3054TIP3    H1 9168   1.958   0.748   2.577 -0.1560  0.1282 -0.1843
 3054TIP3    H2 9169   2.106   0.772   2.553  0.0679 -0.0694  0.9653
 3055TIP3   OH2 9170   3.908   2.616   4.653  0.1999 -0.0285  0.7889
 3055TIP3    H1 9171   3.985   2.651   4.699 -0.3713  1.1111  0.9144
 3055TIP3    H2 9172   3.833   2.658   4.696 -0.4250 -0.0683 -0.2241
 3056TIP3   OH2 9173   1.271   4.561   1.958  0.0958  0.1622 -0.6246
 3056TIP3    H1 9174   1.366   4.555   1.968  0.0225  0.5480  0.3303
 3056TIP3    H2 9175   1.244   4.632   2.016 -0.7742  0.0792 -0.9086
 3057TIP3   OH2 9176   4.332   3.521   5.044  0.0542  0.5675 -0.4834
 3057TIP3    H1 9177   4.282   3.561   4.972  0.1199 -0.3725 -1.0761
 3057TIP3    H2 9178   4.282   3.442   5.066  0.5908  0.2986 -0.2116
 3058TIP3   OH2 9179   1.582   4.252   4.847 -0.3581 -0.6232  0.7088
 3058TIP3    H1 9180   1.564   4.159   4.855  0.0145 -0.8367 -0.7072
 3058TIP3    H2 9181   1.601   4.265   4.754 -1.6530  1.0780  0.6302
 3059TIP3   OH2 9182   1.945   2.986   2.325 -0.4760 -0.0333  0.3316
 3059TIP3    H1 9183   1.934   3.054   2.392 -0.8886  0.7867 -0.5405
 3059TIP3    H2 9184   2.039   2.987   2.305 -0.8054  2.2625 -1.6142
 3060TIP3   OH2 9185   2.171   3.505   1.092 -0.2891 -0.5589 -0.6260
 3060TIP3    H1 9186   2.106   3.554   1.040  1.2268 -0.2431 -2.3427
 3060TIP3    H2 9187   2.240   3.569   1.109  0.5885 -1.4528 -0.7710
 3061TIP3   OH2 9188   4.014   3.014   3.720 -0.1717 -0.6527  0.0264
 3061TIP3    H1 9189   4.027   3.064   3.801  2.3387  0.7934 -1.1434
 3061TIP3    H2 9190   4.020   2.922   3.747  1.7141 -0.1938  1.3991
 3062TIP3   OH2 9191   1.328   1.229   0.933  0.2825  0.4404 -0.2211
 3062TIP3    H1 9192   1.277   1.171   0.877  0.3079  0.4947 -0.3019
 3062TIP3    H2 9193   1.392   1.172   0.975  0.2755  0.4018 -0.2628
 3063TIP3   OH2 9194   0.279   1.153   2.027  0.2825  0.1253 -0.4609
 3063TIP3    H1 9195   0.316   1.072   1.991  0.5557  0.6736 -1.4264
 3063TIP3    H2 9196   0.336   1.222   1.996 -0.5939  0.8191 -0.5783
 3064TIP3   OH2 9197   2.826   2.938   0.738 -0.0051 -0.0582 -0.2974
 3064TIP3    H1 9198   2.839   3.033   0.733  2.2842 -0.1146  2.3204
 3064TIP3    H2 9199   2.864   2.904   0.657 -1.5701  1.2337 -1.6483
 3065TIP3   OH2 9200   4.365   0.157   0.741 -0.1797  0.1415 -0.3274
 3065TIP3    H1 9201   4.423   0.231   0.724 -0.6388  0.4848 -0.4056
 3065TIP3    H2 9202   4.282   0.196   0.765 -1.1499 -0.2966 -2.7070
 3066TIP3   OH2 9203   1.699   0.879   3.866 -0.4044 -0.1325  0.4280
 3066TIP3    H1 9204   1.677   0.872   3.773  0.1298 -1.0709  0.3577
 3066TIP3    H2 9205   1.747   0.961   3.872  3.5379 -2.0506 -1.0348
 3067TIP3   OH2 9206   0.045   5.065   3.765 -0.3899 -0.1516  0.0940
 3067TIP3    H1 9207   0.061   5.133   3.700  3.0195 -0.3157  0.6025
 3067TIP3    H2 9208   0.077   4.985   3.725 -2.9237 -1.3009  0.1307
 3068TIP3   OH2 9209   0.346   1.432   4.734  0.3741  0.4453 -0.3056
 3068TIP3    H1 9210   0.320   1.524   4.737  0.7851  0.5749 -0.5331
 3068TIP3    H2 9211   0.281   1.390   4.678 -0.0631  0.5068  0.1457
 3069TIP3   OH2 9212  -0.008   0.569   0.736  0.2621 -0.4652  0.8273
 3069TIP3    H1 9213  -0.052   0.486   0.720  1.6594 -1.3391  1.4096
 3069TIP3    H2 9214   0.085   0.547   0.743  0.6702  1.1506  0.9454
 3070TIP3   OH2 9215   3.894   3.955   1.110  0.0527 -0.0081  0.0031
 3070TIP3    H1 9216   3.898   4.006   1.029  0.1872  0.8064  0.5083
 3070TIP3    H2 9217   3.857   3.871   1.084  1.4935 -0.3300 -1.1932
 3071TIP3   OH2 9218   1.735   0.137   1.626 -0.1255 -0.6515 -0.1779
 3071TIP3    H1 9219   1.640   0.133   1.618  0.0051 -2.2315 -1.6546
 3071TIP3    H2 9220   1.753   0.224   1.660 -2.0748 -0.1482 -0.3206
 3072TIP3   OH2 9221   1.023   4.734   4.707 -0.5568 -0.0404 -0.1666
 3072TIP3    H1 9222   0.995   4.807   4.761 -0.8125  0.4884 -0.9899
 3072TIP3    H2 9223   1.053   4.667   4.769  0.8014  1.2098  0.5790
 3073TIP3   OH2 9224   4.571   0.727   4.877 -0.2929 -0.2438 -0.1868
 3073TIP3    H1 9225   4.504   0.793   4.894  1.1577  1.0756  0.7115
 3073TIP3    H2 9226   4.653   0.770   4.900  0.8471 -1.9038 -0.9590
 3074TIP3   OH2 9227   5.180   5.704   2.211  0.1524  0.1855 -0.4297
 3074TIP3    H1 9228   5.179   5.652   2.292 -0.7656 -1.7543 -1.6099
 3074TIP3    H2 9229   5.092   5.741   2.205  0.2713  0.4639 -0.4718
 3075TIP3   OH2 9230   1.088   1.006   3.853 -0.5863 -0.2697 -0.0621
 3075TIP3    H1 9231   1.032   1.084   3.853 -0.2852 -0.0510 -0.4543
 3075TIP3    H2 9232   1.089   0.977   3.762  0.1771 -0.0975 -0.1173
 3076TIP3   OH2 9233   3.961   3.126   0.403 -0.3490 -0.5639  0.0638
 3076TIP3    H1 9234   3.891   3.170   0.354  1.2620  0.1170 -1.7787
 3076TIP3    H2 9235   3.962   3.037   0.368  1.2280  0.0997 -1.7694
 3077TIP3   OH2 9236   2.618   1.375   0.550  0.3444 -0.2048  0.0441
 3077TIP3    H1 9237   2.634   1.426   0.471 -0.1068 -0.8087 -0.4521
 3077TIP3    H2 9238   2.585   1.291   0.517  1.4004 -0.9378  0.8224
 3078TIP3   OH2 9239   3.657   0.114   0.967  0.2116 -0.7350 -0.1616
 3078TIP3    H1 9240   3.573   0.103   1.011  0.1426 -0.8733 -0.3245
 3078TIP3    H2 9241   3.718   0.057   1.014  0.4442  0.0900  0.5617
 3079TIP3   OH2 9242   5.050   0.065   0.087 -0.7427 -0.3699 -0.6594
 3079TIP3    H1 9243   5.076   0.157   0.073 -0.1394 -0.6738 -1.6169
 3079TIP3    H2 9244   4.957   0.070   0.110 -0.3419  0.5955  0.9367
 3080TIP3   OH2 9245   2.318   5.313   2.666 -0.0685  0.4764  0.0110
 3080TIP3    H1 9246   2.412   5.297   2.664 -0.0705  0.4350  0.2268
 3080TIP3    H2 9247   2.292   5.317   2.574 -0.1082 -1.0378 -0.0798
 3081TIP3   OH2 9248   3.442   5.292   0.834 -0.3122  0.4424 -0.0144
 3081TIP3    H1 9249   3.496   5.322   0.761  0.1118 -0.5766 -0.1402
 3081TIP3    H2 9250   3.502   5.290   0.909 -0.2081 -0.5190 -0.1133
 3082TIP3   OH2 9251   3.055   5.909   2.594 -0.2486 -0.2242  0.4162
 3082TIP3    H1 9252   2.961   5.924   2.609 -1.0175 -2.3364 -1.7995
 3082TIP3    H2 9253   3.086   5.991   2.554 -1.3280  0.1461  0.3128
 3083TIP3   OH2 9254   5.682   1.137   0.120  0.2304  0.4699  0.1191
 3083TIP3    H1 9255   5.641   1.050   0.113 -0.1711  0.6253  0.5420
 3083TIP3    H2 9256   5.775   1.120   0.107  0.1779 -0.0538  0.3856
 3084TIP3   OH2 9257   4.575   4.087   4.792 -0.1951  0.4210  0.2337
 3084TIP3    H1 9258   4.525   4.093   4.710 -0.6634 -1.2878  0.3408
 3084TIP3    H2 9259   4.511   4.109   4.860 -0.5510 -0.7606  0.3001
 3085TIP3   OH2 9260   0.776   2.172   3.813 -0.3965  0.0919  0.2470
 3085TIP3    H1 9261   0.691   2.199   3.850 -1.6226  0.1329 -2.3974
 3085TIP3    H2 9262   0.808   2.250   3.768 -0.1899 -0.6558 -0.9169
 3086TIP3   OH2 9263   4.689   2.190   1.894  0.2974 -0.2753 -0.2334
 3086TIP3    H1 9264   4.658   2.173   1.983 -0.1832  1.2901 -0.0755
 3086TIP3    H2 9265   4.769   2.242   1.905  0.2367 -0.0728 -0.7069
 3087TIP3   OH2 9266   4.810   1.789   4.038 -0.3313 -0.0667  0.0303
 3087TIP3    H1 9267   4.856   1.759   4.117 -0.5195 -1.4107 -0.3490
 3087TIP3    H2 9268   4.878   1.795   3.971  0.1734  2.8329  0.6876
 3088TIP3   OH2 9269   0.406   5.734   4.639 -0.2009 -0.2281  0.1406
 3088TIP3    H1 9270   0.476   5.691   4.591 -0.3823  0.5213 -0.8341
 3088TIP3    H2 9271   0.450   5.781   4.710  0.2132 -0.2854 -0.0807
 3089TIP3   OH2 9272   1.485   2.258   3.823 -0.2962 -0.3352  0.1504
 3089TIP3    H1 9273   1.576   2.272   3.850 -0.6073  1.3248  0.4765
 3089TIP3    H2 9274   1.451   2.194   3.885  0.0450  0.6838  1.4312
 3090TIP3   OH2 9275   1.659   2.639   3.595  0.5146  0.3657 -0.0546
 3090TIP3    H1 9276   1.596   2.699   3.636 -0.3679 -0.8704  0.4669
 3090TIP3    H2 9277   1.745   2.670   3.624 -0.0472 -0.7692  3.3426
 3091TIP3   OH2 9278   5.328   1.896   4.527 -0.0894  0.1599 -0.0432
 3091TIP3    H1 9279   5.236   1.877   4.511  0.2924 -0.8864 -1.1091
 3091TIP3    H2 9280   5.329   1.940   4.612 -1.4634 -0.6918  0.4340
 3092TIP3   OH2 9281   2.162   3.172   3.220  0.1865  0.1956 -0.2350
 3092TIP3    H1 9282   2.079   3.137   3.252  0.6759 -1.9895 -1.1604
 3092TIP3    H2 9283   2.198   3.102   3.165  2.2782  1.3784 -0.4852
 3093TIP3   OH2 9284   4.827   0.360   1.641  0.1353 -0.4834  0.3688
 3093TIP3    H1 9285   4.899   0.390   1.586 -0.3415  1.7578  0.8881
 3093TIP3    H2 9286   4.766   0.318   1.579  0.7493 -0.2182 -0.4335
 3094TIP3   OH2 9287   5.203   1.374   4.472 -0.2704  0.6220 -0.1920
 3094TIP3    H1 9288   5.163   1.461   4.476  1.6546  1.5113  1.0891
 3094TIP3    H2 9289   5.282   1.387   4.419  0.5100 -0.1342  0.7546
 3095TIP3   OH2 9290   4.362   1.987   2.431  0.2026  0.7717 -0.1938
 3095TIP3    H1 9291   4.438   1.951   2.386 -0.4285  0.5787 -1.1193
 3095TIP3    H2 9292   4.399   2.033   2.506  1.1454 -0.2833  0.0105
 3096TIP3   OH2 9293   0.511   1.373   3.255  0.2508  0.6348 -0.2432
 3096TIP3    H1 9294   0.494   1.308   3.186  0.3249  1.7480 -1.3515
 3096TIP3    H2 9295   0.430   1.423   3.261  0.9133  1.8376 -0.9788
 3097TIP3   OH2 9296   3.041   4.335   1.268  0.3715  0.0954 -0.4468
 3097TIP3    H1 9297   3.010   4.404   1.210 -0.9123 -0.1294 -0.0715
 3097TIP3    H2 9298   3.130   4.362   1.293  0.1826  1.2068 -0.9135
 3098TIP3   OH2 9299   3.991   4.078   3.077  0.0467 -0.2436 -0.1843
 3098TIP3    H1 9300   4.029   4.017   3.141  1.1383 -0.4582 -0.9997
 3098TIP3    H2 9301   3.908   4.105   3.116  0.7321 -0.2747  1.3704
 3099TIP3   OH2 9302   5.728   3.778   4.564  0.0507 -0.7936 -0.5076
 3099TIP3    H1 9303   5.742   3.765   4.658 -0.3072 -1.7782 -0.5789
 3099TIP3    H2 9304   5.795   3.841   4.539 -0.9431  0.8513  0.7386
 3100TIP3   OH2 9305   4.848   0.071   0.935 -0.0183  0.3614 -0.0167
 3100TIP3    H1 9306   4.841   0.154   0.980  0.8546  2.5593 -3.5404
 3100TIP3    H2 9307   4.802   0.084   0.852  1.6951 -1.9737 -1.4844
 3101TIP3   OH2 9308   0.637   1.996   2.585  0.1551 -0.5951  0.0883
 3101TIP3    H1 9309   0.630   2.047   2.665  0.4049 -1.1645  0.4790
 3101TIP3    H2 9310   0.549   1.960   2.572  0.2214 -0.8523  0.3457
 3102TIP3   OH2 9311   1.861   0.244   3.815 -0.0928  0.2257  0.0437
 3102TIP3    H1 9312   1.938   0.283   3.774 -0.5173 -0.8628 -1.9313
 3102TIP3    H2 9313   1.895   0.199   3.893  1.6048 -1.6277 -1.6628
 3103TIP3   OH2 9314   2.563   0.921   3.336  0.3632 -0.1468 -0.0338
 3103TIP3    H1 9315   2.619   0.874   3.275  1.1125  0.7975 -0.0963
 3103TIP3    H2 9316   2.622   0.952   3.405 -0.3408 -0.5151  0.7602
 3104TIP3   OH2 9317   2.134   2.832   0.949  0.2016  0.5681 -0.2049
 3104TIP3    H1 9318   2.143   2.927   0.941  1.3632  0.3905 -1.2895
 3104TIP3    H2 9319   2.223   2.799   0.943 -0.3743 -0.7486 -2.4222
 3105TIP3   OH2 9320   2.071   1.804   4.109 -0.3844  0.2861  0.0341
 3105TIP3    H1 9321   1.994   1.833   4.060 -0.7357 -0.6300  0.0200
 3105TIP3    H2 9322   2.066   1.851   4.192 -0.4777  0.8921 -0.3096
 3106TIP3   OH2 9323   5.728   0.681   4.741 -0.3472  0.2846  0.2948
 3106TIP3    H1 9324   5.798   0.626   4.777 -1.0235 -0.0004  1.1967
 3106TIP3    H2 9325   5.771   0.764   4.723  1.0379 -0.8925 -2.4216
 3107TIP3   OH2 9326   4.328   0.578   0.171  0.7810 -0.0999 -0.0768
 3107TIP3    H1 9327   4.234   0.595   0.162  0.2533 -2.8113 -0.5050
 3107TIP3    H2 9328   4.348   0.604   0.261 -0.8971 -1.4114  0.7296
 3108TIP3   OH2 9329   4.483   5.887   2.263 -0.5008  0.0621 -0.0194
 3108TIP3    H1 9330   4.547   5.918   2.198  0.6727 -1.0020  0.5811
 3108TIP3    H2 9331   4.473   5.793   2.243 -1.6161  0.1437  0.1235
 3109TIP3   OH2 9332   5.594   0.222   2.331  0.1093 -0.6608 -0.0058
 3109TIP3    H1 9333   5.511   0.266   2.311  0.7042  0.3082 -0.4304
 3109TIP3    H2 9334   5.593   0.143   2.278 -0.0377 -0.0501 -0.9373
 3110TIP3   OH2 9335   2.712   1.658   5.025  0.0258  0.7029 -0.0749
 3110TIP3    H1 9336   2.719   1.644   4.931 -1.1952  0.1225 -0.0945
 3110TIP3    H2 9337   2.618   1.659   5.043  0.2276  1.4246  1.0524
 3111TIP3   OH2 9338   1.234   5.328   2.337 -0.4700 -0.4370 -0.5891
 3111TIP3    H1 9339   1.286   5.335   2.257 -1.5361  1.2054 -1.1800
 3111TIP3    H2 9340   1.298   5.329   2.408  0.4278 -0.8829 -1.3797
 3112TIP3   OH2 9341   1.774   0.580   3.886  0.2413 -0.4519 -0.6762
 3112TIP3    H1 9342   1.753   0.673   3.892  0.1315 -0.4718 -0.7402
 3112TIP3    H2 9343   1.811   0.569   3.799 -0.2004 -0.5541 -0.8560
 3113TIP3   OH2 9344   0.976   0.390   4.597  0.0793  0.7351 -0.1067
 3113TIP3    H1 9345   0.920   0.379   4.673 -0.5897  0.0110 -0.6790
 3113TIP3    H2 9346   0.918   0.426   4.529 -0.4532 -2.4476 -1.5226
 3114TIP3   OH2 9347   0.763   3.973   2.088  0.3441  0.1583 -0.0538
 3114TIP3    H1 9348   0.776   4.039   2.157  1.1923  0.8873 -0.8834
 3114TIP3    H2 9349   0.829   3.906   2.107  1.1435  0.7710 -0.6285
 3115TIP3   OH2 9350   5.607   3.019   3.116  0.2776 -0.2004 -0.5574
 3115TIP3    H1 9351   5.540   2.997   3.181  0.1501 -0.4207 -0.7585
 3115TIP3    H2 9352   5.666   3.079   3.161 -1.1977  1.6626 -0.9718
 3116TIP3   OH2 9353   3.785   1.054   2.251 -0.6026  0.1506  0.0267
 3116TIP3    H1 9354   3.880   1.049   2.252 -0.5847  0.2452 -0.8320
 3116TIP3    H2 9355   3.758   0.980   2.197 -1.0543 -0.2980  0.8444
 3117TIP3   OH2 9356   0.156   2.353   0.612  0.2582 -0.0360 -0.3231
 3117TIP3    H1 9357   0.185   2.363   0.702 -1.7394 -2.4357  0.7258
 3117TIP3    H2 9358   0.207   2.280   0.578  0.7659  0.6417 -1.0384
 3118TIP3   OH2 9359   2.879   2.641   1.171  0.6956  0.9960 -0.3534
 3118TIP3    H1 9360   2.815   2.671   1.236  0.9241  0.3545  0.1793
 3118TIP3    H2 9361   2.852   2.684   1.090 -2.4587 -1.7561 -1.0031
 3119TIP3   OH2 9362   5.768   3.448   3.043  0.0528  0.4586 -0.4816
 3119TIP3    H1 9363   5.840   3.418   3.099  0.8674  1.1895 -1.1109
 3119TIP3    H2 9364   5.758   3.378   2.978  0.4930  0.5414 -0.6465
 3120TIP3   OH2 9365   1.501   0.275   4.737  0.1039 -0.0925  0.1902
 3120TIP3    H1 9366   1.482   0.259   4.829 -2.0951 -2.8630 -0.5983
 3120TIP3    H2 9367   1.418   0.303   4.699  0.1249 -2.0233 -1.4553
 3121TIP3   OH2 9368   4.365   4.359   1.189 -0.0774 -0.1060  0.4864
 3121TIP3    H1 9369   4.383   4.270   1.158 -0.2165  0.7531 -2.2537
 3121TIP3    H2 9370   4.400   4.360   1.278  1.1336 -2.5023  0.1255
 3122TIP3   OH2 9371   4.465   1.106   1.369  0.5891 -0.5796 -0.4374
 3122TIP3    H1 9372   4.374   1.122   1.344  0.8352 -1.0525 -1.6920
 3122TIP3    H2 9373   4.476   1.153   1.451 -0.8856 -0.7977 -0.0887
 3123TIP3   OH2 9374   5.462   0.441   1.930  0.1152 -0.0292  0.3491
 3123TIP3    H1 9375   5.516   0.368   1.958  0.9864  0.5110  0.1164
 3123TIP3    H2 9376   5.524   0.509   1.905 -0.6755  0.8185  0.6216
 3124TIP3   OH2 9377   5.944   1.904   3.971  0.0588  0.1328  0.4499
 3124TIP3    H1 9378   5.932   1.816   3.937 -0.3787  0.5878 -0.6219
 3124TIP3    H2 9379   6.016   1.940   3.921  0.4867  0.2694  1.1442
 3125TIP3   OH2 9380   1.805   5.778   2.964 -0.1187  0.1860  0.4117
 3125TIP3    H1 9381   1.765   5.865   2.968 -1.8135 -0.4228 -1.6430
 3125TIP3    H2 9382   1.811   5.759   2.871  2.7810 -0.8274  0.6979
 3126TIP3   OH2 9383   2.821   1.733   4.474  0.3482 -0.0704 -0.4635
 3126TIP3    H1 9384   2.830   1.638   4.485  0.6543  0.1802  2.0206
 3126TIP3    H2 9385   2.884   1.755   4.405 -0.4655 -1.7484 -1.8417
 3127TIP3   OH2 9386   2.699   5.591   2.648 -0.5012 -0.1778 -0.5049
 3127TIP3    H1 9387   2.680   5.512   2.598  0.1207 -0.3281 -0.5052
 3127TIP3    H2 9388   2.794   5.595   2.653 -0.5206  0.5622 -0.4906
 3128TIP3   OH2 9389   1.740   5.559   4.153 -0.3392 -0.1923 -0.0411
 3128TIP3    H1 9390   1.777   5.473   4.174  0.0557  0.0480  0.2601
 3128TIP3    H2 9391   1.794   5.591   4.081 -0.2808 -0.0572  0.0630
 3129TIP3   OH2 9392   5.136   5.776   4.937 -0.1230 -0.3223 -0.3647
 3129TIP3    H1 9393   5.168   5.742   5.020 -0.5621 -1.7372 -0.7380
 3129TIP3    H2 9394   5.104   5.698   4.890 -0.7710  0.5668 -1.4565
 3130TIP3   OH2 9395   5.033   2.613   3.717 -0.4939 -0.3477 -0.4309
 3130TIP3    H1 9396   5.048   2.547   3.650 -0.1643  0.1478 -0.8527
 3130TIP3    H2 9397   5.120   2.634   3.751 -0.1533  2.1783 -2.5428
 3131TIP3   OH2 9398   3.083   0.892   1.902 -0.8128 -0.1573 -0.1699
 3131TIP3    H1 9399   3.052   0.905   1.812  1.0842  2.0440 -0.6328
 3131TIP3    H2 9400   3.036   0.958   1.953  0.7744  1.1979 -0.3433
 3132TIP3   OH2 9401   4.503   3.672   4.410 -0.8667  0.3349  0.1759
 3132TIP3    H1 9402   4.461   3.678   4.325 -0.7743 -2.7055 -0.1677
 3132TIP3    H2 9403   4.553   3.591   4.407 -0.1312  0.5974  2.8264
 3133TIP3   OH2 9404   1.066   0.105   4.515 -0.1231 -0.6075 -0.5510
 3133TIP3    H1 9405   1.150   0.132   4.477  0.2123 -0.5650  0.2028
 3133TIP3    H2 9406   1.082   0.103   4.609 -1.5224  1.3847 -0.1985
 3134TIP3   OH2 9407   2.051   4.957   4.195 -0.5448  0.2120  0.0543
 3134TIP3    H1 9408   2.068   4.867   4.223  0.1760 -0.2420 -1.7200
 3134TIP3    H2 9409   1.956   4.966   4.199 -0.6185 -0.5868  0.3270
 3135TIP3   OH2 9410   0.681   4.926   0.490 -0.8394 -0.0057  0.0992
 3135TIP3    H1 9411   0.739   4.884   0.554 -3.2595 -1.5430  1.4244
 3135TIP3    H2 9412   0.596   4.932   0.535 -2.7665 -1.5092 -3.0348
 3136TIP3   OH2 9413   4.340   2.215   2.968 -0.6938 -0.1030  0.1366
 3136TIP3    H1 9414   4.267   2.258   3.012 -1.7351 -1.4212 -0.2170
 3136TIP3    H2 9415   4.391   2.176   3.038  0.3150  1.7019  0.4674
 3137TIP3   OH2 9416   5.394   0.347   2.164 -0.2561  0.1551 -0.2003
 3137TIP3    H1 9417   5.394   0.381   2.074 -3.4492  2.9950  0.6895
 3137TIP3    H2 9418   5.375   0.423   2.218 -2.8653 -2.1888  2.4996
 3138TIP3   OH2 9419   5.407   3.439   1.304  0.2843  0.6841  0.1278
 3138TIP3    H1 9420   5.385   3.363   1.250 -0.1891  0.1418  1.0620
 3138TIP3    H2 9421   5.482   3.479   1.259 -0.1306  0.2960 -0.9589
 3139TIP3   OH2 9422   2.774   2.147   1.045  0.1463 -0.1217 -0.4348
 3139TIP3    H1 9423   2.762   2.235   1.011  2.1202  0.2532 -0.2715
 3139TIP3    H2 9424   2.846   2.110   0.993  3.0083  0.3266  2.8791
 3140TIP3   OH2 9425   2.526   4.121   4.748  0.8984  0.1996 -0.0049
 3140TIP3    H1 9426   2.503   4.212   4.765  1.0184  0.0655  0.9557
 3140TIP3    H2 9427   2.446   4.072   4.770 -0.2241  0.2507 -3.3370
 3141TIP3   OH2 9428   1.231   1.209   1.683 -0.4578 -0.0335 -0.6306
 3141TIP3    H1 9429   1.280   1.258   1.749 -0.8409  0.4236 -0.6792
 3141TIP3    H2 9430   1.285   1.132   1.665  1.4643  1.6040 -2.4290
 3142TIP3   OH2 9431   5.924   4.964   2.154 -0.2763  0.2789  0.3590
 3142TIP3    H1 9432   5.833   4.961   2.182 -0.3812  2.2219  0.3949
 3142TIP3    H2 9433   5.968   5.019   2.219  1.6187 -2.8358  1.9507
 3143TIP3   OH2 9434   1.428   0.191   3.281  0.5846 -0.1263 -0.3577
 3143TIP3    H1 9435   1.438   0.263   3.342  0.5060 -0.9660  0.6859
 3143TIP3    H2 9436   1.423   0.232   3.194 -3.2734  1.4708  0.4208
 3144TIP3   OH2 9437   5.939   3.498   4.738  0.2811 -0.7323  0.0071
 3144TIP3    H1 9438   6.013   3.437   4.734 -0.1116 -1.3556  1.5073
 3144TIP3    H2 9439   5.961   3.558   4.809 -1.0995 -1.5810  1.2033
 3145TIP3   OH2 9440   5.870   3.976   4.261 -0.2587 -0.1200  0.1237
 3145TIP3    H1 9441   5.890   4.047   4.322 -0.8033  0.9854 -0.9499
 3145TIP3    H2 9442   5.874   4.016   4.175 -2.1147 -1.0140 -0.4292
 3146TIP3   OH2 9443   6.046   3.753   0.710  0.0816  0.4294  0.2772
 3146TIP3    H1 9444   6.040   3.843   0.679  0.1555  0.8252  1.3427
 3146TIP3    H2 9445   6.106   3.757   0.785  1.3707 -0.7984 -0.6448
 3147TIP3   OH2 9446   3.718   3.143   3.973  0.2256 -0.2695 -0.6289
 3147TIP3    H1 9447   3.808   3.144   3.941  0.4184 -0.7619 -0.1129
 3147TIP3    H2 9448   3.669   3.097   3.906  0.9165 -2.7925  0.4772
 3148TIP3   OH2 9449   3.233   3.077   4.876  0.1835 -0.4161 -0.6307
 3148TIP3    H1 9450   3.221   2.985   4.901  0.9187 -0.6212 -1.0105
 3148TIP3    H2 9451   3.304   3.109   4.932  1.6998 -0.8242 -2.2350
 3149TIP3   OH2 9452   4.476   5.800   3.907 -0.4795 -0.0292 -0.1471
 3149TIP3    H1 9453   4.493   5.849   3.827 -2.3171  1.0307  0.0502
 3149TIP3    H2 9454   4.551   5.819   3.963 -0.2404  1.0477 -0.8033
 3150TIP3   OH2 9455   1.330   4.669   1.104 -0.4871 -0.1277 -0.0226
 3150TIP3    H1 9456   1.325   4.764   1.094  0.3210 -0.1388 -0.6190
 3150TIP3    H2 9457   1.285   4.634   1.028 -0.6335 -0.2184  0.1066
 3151TIP3   OH2 9458   1.190   4.938   0.227 -0.5467 -0.2698  0.4757
 3151TIP3    H1 9459   1.230   5.024   0.237  0.0139 -0.3862 -0.5768
 3151TIP3    H2 9460   1.183   4.904   0.316  2.3105 -0.4946  0.7225
 3152TIP3   OH2 9461   0.720   4.310   3.143  0.3058 -0.4587 -0.2789
 3152TIP3    H1 9462   0.734   4.234   3.200 -2.0975 -0.6694  0.1405
 3152TIP3    H2 9463   0.702   4.272   3.057  1.6436 -0.2334 -0.6705
 3153TIP3   OH2 9464   2.446   2.098   0.486 -0.1800  0.9035 -0.4464
 3153TIP3    H1 9465   2.480   2.063   0.569  0.0702 -0.3688 -1.0550
 3153TIP3    H2 9466   2.367   2.146   0.511 -0.4217  0.0704  0.4748
 3154TIP3   OH2 9467   3.381   4.578   4.852 -0.0059 -0.1597 -0.2320
 3154TIP3    H1 9468   3.449   4.510   4.849  2.0582  1.7444  0.2618
 3154TIP3    H2 9469   3.378   4.612   4.763  0.1410  0.1314 -0.1305
 3155TIP3   OH2 9470   1.594   5.764   0.691 -0.1194 -0.0633 -0.1634
 3155TIP3    H1 9471   1.565   5.708   0.619 -0.5024  1.4541 -1.2639
 3155TIP3    H2 9472   1.626   5.843   0.648 -1.9608  1.6318  1.3382
 3156TIP3   OH2 9473   6.338   2.773   1.608 -0.0775  0.1117  0.1956
 3156TIP3    H1 9474   6.322   2.707   1.676 -2.3226 -1.9295 -2.0833
 3156TIP3    H2 9475   6.315   2.856   1.649 -0.9489 -0.9975  2.0769
 3157TIP3   OH2 9476   1.097   1.744   2.882 -0.2421 -0.0946 -0.2481
 3157TIP3    H1 9477   1.089   1.689   2.961 -3.1357 -0.0949 -0.4367
 3157TIP3    H2 9478   1.147   1.820   2.911 -1.2291 -0.0991  1.6105
 3158TIP3   OH2 9479   5.273   5.167   2.643 -0.0771  0.1941 -0.2283
 3158TIP3    H1 9480   5.194   5.178   2.590  0.9373  1.5443 -1.5336
 3158TIP3    H2 9481   5.266   5.234   2.711  0.8037  1.6562 -1.5060
 3159TIP3   OH2 9482   1.187   2.000   4.199 -0.1660 -0.3768 -0.3823
 3159TIP3    H1 9483   1.184   2.088   4.236 -2.4165 -0.5299 -0.0591
 3159TIP3    H2 9484   1.258   1.956   4.246  1.1554  1.2924 -0.7199
 3160TIP3   OH2 9485   0.765   5.257   4.353  0.0769 -0.4571 -0.1680
 3160TIP3    H1 9486   0.800   5.320   4.416 -0.1459  0.2866 -0.7742
 3160TIP3    H2 9487   0.715   5.310   4.292 -2.5864 -1.5465  0.9431
 3161TIP3   OH2 9488   5.884   4.250   3.079 -0.1150 -0.3157  0.3556
 3161TIP3    H1 9489   5.949   4.287   3.019 -1.0312  0.4015 -0.2387
 3161TIP3    H2 9490   5.803   4.295   3.056 -0.6846 -0.7034  1.5308
 3162TIP3   OH2 9491   5.242   3.924   0.440 -0.0203 -0.0356 -0.4837
 3162TIP3    H1 9492   5.198   3.981   0.378 -0.3801 -0.5653 -0.7196
 3162TIP3    H2 9493   5.225   3.835   0.408  1.2048 -0.2581 -0.5839
 3163TIP3   OH2 9494   0.894   3.112   2.855  0.5460 -0.1098  0.2680
 3163TIP3    H1 9495   0.830   3.041   2.859  1.4357 -0.8900  1.0559
 3163TIP3    H2 9496   0.841   3.191   2.843 -0.5713 -0.7266  0.9784
 3164TIP3   OH2 9497   2.531   2.741   5.192 -0.0252 -0.3402 -0.3490
 3164TIP3    H1 9498   2.615   2.788   5.195  0.1784 -0.6658 -0.8150
 3164TIP3    H2 9499   2.545   2.672   5.127 -0.6102 -0.4877 -0.3192
 3165TIP3   OH2 9500   0.879   3.336   4.631  0.3660 -0.0832 -0.0678
 3165TIP3    H1 9501   0.862   3.270   4.564 -0.1581 -0.9685  0.9125
 3165TIP3    H2 9502   0.969   3.364   4.614  0.3004 -0.3990 -1.0357
 3166TIP3   OH2 9503   6.153   5.071   0.700 -0.1441 -0.2408  0.0853
 3166TIP3    H1 9504   6.244   5.081   0.729  0.3949 -0.3568 -1.4731
 3166TIP3    H2 9505   6.151   4.988   0.654 -0.9698 -0.0790 -0.1924
 3167TIP3   OH2 9506   3.814   5.221   2.365  0.6532  0.3145  0.0910
 3167TIP3    H1 9507   3.730   5.239   2.324 -0.1290 -0.2401  1.4021
 3167TIP3    H2 9508   3.868   5.184   2.295  0.9869  3.6952 -1.6789
 3168TIP3   OH2 9509   4.285   4.922   0.472  0.2996 -0.0931 -0.1436
 3168TIP3    H1 9510   4.275   4.940   0.565 -2.6979 -0.6671 -0.2610
 3168TIP3    H2 9511   4.243   4.996   0.428  1.1575 -0.1201 -1.0446
 3169TIP3   OH2 9512   5.338   0.383   1.100  0.2258  0.6253  0.2076
 3169TIP3    H1 9513   5.250   0.351   1.120  1.2835 -2.6554  0.1605
 3169TIP3    H2 9514   5.356   0.449   1.167 -1.2652 -0.6294  1.9359
 3170TIP3   OH2 9515   0.494   3.108   3.746 -0.4017 -0.4854 -0.0439
 3170TIP3    H1 9516   0.457   3.021   3.754  1.8204 -1.4428  0.6646
 3170TIP3    H2 9517   0.584   3.099   3.778 -0.2281  2.1686  0.4658
 3171TIP3   OH2 9518   4.595   1.755   1.843 -0.5108 -0.0099  0.0169
 3171TIP3    H1 9519   4.574   1.847   1.829 -0.6948 -0.3693 -2.4073
 3171TIP3    H2 9520   4.689   1.749   1.831 -0.6936 -0.3519 -1.4316
 3172TIP3   OH2 9521   1.711   5.560   0.829  0.2046  0.3917 -0.1846
 3172TIP3    H1 9522   1.625   5.519   0.843  0.3643 -0.4019 -1.3461
 3172TIP3    H2 9523   1.691   5.650   0.806 -0.2554  0.5069  0.6198
 3173TIP3   OH2 9524   4.370   0.921   4.791  0.7843  0.1114  0.5409
 3173TIP3    H1 9525   4.301   0.856   4.782 -0.2681  1.3847 -1.3548
 3173TIP3    H2 9526   4.335   0.985   4.854  0.0987  0.8483 -0.5500
 3174TIP3   OH2 9527   2.040   5.133   2.604  0.3200  0.5956 -0.2019
 3174TIP3    H1 9528   2.029   5.146   2.699  0.4574 -1.7145  0.1822
 3174TIP3    H2 9529   2.112   5.071   2.597 -0.3976 -0.0870 -1.7802
 3175TIP3   OH2 9530   4.493   1.984   1.738 -0.1033 -0.3219  0.3592
 3175TIP3    H1 9531   4.423   2.044   1.764  0.2465  0.4250 -0.3670
 3175TIP3    H2 9532   4.574   2.032   1.756  0.2314 -1.1747  1.1847
 3176TIP3   OH2 9533   4.466   0.711   2.835 -0.2426  0.1017 -0.0271
 3176TIP3    H1 9534   4.388   0.753   2.798 -0.0634  0.4531 -0.0158
 3176TIP3    H2 9535   4.443   0.618   2.841 -0.7592  0.2400  0.2316
 3177TIP3   OH2 9536   2.103   3.845   1.100  0.2764  0.1857  0.0865
 3177TIP3    H1 9537   2.021   3.884   1.131 -0.7614 -1.3008 -0.6817
 3177TIP3    H2 9538   2.128   3.783   1.169 -0.3640 -0.8473 -0.5839
 3178TIP3   OH2 9539   2.291   4.732   1.070  0.1853 -0.2389  0.1342
 3178TIP3    H1 9540   2.366   4.740   1.130 -0.3211  0.2261  0.7227
 3178TIP3    H2 9541   2.316   4.663   1.009  0.8175 -0.5511  0.7328
 3179TIP3   OH2 9542   3.640   0.407   4.373 -0.6156  0.1599 -0.0311
 3179TIP3    H1 9543   3.709   0.452   4.422 -0.2308 -0.6873  0.2177
 3179TIP3    H2 9544   3.561   0.420   4.426 -0.7458  1.4472 -0.5006
 3180TIP3   OH2 9545   2.551   2.996   3.853  0.3332 -0.3523  0.1239
 3180TIP3    H1 9546   2.508   2.964   3.933  0.0407 -2.0363 -0.6561
 3180TIP3    H2 9547   2.480   3.039   3.804  0.5729  0.9349  0.8571
 3181TIP3   OH2 9548   1.493   3.175   2.488  0.5160 -0.3007 -0.3033
 3181TIP3    H1 9549   1.410   3.187   2.442  1.0735 -0.6271 -1.4221
 3181TIP3    H2 9550   1.478   3.099   2.544  0.0584 -0.3476 -0.4826
 3182TIP3   OH2 9551   1.521   5.544   0.421  0.0843 -0.4548  0.3507
 3182TIP3    H1 9552   1.450   5.485   0.447 -0.6153 -0.6403 -1.8263
 3182TIP3    H2 9553   1.479   5.610   0.366  1.1237  1.2348  1.4925
 3183TIP3   OH2 9554   3.108   2.144   0.803  0.4707  0.0927 -0.0253
 3183TIP3    H1 9555   3.186   2.197   0.821 -0.3816  1.4089 -0.0319
 3183TIP3    H2 9556   3.060   2.195   0.737 -0.1741 -0.9150 -0.3564
 3184TIP3   OH2 9557   3.214   0.290   1.654 -0.4075 -0.7376  0.2783
 3184TIP3    H1 9558   3.237   0.207   1.612 -0.5906 -0.7732  0.2495
 3184TIP3    H2 9559   3.277   0.299   1.725  1.3189  0.3486 -1.2848
 3185TIP3   OH2 9560   5.689   3.160   2.085  0.2143 -0.3044 -0.5080
 3185TIP3    H1 9561   5.657   3.071   2.091 -0.3560 -0.0597  0.2194
 3185TIP3    H2 9562   5.778   3.152   2.051 -0.2548 -1.0587 -1.6288
 3186TIP3   OH2 9563   5.612   5.182   0.850  0.3013 -0.0804 -0.0294
 3186TIP3    H1 9564   5.561   5.262   0.837  2.5198  1.4512  0.2482
 3186TIP3    H2 9565   5.687   5.191   0.792  0.7664 -1.8505  0.2360
 3187TIP3   OH2 9566   5.654   5.798   1.446 -0.1362  0.0357  0.1796
 3187TIP3    H1 9567   5.743   5.764   1.450  0.0066  0.3281 -0.3797
 3187TIP3    H2 9568   5.661   5.889   1.474 -0.3783 -0.1404  0.8264
 3188TIP3   OH2 9569   0.029   1.661   4.383 -0.4756  0.1187  0.0061
 3188TIP3    H1 9570  -0.026   1.591   4.419 -2.1161  1.4485  0.2494
 3188TIP3    H2 9571   0.028   1.729   4.451  1.1523  0.3565 -0.1845
 3189TIP3   OH2 9572   6.132   1.179   4.799 -0.6961  0.8427 -0.0208
 3189TIP3    H1 9573   6.218   1.220   4.794  0.1014 -0.8145 -0.8634
 3189TIP3    H2 9574   6.149   1.094   4.841 -2.1175  0.9465  0.8379
 3190TIP3   OH2 9575   1.390   0.011   3.490 -0.0763  0.0291  0.2585
 3190TIP3    H1 9576   1.416   0.078   3.426  1.4928 -1.2755 -0.5589
 3190TIP3    H2 9577   1.296   0.025   3.502 -0.0253  1.6119 -0.7760
 3191TIP3   OH2 9578   5.293   3.068   4.667  0.5154  0.5271 -0.6179
 3191TIP3    H1 9579   5.306   2.973   4.673  0.0563  0.3685 -1.8394
 3191TIP3    H2 9580   5.355   3.104   4.730 -0.2254 -0.6332  0.8332
 3192TIP3   OH2 9581   6.020   2.062   1.561  0.2278  0.2109  0.0180
 3192TIP3    H1 9582   6.008   2.136   1.501  0.3495  0.1603 -0.0703
 3192TIP3    H2 9583   6.100   2.083   1.609  0.4822 -0.0530 -0.2893
 3193TIP3   OH2 9584   4.541   0.387   2.531 -0.3241  0.2412  0.4967
 3193TIP3    H1 9585   4.448   0.366   2.521 -0.3823  0.8794 -0.4011
 3193TIP3    H2 9586   4.571   0.406   2.442  0.5467  0.5497  0.8470
 3194TIP3   OH2 9587   2.173   5.812   5.194  0.6359 -0.4969  0.0035
 3194TIP3    H1 9588   2.227   5.843   5.122  0.1387 -0.2498 -0.2717
 3194TIP3    H2 9589   2.110   5.883   5.209 -0.0866 -1.0910 -0.1821
 3195TIP3   OH2 9590   0.107   5.234   5.047  0.1673  0.1903 -0.3749
 3195TIP3    H1 9591   0.202   5.246   5.039  0.1672 -0.5104 -1.7741
 3195TIP3    H2 9592   0.078   5.310   5.097  1.6473 -0.3924  1.5409
 3196TIP3   OH2 9593   3.886   0.855   4.411 -0.2839 -0.4738 -0.4742
 3196TIP3    H1 9594   3.887   0.802   4.332 -1.5348 -0.5869 -0.4296
 3196TIP3    H2 9595   3.978   0.864   4.436  0.0147 -1.6478 -1.1290
 3197TIP3   OH2 9596   4.131   0.340   1.780  0.4031  0.5022  0.1325
 3197TIP3    H1 9597   4.086   0.293   1.710  2.0680 -0.2136 -0.4865
 3197TIP3    H2 9598   4.222   0.346   1.752  1.3572 -0.6776  2.6313
 3198TIP3   OH2 9599   5.030   3.191   4.286  0.5157 -0.5891  0.0187
 3198TIP3    H1 9600   5.039   3.097   4.275  0.0178 -0.7448  0.9296
 3198TIP3    H2 9601   5.100   3.215   4.347  1.1469 -0.2336 -0.8158
 3199TIP3   OH2 9602   5.331   2.669   1.590 -0.5000  0.0122 -0.2867
 3199TIP3    H1 9603   5.285   2.656   1.673  0.8035 -0.3467  0.4106
 3199TIP3    H2 9604   5.274   2.728   1.540 -2.0958 -1.0434  0.1963
 3200TIP3   OH2 9605   5.737   5.698   2.712  0.0441  0.1283  0.4774
 3200TIP3    H1 9606   5.712   5.788   2.694  0.6614  0.3388  0.6419
 3200TIP3    H2 9607   5.730   5.689   2.807 -0.9409 -0.2881  0.3753
 3201TIP3   OH2 9608   3.647   2.455   3.598 -0.0730 -0.1337 -0.3162
 3201TIP3    H1 9609   3.613   2.368   3.620  2.0760 -0.8663  0.3507
 3201TIP3    H2 9610   3.740   2.440   3.582  0.2459  1.9918 -0.6235
 3202TIP3   OH2 9611   5.761   1.494   5.104  0.5024 -0.1656 -0.5174
 3202TIP3    H1 9612   5.838   1.488   5.048 -1.1243 -1.2277 -2.7772
 3202TIP3    H2 9613   5.745   1.404   5.133 -0.7735 -0.2298 -1.3693
 3203TIP3   OH2 9614   2.980   3.206   4.874 -0.2922 -0.2183  0.0182
 3203TIP3    H1 9615   3.061   3.158   4.858  1.7496  2.0545  2.4801
 3203TIP3    H2 9616   2.949   3.172   4.958 -0.2706  0.8394  0.4753
 3204TIP3   OH2 9617   0.094   0.774   0.220 -0.0308 -0.0245 -0.4191
 3204TIP3    H1 9618   0.042   0.700   0.187 -0.3419  0.1446 -0.3128
 3204TIP3    H2 9619   0.041   0.811   0.290  0.4536 -0.1358  0.0088
 3205TIP3   OH2 9620   2.726   3.854   0.337  0.7569  0.5503 -0.4566
 3205TIP3    H1 9621   2.793   3.850   0.269  1.3759 -0.1198  0.1807
 3205TIP3    H2 9622   2.753   3.788   0.402 -0.6557  0.0748 -0.3203
 3206TIP3   OH2 9623   4.841   4.637   3.736  0.1561  0.8882  0.1172
 3206TIP3    H1 9624   4.780   4.597   3.673  0.0117 -0.3943  1.0173
 3206TIP3    H2 9625   4.786   4.695   3.788 -1.1296 -2.4429  2.8930
 3207TIP3   OH2 9626   1.879   3.523   2.392  0.3660 -0.2922  0.2239
 3207TIP3    H1 9627   1.875   3.574   2.473 -1.4327 -0.2625  0.1556
 3207TIP3    H2 9628   1.861   3.433   2.419  2.2129 -0.7354  0.1536
 3208TIP3   OH2 9629   2.908   5.857   0.893  0.7494  0.0661  0.1047
 3208TIP3    H1 9630   2.853   5.936   0.889  1.7866  0.7866 -0.2596
 3208TIP3    H2 9631   2.992   5.888   0.925  1.0275 -0.9913  0.4379
 3209TIP3   OH2 9632   5.444   2.260   0.431 -0.2068  0.1935 -0.5201
 3209TIP3    H1 9633   5.390   2.251   0.352  1.1433 -0.5043 -1.4167
 3209TIP3    H2 9634   5.529   2.223   0.406  0.7136  1.2912  0.8115
 3210TIP3   OH2 9635   1.605   2.370   4.893  0.3481  0.0641  0.4183
 3210TIP3    H1 9636   1.517   2.399   4.916  0.7460 -1.0193  3.8890
 3210TIP3    H2 9637   1.662   2.421   4.950  1.7448 -1.2245  0.2289
 3211TIP3   OH2 9638   4.733   2.163   1.436 -0.2942  0.5439 -0.2819
 3211TIP3    H1 9639   4.646   2.130   1.412 -0.4065 -0.1939  1.0180
 3211TIP3    H2 9640   4.783   2.085   1.457  1.3189  0.7946 -2.7617
 3212TIP3   OH2 9641   2.919   2.169   0.523 -0.0536 -0.4937  0.1639
 3212TIP3    H1 9642   2.841   2.163   0.578 -0.3693 -0.1777 -0.2383
 3212TIP3    H2 9643   2.917   2.090   0.469 -0.2061 -0.3832  0.0093
 3213TIP3   OH2 9644   2.044   3.312   1.661  0.4254 -0.6458  0.1037
 3213TIP3    H1 9645   2.109   3.278   1.722  1.2773  0.4210 -0.1613
 3213TIP3    H2 9646   2.081   3.396   1.631 -1.0788  0.0049 -0.0402
 3214TIP3   OH2 9647   1.166   1.158   4.315  1.0709 -0.2768 -0.5467
 3214TIP3    H1 9648   1.075   1.175   4.338  1.6805  2.8225 -0.0270
 3214TIP3    H2 9649   1.163   1.075   4.267 -1.8659 -0.7245  0.2019
 3215TIP3   OH2 9650   2.020   4.453   4.464 -0.6847 -0.1117 -0.2056
 3215TIP3    H1 9651   1.982   4.497   4.540  0.1562 -1.2132  0.9007
 3215TIP3    H2 9652   1.950   4.396   4.432 -1.3998  1.1483 -0.9505
 3216TIP3   OH2 9653   1.509   2.342   1.601 -0.2739 -0.5483 -0.1263
 3216TIP3    H1 9654   1.553   2.260   1.624 -1.1498 -1.1217 -0.4830
 3216TIP3    H2 9655   1.418   2.330   1.627 -0.6919 -0.1712 -1.3302
 3217TIP3   OH2 9656   1.675   0.781   4.121  0.6001 -0.1557 -0.5994
 3217TIP3    H1 9657   1.677   0.807   4.028  0.5282  2.4623  0.0561
 3217TIP3    H2 9658   1.767   0.781   4.147  0.5220  0.5204 -0.3227
 3218TIP3   OH2 9659   1.143   5.561   4.870  0.3038 -0.3179  0.0419
 3218TIP3    H1 9660   1.182   5.646   4.846  1.5330 -0.0297  2.6939
 3218TIP3    H2 9661   1.048   5.576   4.863  0.5012  1.1794  0.1296
 3219TIP3   OH2 9662   6.261   4.849   5.020  0.5681  0.1405 -0.1342
 3219TIP3    H1 9663   6.270   4.913   4.950 -1.3247  0.8154  0.1632
 3219TIP3    H2 9664   6.285   4.896   5.100 -0.5110  0.4170  0.0453
 3220TIP3   OH2 9665   0.304   3.008   4.969 -0.5432 -0.3372 -0.1198
 3220TIP3    H1 9666   0.251   2.954   4.910 -0.1431 -0.3114 -0.5061
 3220TIP3    H2 9667   0.240   3.048   5.028 -1.2201  1.3151 -1.8762
 3221TIP3   OH2 9668   0.457   1.186   0.224  0.2619  0.0990  0.2609
 3221TIP3    H1 9669   0.483   1.260   0.279 -0.1880  0.1726  0.3801
 3221TIP3    H2 9670   0.538   1.156   0.185  0.3859  0.9653 -0.1721
 3222TIP3   OH2 9671   2.747   0.269   3.085  0.6179 -0.4092  0.1624
 3222TIP3    H1 9672   2.661   0.256   3.126  0.5666 -1.3671 -0.2126
 3222TIP3    H2 9673   2.727   0.288   2.994  0.7803  0.2058  0.2538
 3223TIP3   OH2 9674   2.500   1.082   3.082 -0.3259 -0.0967 -0.2290
 3223TIP3    H1 9675   2.523   1.074   2.990 -2.4951 -2.1943 -0.6736
 3223TIP3    H2 9676   2.492   0.992   3.113 -0.0540  0.5604  1.9175
 3224TIP3   OH2 9677   0.322   2.272   4.622 -0.3853 -0.0652  0.1248
 3224TIP3    H1 9678   0.371   2.208   4.571  0.1267 -0.2616  0.8460
 3224TIP3    H2 9679   0.386   2.342   4.639 -0.4281 -0.1996  0.8497
 3225TIP3   OH2 9680   0.198   4.030   1.075 -0.4744  0.0955  0.0358
 3225TIP3    H1 9681   0.194   3.942   1.038 -1.9111 -0.0198  0.3747
 3225TIP3    H2 9682   0.152   4.022   1.159 -0.1960  1.0647  0.2887
 3226TIP3   OH2 9683   4.767   5.584   2.779  0.7139 -0.4600 -0.3224
 3226TIP3    H1 9684   4.788   5.642   2.852  1.3767 -2.0994  0.8341
 3226TIP3    H2 9685   4.682   5.546   2.802 -0.1975  0.7056 -1.5457
 3227TIP3   OH2 9686   0.206   1.866   2.005  0.1639 -0.1972 -0.1285
 3227TIP3    H1 9687   0.300   1.862   1.989  0.1287  1.0164 -0.8341
 3227TIP3    H2 9688   0.167   1.858   1.918 -0.3892 -0.8271  0.1734
 3228TIP3   OH2 9689   5.726   2.041   3.831  0.0664  0.1839  0.9326
 3228TIP3    H1 9690   5.655   1.976   3.831  0.5106 -0.3184  0.2812
 3228TIP3    H2 9691   5.775   2.023   3.912  0.8104 -1.0250  0.2597
 3229TIP3   OH2 9692   5.900   3.160   0.940  0.1205 -0.0122 -0.7259
 3229TIP3    H1 9693   5.807   3.156   0.917 -0.1303  2.4755 -0.4691
 3229TIP3    H2 9694   5.905   3.232   1.003  1.8263 -1.9956  1.5876
 3230TIP3   OH2 9695   1.448   3.568   1.795  0.4204 -0.3239  0.3202
 3230TIP3    H1 9696   1.420   3.658   1.810  1.8014 -0.1050  1.7386
 3230TIP3    H2 9697   1.388   3.515   1.848 -2.1803 -0.5806 -2.5701
 3231TIP3   OH2 9698   2.417   1.445   3.810  0.1214 -0.3707  0.0271
 3231TIP3    H1 9699   2.377   1.367   3.847  1.4924 -0.4985  1.3424
 3231TIP3    H2 9700   2.343   1.502   3.789 -0.8387 -1.5101  0.2030
 3232TIP3   OH2 9701   1.096   1.600   2.426 -0.0849  0.1599  0.3553
 3232TIP3    H1 9702   1.123   1.563   2.342  0.9173  0.0666  0.7026
 3232TIP3    H2 9703   1.006   1.630   2.412 -0.8982 -2.2394  0.0008
 3233TIP3   OH2 9704   5.270   4.740   1.840 -0.6545 -0.2214 -0.2933
 3233TIP3    H1 9705   5.300   4.649   1.835  0.1125 -0.0982  1.3029
 3233TIP3    H2 9706   5.273   4.761   1.933  1.3094  2.1166 -0.7707
 3234TIP3   OH2 9707   2.449   0.409   3.453  0.0078  0.1597  0.3939
 3234TIP3    H1 9708   2.362   0.385   3.486  0.2025  0.2376  0.9747
 3234TIP3    H2 9709   2.498   0.327   3.454 -0.7873 -0.4393 -2.3490
 3235TIP3   OH2 9710   2.079   2.124   4.614 -0.3661  0.2046 -0.2122
 3235TIP3    H1 9711   2.123   2.056   4.563 -0.4503  0.9227 -1.2877
 3235TIP3    H2 9712   1.992   2.088   4.632  0.0206 -0.4782  0.3428
 3236TIP3   OH2 9713   0.763   2.039   3.244  0.7970  0.4681  0.0174
 3236TIP3    H1 9714   0.756   2.106   3.312  1.4451 -0.5546  1.1369
 3236TIP3    H2 9715   0.831   1.980   3.276 -1.1742 -1.8889  0.1090
 3237TIP3   OH2 9716   3.925   1.546   3.080  0.0864  0.1705 -0.9685
 3237TIP3    H1 9717   3.896   1.502   3.160 -1.6645 -0.6312 -1.9802
 3237TIP3    H2 9718   3.993   1.606   3.109 -0.0635 -0.5408  1.0228
 3238TIP3   OH2 9719   4.628   2.342   4.203 -0.1496 -0.2098 -0.0823
 3238TIP3    H1 9720   4.634   2.253   4.169 -1.0549  0.3777 -1.9246
 3238TIP3    H2 9721   4.692   2.391   4.152  0.9703  0.0620  1.5192
 3239TIP3   OH2 9722   1.541   2.621   4.716  0.3516 -0.2829  0.5870
 3239TIP3    H1 9723   1.447   2.630   4.730  0.1708 -1.7743  0.5574
 3239TIP3    H2 9724   1.568   2.555   4.780  0.9987 -1.2723 -0.6497
 3240TIP3   OH2 9725   2.651   1.222   0.252 -0.0244  0.1611  0.1222
 3240TIP3    H1 9726   2.652   1.187   0.341  0.8405 -0.3391 -0.0608
 3240TIP3    H2 9727   2.587   1.167   0.205  0.5163 -0.4801  0.1123
 3241TIP3   OH2 9728   0.421   2.481   2.397  0.3435 -0.2038 -0.0795
 3241TIP3    H1 9729   0.490   2.444   2.452  1.6505 -0.8351 -2.0319
 3241TIP3    H2 9730   0.422   2.574   2.416  0.5319 -0.4421  1.1786
 3242TIP3   OH2 9731   4.183   3.983   0.486  0.5422 -0.0838 -0.0591
 3242TIP3    H1 9732   4.192   3.893   0.455  0.8416  0.1650 -0.7226
 3242TIP3    H2 9733   4.272   4.013   0.499  0.5503  0.7192 -1.6784
 3243TIP3   OH2 9734   1.818   5.811   1.334 -0.6643 -0.3808  0.5382
 3243TIP3    H1 9735   1.852   5.722   1.323 -1.2077 -0.5869  0.5128
 3243TIP3    H2 9736   1.896   5.865   1.346 -0.2855 -0.7387 -0.2953
 3244TIP3   OH2 9737   6.084   3.807   1.824 -0.4572 -0.4194  0.4991
 3244TIP3    H1 9738   6.077   3.881   1.884 -0.4894  0.7994 -0.9640
 3244TIP3    H2 9739   5.998   3.765   1.827 -0.1915 -0.9047  1.9338
 3245TIP3   OH2 9740   5.861   1.997   0.631 -0.2005 -0.2769  0.5539
 3245TIP3    H1 9741   5.775   1.960   0.608  0.0341 -0.6217  0.2368
 3245TIP3    H2 9742   5.894   1.939   0.700  0.9427 -1.7479 -1.1314
 3246TIP3   OH2 9743   3.103   1.530   2.835 -0.2545  0.3724  0.0812
 3246TIP3    H1 9744   3.087   1.520   2.928 -0.2692 -0.1219  0.0258
 3246TIP3    H2 9745   3.017   1.521   2.794 -0.3158  1.0234  0.0497
 3247TIP3   OH2 9746   4.820   5.179   1.561  0.0744  0.3540 -0.0887
 3247TIP3    H1 9747   4.914   5.178   1.578  0.3660  1.7516 -1.4046
 3247TIP3    H2 9748   4.804   5.106   1.502  0.3945  0.3513 -0.1709
 3248TIP3   OH2 9749   0.448   2.847   0.657  0.7696 -0.3043  0.0190
 3248TIP3    H1 9750   0.494   2.880   0.580 -1.0686 -0.0431 -1.0278
 3248TIP3    H2 9751   0.414   2.762   0.630 -0.5663  0.1340  0.2123
 3249TIP3   OH2 9752   2.048   4.433   2.681 -0.3170  0.0707  0.3052
 3249TIP3    H1 9753   2.106   4.506   2.663  1.2198 -1.1374  0.1367
 3249TIP3    H2 9754   2.105   4.366   2.719 -1.7604 -0.8762  0.8765
 3250TIP3   OH2 9755   6.151   0.834   4.489 -0.7648  0.0440  0.5262
 3250TIP3    H1 9756   6.140   0.770   4.558 -2.3707 -1.3410 -0.9227
 3250TIP3    H2 9757   6.071   0.886   4.490 -0.8893 -0.1052 -0.3691
 3251TIP3   OH2 9758   6.301   2.476   0.293 -0.1279 -0.1820  0.0396
 3251TIP3    H1 9759   6.229   2.518   0.246 -0.7471  0.0959  1.2011
 3251TIP3    H2 9760   6.354   2.549   0.326  2.3596 -0.3329 -3.1424
 3252TIP3   OH2 9761   2.969   1.122   0.727  0.6456 -0.3366 -0.0772
 3252TIP3    H1 9762   2.984   1.174   0.648 -0.7459  0.0178 -0.1391
 3252TIP3    H2 9763   2.876   1.100   0.724  0.2076  0.9040  2.1648
 3253TIP3   OH2 9764   4.866   4.678   4.597 -0.4664 -0.1168 -0.0911
 3253TIP3    H1 9765   4.909   4.602   4.559  2.9590  1.6948 -0.2626
 3253TIP3    H2 9766   4.773   4.657   4.596  0.2496 -3.8584 -0.9560
 3254TIP3   OH2 9767   4.185   4.481   1.695  0.6836  0.4268 -0.4173
 3254TIP3    H1 9768   4.206   4.571   1.669 -0.8495  0.4428 -1.7245
 3254TIP3    H2 9769   4.198   4.430   1.615 -0.0561 -0.2386 -0.1126
 3255TIP3   OH2 9770   4.971   0.487   1.435 -0.9772  0.0507 -0.8888
 3255TIP3    H1 9771   4.888   0.534   1.425  0.4266  2.9003 -0.3151
 3255TIP3    H2 9772   5.038   0.555   1.427  1.1795 -1.4505  2.2749
 3256TIP3   OH2 9773   5.942   0.857   1.581 -0.4375  0.0648  0.2018
 3256TIP3    H1 9774   5.953   0.913   1.505  0.4141  0.0620  0.3092
 3256TIP3    H2 9775   5.956   0.915   1.656  0.5943 -0.3030  0.3124
 3257TIP3   OH2 9776   2.216   0.328   3.595  0.0172  0.3084 -0.1093
 3257TIP3    H1 9777   2.190   0.364   3.680  0.2899 -0.2197  0.2033
 3257TIP3    H2 9778   2.166   0.247   3.587  0.6484 -0.0952 -0.0444
 3258TIP3   OH2 9779   1.038   4.636   0.296  0.3930  0.4230 -0.1070
 3258TIP3    H1 9780   1.032   4.605   0.387  0.3621  1.6866  0.3402
 3258TIP3    H2 9781   1.040   4.731   0.303  1.6267  0.5223 -1.3687
 3259TIP3   OH2 9782   4.363   4.185   2.529 -0.4488  0.0174  0.7669
 3259TIP3    H1 9783   4.428   4.141   2.475  0.7153 -0.1858  2.2622
 3259TIP3    H2 9784   4.279   4.165   2.487  0.2638 -1.5029 -0.0049
 3260TIP3   OH2 9785   4.089   0.612   3.708  0.7740 -0.0677  0.8930
 3260TIP3    H1 9786   4.042   0.545   3.757 -1.0947  1.0585  0.7303
 3260TIP3    H2 9787   4.077   0.587   3.616  4.3937 -2.2605  0.8312
 3261TIP3   OH2 9788   5.540   0.043   4.298 -0.1413 -0.2556  0.4711
 3261TIP3    H1 9789   5.499   0.016   4.217 -1.5377  0.5020  0.8999
 3261TIP3    H2 9790   5.481   0.012   4.367 -0.1728  1.0728  1.0876
 3262TIP3   OH2 9791   2.062   1.846   0.094  0.2391  0.2377 -0.9180
 3262TIP3    H1 9792   2.135   1.852   0.155 -1.0593  1.4572  0.5852
 3262TIP3    H2 9793   2.061   1.931   0.050 -0.0914  0.1053 -1.1684
 3263TIP3   OH2 9794   0.915   5.174   2.778  0.2663  0.2190 -0.2425
 3263TIP3    H1 9795   0.880   5.086   2.791 -1.0310  0.6705 -0.5425
 3263TIP3    H2 9796   0.873   5.228   2.845  1.3536  0.5536  0.1967
 3264TIP3   OH2 9797   3.900   0.529   3.179 -0.3855 -0.1803 -0.3072
 3264TIP3    H1 9798   3.866   0.619   3.177 -0.3166 -0.0335  2.0420
 3264TIP3    H2 9799   3.898   0.501   3.088 -0.8977  2.0193 -1.0480
 3265TIP3   OH2 9800   1.644   3.136   4.587  0.1461 -0.3964 -0.0425
 3265TIP3    H1 9801   1.635   3.047   4.620  0.1941 -0.4861 -0.2653
 3265TIP3    H2 9802   1.647   3.126   4.492  0.5630 -0.1924 -0.0542
 3266TIP3   OH2 9803   2.050   2.676   2.754  0.1430  0.5754 -0.0738
 3266TIP3    H1 9804   1.987   2.681   2.682  0.1216  0.6496 -0.0506
 3266TIP3    H2 9805   2.027   2.595   2.801  0.9712 -0.1558 -0.8948
 3267TIP3   OH2 9806   0.443   0.874   3.691  0.4146 -0.5652  0.4580
 3267TIP3    H1 9807   0.408   0.791   3.722  1.3481 -1.0369  0.2907
 3267TIP3    H2 9808   0.430   0.872   3.597  0.0204 -0.3153  0.5055
 3268TIP3   OH2 9809   0.493   5.565   3.569 -0.5855  0.9719  0.1033
 3268TIP3    H1 9810   0.467   5.657   3.566 -0.0927  1.0937 -2.1102
 3268TIP3    H2 9811   0.520   5.545   3.479 -0.5380 -1.2995  0.5737
 3269TIP3   OH2 9812   1.982   0.566   1.918 -0.7052  0.5638  0.0468
 3269TIP3    H1 9813   1.959   0.588   2.008 -2.4983 -2.0746  0.3308
 3269TIP3    H2 9814   1.910   0.600   1.865 -0.3801  0.8383 -0.2225
 3270TIP3   OH2 9815   2.147   1.458   4.846 -0.3470  0.2558 -0.1721
 3270TIP3    H1 9816   2.136   1.363   4.848  0.6548  0.1281 -0.4613
 3270TIP3    H2 9817   2.149   1.480   4.753  1.0460  0.3504 -0.1404
 3271TIP3   OH2 9818   4.863   0.537   2.128 -0.3808  0.3082  0.3277
 3271TIP3    H1 9819   4.881   0.470   2.062 -0.0812 -0.1508  0.8673
 3271TIP3    H2 9820   4.913   0.509   2.205  1.2536  2.1375 -0.0040
 3272TIP3   OH2 9821   3.963   4.082   0.850 -0.6091  0.4328  0.4151
 3272TIP3    H1 9822   3.943   4.106   0.760 -1.8625  0.0459  0.5666
 3272TIP3    H2 9823   4.048   4.039   0.846 -1.5576 -1.4330 -0.9235
 3273TIP3   OH2 9824   2.925   4.679   3.565 -1.1745  0.8590  0.6268
 3273TIP3    H1 9825   2.874   4.634   3.497 -1.7133  1.9173  0.3004
 3273TIP3    H2 9826   2.872   4.669   3.645 -0.8714  0.1911  0.7489
 3274TIP3   OH2 9827   2.939   5.507   1.309  0.3047 -0.3098  0.1267
 3274TIP3    H1 9828   2.998   5.574   1.342  1.7354 -1.5666  0.2455
 3274TIP3    H2 9829   2.852   5.535   1.336  1.1756 -0.1014  2.9541
 3275TIP3   OH2 9830   6.133   2.942   2.863 -0.7977 -0.6286 -0.3898
 3275TIP3    H1 9831   6.082   2.911   2.788 -1.7398  0.0439 -0.0411
 3275TIP3    H2 9832   6.116   2.879   2.933  0.2355 -1.3665 -0.7693
 3276TIP3   OH2 9833   6.050   4.789   0.224 -0.4002  0.1412  0.2135
 3276TIP3    H1 9834   6.006   4.792   0.139 -1.7826 -2.1382  0.7654
 3276TIP3    H2 9835   6.128   4.736   0.208 -0.9387 -0.7426  0.4406
 3277TIP3   OH2 9836   3.633   2.988   0.907  0.4799 -0.4403 -0.4719
 3277TIP3    H1 9837   3.549   2.955   0.938 -0.0795  0.2349 -1.2264
 3277TIP3    H2 9838   3.623   2.994   0.812  1.6242 -1.0035 -0.6495
 3278TIP3   OH2 9839   3.466   3.147   1.065 -0.2485 -0.7602 -0.6827
 3278TIP3    H1 9840   3.550   3.113   1.032 -0.4748 -2.1072  0.0582
 3278TIP3    H2 9841   3.473   3.241   1.054  1.7419 -0.7519  0.1751
 3279TIP3   OH2 9842   1.384   4.582   2.791 -0.4370 -0.3986  0.6628
 3279TIP3    H1 9843   1.290   4.599   2.794 -0.1402  1.4610  0.3174
 3279TIP3    H2 9844   1.399   4.542   2.705 -1.3318 -4.0541  1.9905
 3280TIP3   OH2 9845   6.278   3.570   1.559  0.0561  1.2905 -0.1223
 3280TIP3    H1 9846   6.352   3.515   1.535  1.1755  2.6830  0.0527
 3280TIP3    H2 9847   6.241   3.528   1.637 -0.1277 -0.0927 -0.9154
 3281TIP3   OH2 9848   5.780   1.642   0.192  0.1277  0.3169  0.4670
 3281TIP3    H1 9849   5.790   1.693   0.273  0.0784  0.5631  0.3220
 3281TIP3    H2 9850   5.837   1.687   0.129  0.2639  0.0501  0.4005
 3282TIP3   OH2 9851   1.515   3.541   3.076  0.0262 -0.0531  0.9014
 3282TIP3    H1 9852   1.451   3.569   3.142  0.0494 -0.2812  1.0240
 3282TIP3    H2 9853   1.504   3.603   3.004 -0.7987 -0.4894  0.6334
 3283TIP3   OH2 9854   1.471   2.678   0.823  0.1014  0.2823 -0.0037
 3283TIP3    H1 9855   1.537   2.690   0.892 -0.5632 -1.8195  1.1200
 3283TIP3    H2 9856   1.481   2.586   0.797 -0.3812  0.7506 -2.0041
 3284TIP3   OH2 9857   3.107   0.929   0.842 -0.2012  0.0536 -0.0199
 3284TIP3    H1 9858   3.134   0.883   0.762 -0.0452  0.8656 -0.4348
 3284TIP3    H2 9859   3.068   1.011   0.811 -2.5921 -0.7591  0.5726
 3285TIP3   OH2 9860   1.915   1.322   1.046  0.4007 -0.6505 -0.0858
 3285TIP3    H1 9861   1.834   1.272   1.036  0.3311 -0.2541 -1.7363
 3285TIP3    H2 9862   1.959   1.282   1.121 -0.3803 -2.1605 -0.4069
 3286TIP3   OH2 9863   3.111   2.340   2.854  0.2517  0.3189  1.1463
 3286TIP3    H1 9864   3.071   2.383   2.930 -2.2241 -1.6540  1.0913
 3286TIP3    H2 9865   3.075   2.386   2.779  1.4177  1.2188  1.1229
 3287TIP3   OH2 9866   2.547   4.893   2.359  0.1479 -0.7692 -0.0671
 3287TIP3    H1 9867   2.454   4.900   2.336 -0.2125 -1.6057  1.0728
 3287TIP3    H2 9868   2.547   4.881   2.454  1.4482 -0.5032 -0.0176
 3288TIP3   OH2 9869   2.134   2.948   1.234  0.4582 -0.8376 -0.5033
 3288TIP3    H1 9870   2.107   3.009   1.166 -1.3062 -0.2775  0.6454
 3288TIP3    H2 9871   2.104   2.987   1.316  0.8352 -2.4095  0.4406
 3289TIP3   OH2 9872   4.302   5.334   1.962  0.9769 -0.7529  0.1682
 3289TIP3    H1 9873   4.284   5.241   1.973  1.1921 -0.8223 -0.0556
 3289TIP3    H2 9874   4.219   5.378   1.984  0.8229 -1.0064  0.0944
 3290TIP3   OH2 9875   4.286   4.219   3.963 -0.0243 -0.0176 -0.1106
 3290TIP3    H1 9876   4.328   4.298   3.929  1.4659 -0.5823  0.3708
 3290TIP3    H2 9877   4.317   4.212   4.053 -0.7732 -0.7263  0.1029
 3291TIP3   OH2 9878   4.271   0.161   1.516 -0.2825 -0.5376 -0.4645
 3291TIP3    H1 9879   4.312   0.124   1.593  0.9318  0.0581 -0.8064
 3291TIP3    H2 9880   4.193   0.108   1.502  0.0307 -1.2869  0.5658
 3292TIP3   OH2 9881   3.751   4.497   4.661 -0.3404 -0.3378  0.6254
 3292TIP3    H1 9882   3.796   4.428   4.709 -1.1587 -0.9701  0.4974
 3292TIP3    H2 9883   3.716   4.453   4.584  0.7697  0.6162 -0.4618
 3293TIP3   OH2 9884   3.430   3.632   4.711  0.2569  0.3025 -0.0977
 3293TIP3    H1 9885   3.488   3.613   4.637  0.4823  1.2161 -0.1732
 3293TIP3    H2 9886   3.352   3.579   4.695 -0.1726  1.3380 -1.6097
 3294TIP3   OH2 9887   5.252   1.790   3.751  0.5383 -0.0065 -0.0641
 3294TIP3    H1 9888   5.243   1.724   3.682 -0.2207  0.3607 -0.3262
 3294TIP3    H2 9889   5.272   1.739   3.830 -0.3850 -0.5900 -0.1905
 3295TIP3   OH2 9890   0.417   2.842   0.365  1.1152  0.1603 -0.2694
 3295TIP3    H1 9891   0.384   2.854   0.276 -1.1194 -2.8269  0.0037
 3295TIP3    H2 9892   0.497   2.791   0.355  1.0046  0.0436 -0.5682
 3296TIP3   OH2 9893   0.734   1.877   2.270  0.1316 -0.0459  0.0183
 3296TIP3    H1 9894   0.647   1.848   2.300  0.3445  0.1471  0.8294
 3296TIP3    H2 9895   0.742   1.966   2.303  0.0704  0.4573 -1.2653
 3297TIP3   OH2 9896   4.579   1.538   0.915  0.2244 -0.7700  0.6068
 3297TIP3    H1 9897   4.570   1.452   0.955  1.6163 -1.0117  0.4470
 3297TIP3    H2 9898   4.585   1.599   0.989 -0.1156 -0.8854  0.7286
 3298TIP3   OH2 9899   2.964   5.725   4.282 -0.4170 -1.0449 -0.1273
 3298TIP3    H1 9900   2.983   5.698   4.372 -0.9387  0.3332  0.4311
 3298TIP3    H2 9901   2.987   5.818   4.280  1.6032 -1.5008 -2.0439
 3299TIP3   OH2 9902   0.759   1.407   0.141 -0.2088 -0.0819  0.6595
 3299TIP3    H1 9903   0.804   1.340   0.192  1.6756  0.8275  0.2672
 3299TIP3    H2 9904   0.799   1.402   0.054 -0.9622  0.6729  0.2532
 3300TIP3   OH2 9905   5.118   4.102   3.273  0.2226 -0.1203  0.5970
 3300TIP3    H1 9906   5.118   4.164   3.346 -1.1129  0.3581  0.2227
 3300TIP3    H2 9907   5.061   4.031   3.302 -0.9896  0.4619 -0.2638
 3301TIP3   OH2 9908   6.356   3.505   2.871 -0.0964 -0.1243 -0.2429
 3301TIP3    H1 9909   6.323   3.441   2.808 -0.2303 -1.0713  0.7754
 3301TIP3    H2 9910   6.285   3.516   2.934 -0.2124  1.3006 -0.5796
 3302TIP3   OH2 9911   4.106   2.166   4.297 -0.1129 -0.1342 -0.1966
 3302TIP3    H1 9912   4.100   2.128   4.210  0.7224  1.3185 -0.9317
 3302TIP3    H2 9913   4.135   2.256   4.282  0.8448 -0.0864  1.6312
 3303TIP3   OH2 9914   0.240   0.894   4.676  0.1456  0.5391 -0.2807
 3303TIP3    H1 9915   0.198   0.931   4.598 -1.2628  0.6852  0.5225
 3303TIP3    H2 9916   0.206   0.804   4.680 -0.1954  0.6924  0.4374
 3304TIP3   OH2 9917   0.766   4.713   0.145 -0.1300  0.1789  0.1541
 3304TIP3    H1 9918   0.803   4.634   0.105 -0.6620  0.8313 -1.7202
 3304TIP3    H2 9919   0.840   4.756   0.187  0.3133 -0.9148  0.5257
 3305TIP3   OH2 9920   3.335   3.607   2.592 -0.7835  0.1372 -0.0945
 3305TIP3    H1 9921   3.241   3.603   2.572 -0.8394  0.8086  0.0251
 3305TIP3    H2 9922   3.377   3.614   2.506 -0.7516 -1.4650 -0.2405
 3306TIP3   OH2 9923   5.352   2.439   4.447  0.4305  0.8227  0.0471
 3306TIP3    H1 9924   5.432   2.458   4.398  0.0878 -0.0522 -0.8898
 3306TIP3    H2 9925   5.293   2.512   4.426  1.0458  1.6263  0.9725
 3307TIP3   OH2 9926   2.511   3.220   1.774 -0.2674 -0.1133  0.6315
 3307TIP3    H1 9927   2.497   3.183   1.687  0.0111  1.7513 -0.2680
 3307TIP3    H2 9928   2.563   3.155   1.821 -0.2173 -1.0507 -0.6782
 3308TIP3   OH2 9929   4.632   2.867   2.956 -0.0882  0.5613 -0.1852
 3308TIP3    H1 9930   4.708   2.908   2.913 -1.3267  1.0047 -2.0763
 3308TIP3    H2 9931   4.609   2.927   3.026  0.8757  0.7645 -0.0219
 3309TIP3   OH2 9932   0.872   2.596   1.197 -0.2499  0.3718 -0.5559
 3309TIP3    H1 9933   0.960   2.587   1.233 -0.4210  0.2274 -0.1644
 3309TIP3    H2 9934   0.883   2.588   1.103 -0.0026 -0.9170 -0.4333
 3310TIP3   OH2 9935   2.872   1.411   3.443 -0.2674  0.4080 -0.0513
 3310TIP3    H1 9936   2.948   1.468   3.456 -1.6579  2.6885 -1.2283
 3310TIP3    H2 9937   2.897   1.328   3.483  1.6479  2.0095  2.4013
 3311TIP3   OH2 9938   2.713   5.884   0.140 -0.4552 -0.1829  0.9726
 3311TIP3    H1 9939   2.758   5.800   0.131  0.5611  0.3904  0.6091
 3311TIP3    H2 9940   2.632   5.873   0.090 -0.2789 -0.8979  0.8270
 3312TIP3   OH2 9941   5.130   5.125   4.801  0.0755  0.2471 -0.4893
 3312TIP3    H1 9942   5.212   5.115   4.849  0.3652 -0.3701 -1.0942
 3312TIP3    H2 9943   5.129   5.050   4.740 -1.0831  0.0656 -0.2636
 3313TIP3   OH2 9944   2.961   5.311   4.848 -0.0085  0.0007  0.4274
 3313TIP3    H1 9945   2.933   5.396   4.815  0.2239 -0.5510 -1.2732
 3313TIP3    H2 9946   3.039   5.330   4.900  0.1005  0.8154 -0.0195
 3314TIP3   OH2 9947   5.507   5.114   2.767  0.2489  0.1326  0.6851
 3314TIP3    H1 9948   5.571   5.124   2.696 -0.4342 -1.6538 -0.2393
 3314TIP3    H2 9949   5.422   5.125   2.724 -0.1335  0.6250  1.5504
 3315TIP3   OH2 9950   2.229   3.887   4.634  0.0293 -0.3705 -0.6297
 3315TIP3    H1 9951   2.195   3.976   4.642  0.1022 -0.3894 -0.0593
 3315TIP3    H2 9952   2.164   3.841   4.581  0.5211  0.2882 -1.8542
 3316TIP3   OH2 9953   3.961   0.874   2.534 -0.4431 -0.1942  0.2501
 3316TIP3    H1 9954   3.916   0.804   2.487 -1.8090  0.7776  0.0581
 3316TIP3    H2 9955   3.932   0.864   2.625  0.3212 -0.6096  0.4563
 3317TIP3   OH2 9956   5.538   2.250   3.892  0.5887  0.2815 -0.4990
 3317TIP3    H1 9957   5.465   2.192   3.912  0.6981  0.4397  0.4007
 3317TIP3    H2 9958   5.589   2.203   3.825 -0.2427  0.1108 -1.0263
 3318TIP3   OH2 9959   3.808   4.583   5.006 -0.2549  0.0220  0.3313
 3318TIP3    H1 9960   3.815   4.544   5.093 -0.6046  0.1882  0.4339
 3318TIP3    H2 9961   3.763   4.517   4.953 -1.0357  0.3604  0.5570
 3319TIP3   OH2 9962   0.657   1.718   4.692 -1.0768  0.1803 -0.7640
 3319TIP3    H1 9963   0.702   1.681   4.616  1.5836  0.2964  0.6283
 3319TIP3    H2 9964   0.653   1.646   4.755 -0.9979  0.7222 -0.1221
 3320TIP3   OH2 9965   0.237   2.047   4.447  0.2327 -0.2361 -0.6210
 3320TIP3    H1 9966   0.315   2.036   4.502  0.3914 -0.6842 -0.9257
 3320TIP3    H2 9967   0.235   1.968   4.393 -0.6404 -0.4049 -0.3664
 3321TIP3   OH2 9968   0.444   1.965   4.602 -0.2047 -0.4480 -1.1395
 3321TIP3    H1 9969   0.518   1.953   4.542  0.7023 -3.9718  0.4277
 3321TIP3    H2 9970   0.483   1.953   4.689 -1.8941  2.1524  0.0720
 3322TIP3   OH2 9971   0.259   5.377   3.885 -0.0392  0.2377  0.1517
 3322TIP3    H1 9972   0.212   5.458   3.868  0.5650  0.2120 -1.8127
 3322TIP3    H2 9973   0.240   5.321   3.810  1.4038 -0.5736  0.3486
 3323TIP3   OH2 9974   2.193   4.123   0.408 -0.4706 -0.5082 -0.9037
 3323TIP3    H1 9975   2.238   4.187   0.353 -0.3499 -1.3726 -1.8558
 3323TIP3    H2 9976   2.257   4.100   0.475 -0.9696  1.3185  0.2804
 3324TIP3   OH2 9977   5.765   3.572   3.678  0.1417  0.4504 -0.2917
 3324TIP3    H1 9978   5.688   3.564   3.621  0.0108 -0.5608  0.0078
 3324TIP3    H2 9979   5.779   3.667   3.685  0.1476  0.6082 -1.9724
 3325TIP3   OH2 9980   5.637   0.292   3.750  0.7393 -0.2717 -0.0552
 3325TIP3    H1 9981   5.702   0.280   3.819  0.9685 -1.4030 -0.4552
 3325TIP3    H2 9982   5.684   0.276   3.669 -0.0280 -1.1585 -0.3534
 3326TIP3   OH2 9983   1.389   1.611   0.176 -0.1576  0.1266 -0.0156
 3326TIP3    H1 9984   1.397   1.517   0.163 -0.1877 -0.0024  0.8586
 3326TIP3    H2 9985   1.418   1.650   0.093  0.5106 -0.6242 -0.1378
 3327TIP3   OH2 9986   0.345   5.168   0.132  0.1332 -0.3161 -0.0526
 3327TIP3    H1 9987   0.261   5.139   0.097  0.7820  0.7196 -2.6917
 3327TIP3    H2 9988   0.350   5.128   0.219 -2.6012 -1.2288 -0.2228
 3328TIP3   OH2 9989   0.383   4.864   1.205  0.9033  0.2064  0.1996
 3328TIP3    H1 9990   0.354   4.827   1.288 -1.7020  1.1608 -0.1930
 3328TIP3    H2 9991   0.341   4.950   1.201 -0.5623 -0.5070 -2.8399
 3329TIP3   OH2 9992   3.303   0.767   2.026  0.0097  0.2928 -0.2720
 3329TIP3    H1 9993   3.328   0.843   2.080 -1.3246  0.5640  0.0223
 3329TIP3    H2 9994   3.227   0.798   1.977  0.0608 -0.5605 -0.8949
 3330TIP3   OH2 9995   6.267   1.197   3.976 -0.8905 -0.2265 -0.3514
 3330TIP3    H1 9996   6.208   1.151   4.035 -0.4231  0.8405  1.0018
 3330TIP3    H2 9997   6.259   1.150   3.892 -2.7157 -0.8369  0.1157
 3331TIP3   OH2 9998   4.454   1.796   1.557 -0.0080 -0.3132 -0.2154
 3331TIP3    H1 9999   4.458   1.871   1.617  0.4923  2.2930 -3.2678
 3331TIP3    H210000   4.362   1.789   1.534 -0.1066 -0.9253  0.3209
 3332TIP3   OH210001   3.950   3.439   4.533 -0.5327  0.1186  0.2105
 3332TIP3    H110002   3.963   3.345   4.546 -0.0253  0.2081  0.3606
 3332TIP3    H210003   3.971   3.479   4.617  0.3959  0.4720 -0.1746
 3333TIP3   OH210004   5.076   2.404   2.971 -0.2877 -0.0026  0.1696
 3333TIP3    H110005   5.100   2.487   2.929  1.6502  0.5762  2.2178
 3333TIP3    H210006   4.984   2.391   2.948 -0.5696  2.5544 -0.4689
 3334TIP3   OH210007   3.356   4.217   0.336 -0.0266  0.3707 -0.3160
 3334TIP3    H110008   3.389   4.235   0.424 -1.8254 -0.6562  0.6161
 3334TIP3    H210009   3.278   4.272   0.329 -0.2120  0.0135 -1.0626
 3335TIP3   OH210010   5.422   3.419   4.510  0.0923 -0.1024  0.2296
 3335TIP3    H110011   5.389   3.503   4.479 -0.9737 -0.0786  1.3480
 3335TIP3    H210012   5.501   3.441   4.558 -1.7992  0.7473  3.2227
 3336TIP3   OH210013   4.557   3.651   5.106  0.2330 -0.1870  0.3347
 3336TIP3    H110014   4.474   3.612   5.081 -1.3731  1.9982  1.9010
 3336TIP3    H210015   4.553   3.740   5.071  1.6513  0.1550  0.9757
 3337TIP3   OH210016   5.869   3.587   0.596  0.4031 -0.2638 -0.2097
 3337TIP3    H110017   5.908   3.673   0.614 -1.9427  0.6456  0.9205
 3337TIP3    H210018   5.863   3.545   0.681 -0.3302 -0.6957 -0.4659
 3338TIP3   OH210019   6.193   4.538   2.927  0.1787  0.2336 -0.0033
 3338TIP3    H110020   6.175   4.445   2.939  0.7388  0.1735  0.3823
 3338TIP3    H210021   6.239   4.564   3.006  2.7174  0.1598 -1.3563
 3339TIP3   OH210022   6.110   0.100   4.748 -0.0303  0.0771  0.0576
 3339TIP3    H110023   6.042   0.142   4.800  0.6757  0.0048  1.0757
 3339TIP3    H210024   6.184   0.093   4.808 -0.4618 -3.7323  0.3420
 3340TIP3   OH210025   5.329   0.972   3.849 -0.6674  0.2878 -0.0235
 3340TIP3    H110026   5.303   1.026   3.924 -2.2355 -1.0654  0.4710
 3340TIP3    H210027   5.246   0.947   3.808  0.1342  0.2976 -1.7272
 3341TIP3   OH210028   4.366   5.732   3.019 -0.2376  0.3028 -0.3342
 3341TIP3    H110029   4.340   5.686   2.939 -1.8422  2.0472 -0.8896
 3341TIP3    H210030   4.451   5.770   2.998 -0.2021 -0.0473 -0.8543
 3342TIP3   OH210031   3.542   2.229   0.121  0.2451  0.1628  0.7346
 3342TIP3    H110032   3.481   2.162   0.091  0.5761 -0.9595  2.4867
 3342TIP3    H210033   3.627   2.186   0.123  1.4741  1.9926 -2.7519
 3343TIP3   OH210034   4.271   4.655   2.615 -0.2852  0.5798 -0.1054
 3343TIP3    H110035   4.284   4.750   2.622 -3.2863  1.0459  0.0812
 3343TIP3    H210036   4.267   4.638   2.521  0.6876  0.5194 -0.1523
 3344TIP3   OH210037   1.970   5.521   0.717  0.4442 -0.0944  0.3928
 3344TIP3    H110038   1.944   5.460   0.647  0.6881 -0.9169  1.0049
 3344TIP3    H210039   1.887   5.545   0.759  0.1598  1.3539 -0.9139
 3345TIP3   OH210040   5.477   4.755   3.397  0.3677 -0.1575 -0.2622
 3345TIP3    H110041   5.497   4.728   3.307 -2.3505 -0.2873 -0.9237
 3345TIP3    H210042   5.497   4.679   3.451 -0.0812 -0.8799 -1.0884
 3346TIP3   OH210043   0.397   5.717   0.246  0.7056 -0.0683 -0.1174
 3346TIP3    H110044   0.450   5.796   0.247 -0.2081  0.5518 -0.0974
 3346TIP3    H210045   0.438   5.660   0.311  0.6689  0.8494  0.7314
 3347TIP3   OH210046   4.767   0.987   2.671 -0.2374 -0.4610  0.4205
 3347TIP3    H110047   4.790   0.993   2.763 -0.8463 -0.8224  0.6029
 3347TIP3    H210048   4.803   1.066   2.631 -0.1761 -0.1901  1.0117
 3348TIP3   OH210049   1.735   1.955   0.227  0.8931 -0.0977  0.3301
 3348TIP3    H110050   1.796   1.965   0.301 -1.4743  2.6564  2.1422
 3348TIP3    H210051   1.703   1.865   0.234  3.9721 -1.3567 -0.1814
 3349TIP3   OH210052   3.329   3.001   1.903  0.1112  0.7499 -0.2547
 3349TIP3    H110053   3.380   2.925   1.875 -0.2487  0.3642  0.1319
 3349TIP3    H210054   3.312   3.049   1.823 -0.6367 -0.1777 -0.6665
 3350TIP3   OH210055   2.078   1.999   4.300  0.1297 -0.2027  0.3392
 3350TIP3    H110056   2.007   1.949   4.341  0.2791 -0.1815  0.6262
 3350TIP3    H210057   2.158   1.965   4.341  0.3591 -0.8140 -0.5914
 3351TIP3   OH210058   6.226   2.067   0.241 -0.1042  0.1931  0.1381
 3351TIP3    H110059   6.285   2.079   0.315  0.9026 -2.3504 -0.1731
 3351TIP3    H210060   6.169   2.144   0.244  1.5061  1.4243  2.0195
 3352TIP3   OH210061   1.639   3.160   3.268 -0.2531 -0.0411  0.4350
 3352TIP3    H110062   1.681   3.089   3.317  1.2259 -0.1077 -0.8510
 3352TIP3    H210063   1.655   3.238   3.321  2.7091  0.1520 -0.5623
 3353TIP3   OH210064   4.348   4.354   2.267  0.0351  0.1534 -0.3130
 3353TIP3    H110065   4.292   4.425   2.235  0.7140  1.2156  0.8133
 3353TIP3    H210066   4.286   4.290   2.303 -0.6622 -0.4760 -2.4758
 3354TIP3   OH210067   0.063   4.401   0.589 -0.1546  0.3129  0.4378
 3354TIP3    H110068   0.038   4.476   0.643  1.4550  0.8870  0.4467
 3354TIP3    H210069   0.022   4.325   0.632 -0.9143  1.0547  1.0462
 3355TIP3   OH210070   6.027   4.251   1.815 -0.0195  0.1117 -0.0819
 3355TIP3    H110071   6.038   4.290   1.729  0.7374  1.1940  0.4861
 3355TIP3    H210072   6.026   4.325   1.875 -0.1787 -0.6497  0.8808
 3356TIP3   OH210073   3.432   0.441   3.076  0.4605  0.0539  0.2103
 3356TIP3    H110074   3.405   0.356   3.112  0.9099 -0.1767  0.0079
 3356TIP3    H210075   3.382   0.505   3.127 -0.6082 -0.3613 -0.2748
 3357TIP3   OH210076   5.485   0.327   1.593  0.2137 -0.0772 -0.3462
 3357TIP3    H110077   5.414   0.388   1.577  0.3789 -0.2090 -1.6270
 3357TIP3    H210078   5.552   0.350   1.529  1.3720  0.0877  0.8657
 3358TIP3   OH210079   4.180   1.897   0.663 -0.0618 -0.0049 -0.1298
 3358TIP3    H110080   4.255   1.842   0.687  0.7112  0.8643 -0.4757
 3358TIP3    H210081   4.150   1.933   0.746 -0.7703 -1.1610  0.1405
 3359TIP3   OH210082   4.862   2.509   2.509  0.0564 -0.0554 -0.7584
 3359TIP3    H110083   4.943   2.558   2.520  1.0850 -1.7606 -0.3374
 3359TIP3    H210084   4.861   2.484   2.416 -0.0559  0.0876 -0.7954
 3360TIP3   OH210085   4.880   1.803   5.049  0.1510  0.4464  0.0972
 3360TIP3    H110086   4.826   1.848   5.115  2.0113  0.2308  1.8984
 3360TIP3    H210087   4.939   1.749   5.101  1.6969  0.2440 -1.7862
 3361TIP3   OH210088   0.180   0.138   3.724  0.0738  0.1704 -0.1782
 3361TIP3    H110089   0.132   0.135   3.807 -0.2414 -0.3612 -0.3810
 3361TIP3    H210090   0.148   0.063   3.675 -0.4825  1.0613 -1.2003
 3362TIP3   OH210091   1.332   4.011   0.278 -0.2042 -0.3642 -0.1777
 3362TIP3    H110092   1.398   4.080   0.272 -0.7440  0.1404 -0.3648
 3362TIP3    H210093   1.283   4.017   0.196 -0.5939 -0.6241  0.0322
 3363TIP3   OH210094   0.867   5.647   3.160  0.2500 -0.1915  0.2028
 3363TIP3    H110095   0.892   5.719   3.102  0.8854 -1.1970 -0.8434
 3363TIP3    H210096   0.949   5.599   3.175  0.0432 -0.1197  1.7379
 3364TIP3   OH210097   3.486   2.681   2.476  0.0077  0.0858 -0.0016
 3364TIP3    H110098   3.456   2.654   2.563 -0.9741 -0.4632 -0.4985
 3364TIP3    H210099   3.581   2.687   2.485 -0.0938  0.2823  1.1764
 3365TIP3   OH210100   6.244   4.265   1.180 -0.4166 -0.4285 -0.2294
 3365TIP3    H110101   6.224   4.227   1.095 -0.6169 -1.0169  0.0708
 3365TIP3    H210102   6.165   4.315   1.203 -0.2542 -0.0382 -0.5061
 3366TIP3   OH210103   3.670   2.143   4.795  0.1400 -0.4971 -0.2782
 3366TIP3    H110104   3.617   2.194   4.856  0.4269  0.6108 -0.9246
 3366TIP3    H210105   3.736   2.205   4.762  2.0981 -1.9086  0.7622
 3367TIP3   OH210106   0.548   1.163   4.523  0.8095  0.2946  0.8461
 3367TIP3    H110107   0.511   1.080   4.554 -0.1121 -0.1447 -1.2889
 3367TIP3    H210108   0.526   1.166   4.430  2.6809  1.9553  0.3916
 3368TIP3   OH210109   3.722   0.314   0.489 -0.1005 -0.0767  0.8908
 3368TIP3    H110110   3.742   0.347   0.577  0.6567 -1.2394  1.1799
 3368TIP3    H210111   3.700   0.222   0.503 -0.1419 -0.2267 -0.1246
 3369TIP3   OH210112   5.425   0.120   3.776  0.1693 -0.1462 -0.2272
 3369TIP3    H110113   5.501   0.177   3.785  0.9678 -1.3898  1.3880
 3369TIP3    H210114   5.383   0.149   3.695  3.0344 -0.1875 -1.8414
 3370TIP3   OH210115   2.673   1.800   1.460  0.2930 -0.1455 -0.3870
 3370TIP3    H110116   2.647   1.801   1.368 -0.5548  2.8431 -0.2251
 3370TIP3    H210117   2.593   1.775   1.507 -0.0782  1.0008 -0.3639
 3371TIP3   OH210118   4.373   5.715   4.769  0.2194 -0.3617  0.1538
 3371TIP3    H110119   4.387   5.623   4.791 -2.2421 -0.6994  0.5606
 3371TIP3    H210120   4.427   5.729   4.692 -0.1277 -2.4626 -0.5535
 3372TIP3   OH210121   0.533   3.395   0.998  0.5272  0.6390  0.1900
 3372TIP3    H110122   0.531   3.336   0.923  2.8158  0.3917  0.2522
 3372TIP3    H210123   0.470   3.357   1.060  1.4500 -1.4014 -0.0365
 3373TIP3   OH210124   4.446   5.450   0.623  0.3294  0.0706  0.2944
 3373TIP3    H110125   4.377   5.414   0.567 -0.2601  0.6788  0.6121
 3373TIP3    H210126   4.522   5.395   0.606 -0.2327 -0.6107 -0.0721
 3374TIP3   OH210127   4.905   2.148   3.523 -0.2440 -0.0303  0.1929
 3374TIP3    H110128   4.876   2.114   3.608  1.1999 -0.6607  0.4594
 3374TIP3    H210129   4.836   2.122   3.462 -0.2506 -1.5352  0.7989
 3375TIP3   OH210130   2.486   2.512   1.912 -0.4289  0.5040  0.3141
 3375TIP3    H110131   2.413   2.485   1.856 -0.7151  0.3721  0.7476
 3375TIP3    H210132   2.562   2.465   1.876 -0.1446  2.1452 -1.3595
 3376TIP3   OH210133   2.389   3.732   2.835  0.2593 -0.1618 -0.1641
 3376TIP3    H110134   2.480   3.741   2.807  0.2264  0.7138 -0.0021
 3376TIP3    H210135   2.390   3.753   2.928 -0.0644 -0.4364 -0.0957
 3377TIP3   OH210136   0.315   2.933   2.028 -0.3272  0.4147 -0.2024
 3377TIP3    H110137   0.303   2.856   2.083 -2.3715  0.7282 -0.1431
 3377TIP3    H210138   0.289   2.903   1.940 -1.3613  1.0812 -0.1321
 3378TIP3   OH210139   3.294   4.706   3.520 -0.5810 -0.0956 -0.3763
 3378TIP3    H110140   3.293   4.795   3.556 -0.1682 -0.3878  0.3844
 3378TIP3    H210141   3.230   4.658   3.573  1.7918 -1.1682  1.7421
 3379TIP3   OH210142   6.167   0.446   4.029 -0.0490 -0.1444 -1.0376
 3379TIP3    H110143   6.124   0.363   4.006  0.0897 -0.4315 -0.2851
 3379TIP3    H210144   6.109   0.513   3.994 -1.1882 -0.5177  0.0558
 3380TIP3   OH210145   0.646   5.439   4.172  0.8228 -0.0928 -0.2743
 3380TIP3    H110146   0.719   5.424   4.112  1.1037  1.2941 -0.3288
 3380TIP3    H210147   0.596   5.510   4.131  1.2854  1.2172  1.3294
 3381TIP3   OH210148   4.121   5.034   2.135 -0.1018 -0.3371  0.0873
 3381TIP3    H110149   4.172   5.095   2.189 -1.3697  1.4932 -0.6787
 3381TIP3    H210150   4.066   4.987   2.197 -0.8670  1.0734  0.5199
 3382TIP3   OH210151   0.547   0.515   0.341 -0.5406 -0.8986 -0.1459
 3382TIP3    H110152   0.616   0.571   0.378 -0.8512  0.8285 -2.0187
 3382TIP3    H210153   0.594   0.439   0.306  0.3676 -0.0553 -0.8180
 3383TIP3   OH210154   5.487   3.701   0.266 -0.3613  0.3467  0.6810
 3383TIP3    H110155   5.488   3.797   0.264 -0.0936  0.4519  2.9458
 3383TIP3    H210156   5.574   3.677   0.296 -0.5172 -0.5893  0.3968
 3384TIP3   OH210157   0.808   5.041   0.953  0.5141  0.3916 -0.9435
 3384TIP3    H110158   0.855   5.040   1.037 -0.6147  3.2155 -0.1424
 3384TIP3    H210159   0.733   4.984   0.967  1.0238 -0.1807 -0.4933
 3385TIP3   OH210160   2.384   1.523   2.321 -0.4952  0.3377  0.4544
 3385TIP3    H110161   2.398   1.523   2.415  0.2216  0.4047  0.3510
 3385TIP3    H210162   2.407   1.434   2.293  0.8783  0.7730  0.1250
 3386TIP3   OH210163   0.069   1.585   1.449 -0.5851 -0.1920  0.0723
 3386TIP3    H110164   0.088   1.570   1.541 -0.7399  1.0275  0.3146
 3386TIP3    H210165   0.063   1.680   1.440 -1.9817 -0.3413 -0.9128
 3387TIP3   OH210166   0.180   5.908   3.686 -0.2414  0.0735  0.1186
 3387TIP3    H110167   0.117   5.961   3.637 -1.2760 -0.8417  0.4306
 3387TIP3    H210168   0.213   5.967   3.754 -0.7881  0.5493 -0.0260
 3388TIP3   OH210169   6.061   1.600   4.521  0.2082 -0.4804 -0.1015
 3388TIP3    H110170   6.102   1.590   4.607  1.6194  1.6101 -0.4658
 3388TIP3    H210171   5.996   1.668   4.533  0.5038 -0.0867 -0.7161
 3389TIP3   OH210172   6.260   1.652   4.131 -0.3740  0.1163 -0.3432
 3389TIP3    H110173   6.195   1.593   4.170 -1.2128  0.7092 -0.8068
 3389TIP3    H210174   6.321   1.670   4.203 -1.0998  0.0795  0.3002
 3390TIP3   OH210175   1.486   0.453   3.874  0.1134  0.2845 -0.6810
 3390TIP3    H110176   1.562   0.415   3.830  0.4120 -2.1795  1.7064
 3390TIP3    H210177   1.419   0.385   3.869 -1.2435  1.5767 -0.8291
 3391TIP3   OH210178   1.462   3.064   0.501  0.1038 -0.5646 -0.2919
 3391TIP3    H110179   1.445   3.158   0.503 -1.1223 -0.7062 -1.8075
 3391TIP3    H210180   1.556   3.056   0.516  0.1231  0.8429  0.5112
 3392TIP3   OH210181   4.283   0.586   0.845  0.1229  0.3131 -0.2233
 3392TIP3    H110182   4.308   0.644   0.917 -0.8540 -1.3947  1.5914
 3392TIP3    H210183   4.286   0.498   0.883 -1.3054 -0.5925 -2.0334
 3393TIP3   OH210184   3.308   2.345   3.510  0.4766 -0.0849 -0.1414
 3393TIP3    H110185   3.360   2.281   3.558  1.5915  0.0719 -1.1070
 3393TIP3    H210186   3.303   2.421   3.568 -1.2943 -1.1850  1.2321
 3394TIP3   OH210187   5.595   1.413   0.129 -0.5331 -0.0790 -0.4339
 3394TIP3    H110188   5.662   1.471   0.164 -1.1369 -0.2763  1.1089
 3394TIP3    H210189   5.633   1.325   0.134  0.0666  0.0475 -2.0154
 3395TIP3   OH210190   3.358   0.184   3.143  0.3690 -0.7195  0.3713
 3395TIP3    H110191   3.401   0.100   3.160 -0.5012 -1.0309  1.1045
 3395TIP3    H210192   3.280   0.183   3.199  0.1978  0.4588  0.1794
 3396TIP3   OH210193   4.190   2.539   2.636  0.4837 -0.9671 -0.2665
 3396TIP3    H110194   4.208   2.594   2.712  1.5453 -1.6201 -0.0297
 3396TIP3    H210195   4.102   2.564   2.609  0.6474  0.3047  0.2942
 3397TIP3   OH210196   4.580   5.878   4.271 -0.9327 -0.2857 -0.3467
 3397TIP3    H110197   4.598   5.788   4.298 -1.7660 -0.4981 -0.4631
 3397TIP3    H210198   4.492   5.896   4.306 -1.4075 -0.0505 -1.6329
 3398TIP3   OH210199   3.235   3.717   2.868 -0.0461 -0.2769  0.4997
 3398TIP3    H110200   3.317   3.668   2.879  0.1006 -0.2543 -0.4013
 3398TIP3    H210201   3.227   3.769   2.948  1.0756  0.0810  0.4000
 3399TIP3   OH210202   5.515   0.636   1.689  0.3113 -0.4476 -0.2626
 3399TIP3    H110203   5.555   0.641   1.602  1.8545 -0.6383  0.4077
 3399TIP3    H210204   5.585   0.605   1.746 -0.5647  0.0493  1.1304
 3400TIP3   OH210205   2.715   4.943   3.684  0.5387 -0.2160  0.3225
 3400TIP3    H110206   2.687   4.950   3.593  2.1129 -1.8873 -0.3442
 3400TIP3    H210207   2.668   4.866   3.718  0.1052  0.2823  0.8733
 3401TIP3   OH210208   2.532   2.876   3.524 -0.2173 -0.4330 -0.1591
 3401TIP3    H110209   2.504   2.858   3.434 -0.2865 -0.0117 -0.2217
 3401TIP3    H210210   2.623   2.906   3.516 -0.8389  1.5710 -0.3000
 3402TIP3   OH210211   3.870   3.956   1.866 -0.4724 -0.0380  0.6587
 3402TIP3    H110212   3.881   4.051   1.866 -1.0998  0.0425  0.3011
 3402TIP3    H210213   3.814   3.939   1.942  1.2486 -0.3485  1.9290
 3403TIP3   OH210214   6.094   2.288   0.376  0.2104  0.1867 -0.4485
 3403TIP3    H110215   6.109   2.234   0.454 -2.5235 -0.0146  0.0292
 3403TIP3    H210216   6.143   2.368   0.393  0.8506 -0.4402  0.7942
 3404TIP3   OH210217   1.890   2.468   3.831 -0.0653 -0.2609  0.1961
 3404TIP3    H110218   1.904   2.558   3.803  2.1329 -0.0059  1.8482
 3404TIP3    H210219   1.914   2.415   3.755  0.9725  0.5206 -0.0427
 3405TIP3   OH210220   1.704   5.481   5.104 -0.4816  0.8050  0.1491
 3405TIP3    H110221   1.695   5.576   5.100  0.9395  0.9317 -0.6208
 3405TIP3    H210222   1.793   5.463   5.075 -0.3121 -0.6990  1.4078
 3406TIP3   OH210223   1.378   5.233   2.555  0.0939 -0.4922 -0.6523
 3406TIP3    H110224   1.353   5.143   2.535 -0.1814 -0.5049 -0.2600
 3406TIP3    H210225   1.472   5.228   2.576 -0.2826 -0.9825  1.0779
 3407TIP3   OH210226   5.120   2.267   1.555 -0.4759 -0.4258 -0.0284
 3407TIP3    H110227   5.195   2.218   1.521  0.3342  1.0565 -0.4883
 3407TIP3    H210228   5.134   2.269   1.650 -0.5542 -1.1162  0.0039
 3408TIP3   OH210229   0.924   0.609   0.831  0.5169  0.1618  0.1538
 3408TIP3    H110230   0.838   0.640   0.860  0.8412 -0.4545  1.9375
 3408TIP3    H210231   0.969   0.687   0.800  0.8109  1.3632  3.2084
 3409TIP3   OH210232   5.369   5.337   3.503  0.4544  0.2287  0.4250
 3409TIP3    H110233   5.351   5.350   3.409 -0.0139 -3.5315 -0.1614
 3409TIP3    H210234   5.464   5.342   3.510  0.4061  3.8229  0.5014
 3410TIP3   OH210235   3.769   5.064   4.756 -0.0005 -0.3620 -0.2341
 3410TIP3    H110236   3.766   5.093   4.847 -0.7406 -1.1652  0.0188
 3410TIP3    H210237   3.768   4.968   4.761 -0.4078 -0.4175 -1.0896
 3411TIP3   OH210238   3.170   5.121   1.460  0.1877 -0.4655  0.1621
 3411TIP3    H110239   3.160   5.056   1.390  1.2234 -0.9386  0.4347
 3411TIP3    H210240   3.190   5.202   1.413 -0.8502 -0.3878 -0.1666
 3412TIP3   OH210241   0.264   5.171   3.196  0.2597  0.0181 -0.2732
 3412TIP3    H110242   0.321   5.145   3.268  0.1580  1.2111  0.2621
 3412TIP3    H210243   0.253   5.266   3.207  0.5743  0.3065 -2.0920
 3413TIP3   OH210244   4.083   5.383   5.215 -0.1687  0.1003  0.1406
 3413TIP3    H110245   4.085   5.314   5.149 -2.5271  1.2670 -1.2587
 3413TIP3    H210246   4.153   5.443   5.189  0.2915 -0.5056 -0.0486
 3414TIP3   OH210247   3.604   0.682   5.201  0.2038  0.5717  0.3654
 3414TIP3    H110248   3.547   0.610   5.225  1.0259  0.0954  0.9090
 3414TIP3    H210249   3.652   0.651   5.124 -0.9245  1.3205 -0.6699
 3415TIP3   OH210250   0.703   5.486   2.700 -0.3025  0.1274 -0.0620
 3415TIP3    H110251   0.634   5.552   2.694 -0.9605 -0.6498 -1.5238
 3415TIP3    H210252   0.656   5.402   2.703  0.5560 -0.3765 -0.3207
 3416TIP3   OH210253   5.394   4.190   3.976 -0.5717 -0.2522 -0.5235
 3416TIP3    H110254   5.445   4.171   3.897 -0.9267 -1.3673 -0.5113
 3416TIP3    H210255   5.334   4.116   3.983 -0.6237 -0.1097  0.7288
 3417TIP3   OH210256   2.725   0.337   2.752  0.2253  0.0734  0.0666
 3417TIP3    H110257   2.697   0.247   2.732 -1.5705  0.5513  0.2855
 3417TIP3    H210258   2.644   0.384   2.770  1.2469  1.3838  1.4963
 3418TIP3   OH210259   6.004   2.892   4.575 -0.0379  0.2539  0.3117
 3418TIP3    H110260   6.045   2.836   4.509 -0.3589 -0.0524  0.3718
 3418TIP3    H210261   6.048   2.869   4.657  0.1924  0.4626  0.2483
 3419TIP3   OH210262   3.811   1.976   3.695 -0.9875  0.7451  0.3336
 3419TIP3    H110263   3.872   1.911   3.661 -0.3870  0.7116  1.4495
 3419TIP3    H210264   3.743   1.924   3.739 -1.1486  0.8350  0.1933
 3420TIP3   OH210265   3.812   4.370   3.419  0.2419  0.3451  0.1452
 3420TIP3    H110266   3.747   4.399   3.355 -1.6488 -1.0277  1.3336
 3420TIP3    H210267   3.775   4.399   3.503  2.3748  1.6049  0.7189
 3421TIP3   OH210268   2.081   4.311   3.256 -0.4032  0.4042 -0.3051
 3421TIP3    H110269   2.046   4.243   3.199 -0.7504 -0.6685  1.1373
 3421TIP3    H210270   2.033   4.390   3.232 -0.8069 -0.1031 -1.2136
 3422TIP3   OH210271   2.770   3.132   1.399 -0.4117  0.5301  0.0492
 3422TIP3    H110272   2.810   3.062   1.451 -2.5038  0.3415  1.5431
 3422TIP3    H210273   2.740   3.088   1.320 -1.9904 -0.4486  1.1084
 3423TIP3   OH210274   4.618   0.999   4.696 -0.2208  0.5286  0.2190
 3423TIP3    H110275   4.528   0.986   4.725  0.2772  0.1927  1.6770
 3423TIP3    H210276   4.654   1.065   4.755  0.9374 -0.4554  0.6593
 3424TIP3   OH210277   3.419   0.878   3.086  0.4213 -0.0151 -0.0402
 3424TIP3    H110278   3.350   0.939   3.110  2.0854  1.3468  1.5867
 3424TIP3    H210279   3.468   0.924   3.018  0.0337 -0.7670 -0.8381
 3425TIP3   OH210280   3.090   2.050   2.669  0.3511  0.2634 -0.1417
 3425TIP3    H110281   3.004   2.048   2.627  0.5092  1.3871 -0.5477
 3425TIP3    H210282   3.120   1.959   2.665 -1.2288 -0.3616  0.9154
 3426TIP3   OH210283   6.361   1.379   4.249 -0.4820  0.2175  0.0085
 3426TIP3    H110284   6.337   1.288   4.266 -1.4027  0.1938 -1.2546
 3426TIP3    H210285   6.281   1.418   4.214 -0.0164  1.4404  0.2880
 3427TIP3   OH210286   6.353   3.692   2.172 -0.0955 -0.2857 -0.1491
 3427TIP3    H110287   6.265   3.708   2.205 -0.7297 -2.3374 -0.6825
 3427TIP3    H210288   6.356   3.735   2.087 -1.0085 -1.1538 -0.6377
 3428TIP3   OH210289   2.778   3.877   2.912 -0.2128  0.0350  0.3001
 3428TIP3    H110290   2.716   3.863   2.840 -1.8573 -0.3458  1.7179
 3428TIP3    H210291   2.856   3.828   2.886 -0.5014  0.4432 -1.4998
 3429TIP3   OH210292   2.242   4.058   4.294 -0.1203 -0.4401  0.0522
 3429TIP3    H110293   2.329   4.068   4.332 -0.6282  0.2320  1.0715
 3429TIP3    H210294   2.257   4.008   4.214  1.2826  0.1815 -0.1075
 3430TIP3   OH210295   4.590   4.720   0.983 -0.4107  0.1887 -0.1654
 3430TIP3    H110296   4.594   4.663   0.907  2.0699  0.9891 -0.7503
 3430TIP3    H210297   4.499   4.750   0.987 -1.0145 -1.3240 -1.6865
 3431TIP3   OH210298   1.568   0.593   2.003 -0.1757 -0.0127 -0.1650
 3431TIP3    H110299   1.628   0.658   1.965 -1.5496  1.0499 -0.6421
 3431TIP3    H210300   1.592   0.588   2.095 -0.3826  1.6459  0.0101
 3432TIP3   OH210301   5.024   5.723   0.936  0.2092 -0.5122  0.0967
 3432TIP3    H110302   4.972   5.767   0.869  0.1885 -1.6815 -0.6903
 3432TIP3    H210303   5.113   5.758   0.925 -0.4099  1.7637  1.6877
 3433TIP3   OH210304   0.080   5.350   2.570 -0.3557 -0.9683  0.3402
 3433TIP3    H110305   0.155   5.409   2.561 -0.2173 -0.9915  1.2819
 3433TIP3    H210306   0.080   5.299   2.489 -0.7109  0.5659 -0.6703
 3434TIP3   OH210307   5.250   0.204   3.538  0.8235  0.0869  0.0797
 3434TIP3    H110308   5.235   0.291   3.575  0.2609 -0.2532  0.6575
 3434TIP3    H210309   5.259   0.219   3.444 -0.6028  0.6067  0.0156
 3435TIP3   OH210310   1.161   2.426   4.099 -0.2470  0.1125  0.4798
 3435TIP3    H110311   1.135   2.374   4.023  0.8193 -0.1176  0.2493
 3435TIP3    H210312   1.226   2.371   4.144 -1.0522  0.1269  1.7183
 3436TIP3   OH210313   4.593   0.817   1.077 -0.2388 -0.2447  1.0136
 3436TIP3    H110314   4.686   0.795   1.086  0.3882  0.7740 -1.7949
 3436TIP3    H210315   4.591   0.913   1.077 -0.9525 -0.2122 -0.9951
 3437TIP3   OH210316   0.543   1.762   0.706 -0.0047  0.4021 -0.1882
 3437TIP3    H110317   0.524   1.761   0.612  0.0576 -0.0290 -0.1979
 3437TIP3    H210318   0.508   1.679   0.738  1.6176 -0.3044 -0.1643
 3438TIP3   OH210319   5.955   1.638   1.238 -0.2412  0.2291  0.4880
 3438TIP3    H110320   6.005   1.684   1.170 -1.5310 -0.7305 -1.1923
 3438TIP3    H210321   5.915   1.564   1.193 -1.8488  0.0192  2.1193
 3439TIP3   OH210322   0.284   0.142   3.310 -0.0049  0.3502 -0.5706
 3439TIP3    H110323   0.248   0.149   3.221 -0.6097 -0.0446 -0.3595
 3439TIP3    H210324   0.227   0.198   3.363  0.9063  1.3332 -0.5772
 3440TIP3   OH210325   5.769   3.546   2.579  0.2953 -0.2622 -0.2290
 3440TIP3    H110326   5.692   3.491   2.597 -0.0186 -0.2945 -1.5962
 3440TIP3    H210327   5.841   3.501   2.624  0.2528 -2.3998 -2.1467
 3441TIP3   OH210328   3.036   0.185   3.071  0.0430  0.0325 -0.0452
 3441TIP3    H110329   2.945   0.214   3.075 -0.4867 -1.5876  0.2088
 3441TIP3    H210330   3.075   0.216   3.153 -0.7969 -0.9041  0.7245
 3442TIP3   OH210331   1.932   4.694   2.805 -0.2277  0.4323  0.0793
 3442TIP3    H110332   1.846   4.694   2.761  0.4772 -0.0149 -1.3742
 3442TIP3    H210333   1.970   4.609   2.783  0.7797  0.8117  0.3243
 3443TIP3   OH210334   5.041   2.915   3.663  0.0256 -0.2565 -0.5680
 3443TIP3    H110335   5.086   2.893   3.582 -2.3874  0.5869 -2.2506
 3443TIP3    H210336   4.988   2.992   3.641  0.1825  0.7467  2.1671
 3444TIP3   OH210337   1.070   3.053   4.765  0.2885 -0.3204 -0.1081
 3444TIP3    H110338   1.010   3.109   4.815 -0.7225  1.0896 -2.6537
 3444TIP3    H210339   1.014   2.984   4.730  0.9054 -1.0968  0.4145
 3445TIP3   OH210340   1.480   5.802   3.545  0.0384  0.3666 -0.2501
 3445TIP3    H110341   1.547   5.758   3.596  0.4860  2.5731  1.2056
 3445TIP3    H210342   1.431   5.731   3.502  1.7555 -1.3909  0.5661
 3446TIP3   OH210343   4.359   1.667   2.574 -0.1117 -0.2813 -0.2879
 3446TIP3    H110344   4.403   1.751   2.592  1.9974 -1.4111  0.2201
 3446TIP3    H210345   4.421   1.620   2.518 -1.0053 -1.6960 -0.1278
 3447TIP3   OH210346   3.638   2.179   0.889  0.1100  0.4953 -0.2243
 3447TIP3    H110347   3.623   2.087   0.869 -0.9552  0.7311 -0.5644
 3447TIP3    H210348   3.633   2.184   0.984  2.6412 -0.1911  0.0203
 3448TIP3   OH210349   2.724   4.226   4.129  1.0868  0.2242 -0.0007
 3448TIP3    H110350   2.696   4.296   4.188  0.5784  0.8179 -0.9105
 3448TIP3    H210351   2.794   4.181   4.176 -0.9920 -0.9927  2.1371
 3449TIP3   OH210352   1.148   4.504   4.197 -0.1319 -0.6252 -0.3682
 3449TIP3    H110353   1.130   4.579   4.254  0.9596 -0.0448 -0.7704
 3449TIP3    H210354   1.090   4.516   4.122 -0.7388 -0.7750  0.0682
 3450TIP3   OH210355   5.561   3.516   0.923  0.3786  0.4744  0.0008
 3450TIP3    H110356   5.645   3.561   0.919  0.1935  0.8095 -0.1189
 3450TIP3    H210357   5.511   3.564   0.990 -0.5117  1.6367 -1.4253
 3451TIP3   OH210358   4.991   2.825   1.807 -0.7060  0.1671  0.0357
 3451TIP3    H110359   4.960   2.744   1.766  0.4681  0.5253 -1.6823
 3451TIP3    H210360   4.938   2.894   1.768 -0.8664  0.3444  0.5621
 3452TIP3   OH210361   2.420   2.985   0.256  0.4655 -0.0331  0.1779
 3452TIP3    H110362   2.384   2.906   0.296 -1.2416  1.3269  1.4779
 3452TIP3    H210363   2.444   3.041   0.330 -1.0323  1.7994 -0.6615
 3453TIP3   OH210364   3.788   4.952   0.328 -0.2506 -0.1138  0.3303
 3453TIP3    H110365   3.726   5.019   0.299  2.5163  3.0489  1.1325
 3453TIP3    H210366   3.773   4.945   0.422 -0.2152 -0.3109  0.3222
 3454TIP3   OH210367   4.629   0.891   2.040 -0.0269 -0.2246  0.5887
 3454TIP3    H110368   4.537   0.874   2.060 -1.2121  1.9905 -2.3159
 3454TIP3    H210369   4.630   0.979   2.004  3.2267 -0.2860  0.2439
 3455TIP3   OH210370   4.146   0.905   3.781  0.4394 -0.4760 -0.0707
 3455TIP3    H110371   4.077   0.851   3.820  0.6696 -0.0060  1.0172
 3455TIP3    H210372   4.225   0.852   3.788  0.8364  0.2791  1.7690
 3456TIP3   OH210373   5.601   3.406   0.510 -0.3362 -0.3847  0.2634
 3456TIP3    H110374   5.657   3.368   0.442  0.3035  1.6061 -0.3977
 3456TIP3    H210375   5.659   3.419   0.584 -0.7416 -1.3923  0.7718
 3457TIP3   OH210376   5.311   0.021   1.931  0.6313  0.3526  0.2847
 3457TIP3    H110377   5.394  -0.017   1.902  1.8345  1.7775  1.6655
 3457TIP3    H210378   5.283   0.075   1.857 -0.5112 -2.1431 -1.2366
 3458TIP3   OH210379   1.393   4.517   0.795 -0.2537  0.3598 -0.0843
 3458TIP3    H110380   1.454   4.585   0.821 -0.4075  0.4266  0.1085
 3458TIP3    H210381   1.429   4.481   0.714 -0.2323  0.7486 -0.2514
 3459TIP3   OH210382   3.222   0.762   2.460  0.0170  0.2225  0.1277
 3459TIP3    H110383   3.183   0.675   2.452 -0.1802  0.1951  1.2587
 3459TIP3    H210384   3.167   0.808   2.524  1.0624  0.6331  0.7535
 3460TIP3   OH210385   0.932   5.911   0.105 -0.7932  0.3222  0.3736
 3460TIP3    H110386   0.863   5.977   0.092 -1.1163 -0.3803 -1.8573
 3460TIP3    H210387   0.937   5.865   0.022  5.0190  2.7802 -1.1152
 3461TIP3   OH210388   3.491   5.282   2.713 -0.1459  0.3190  0.0125
 3461TIP3    H110389   3.563   5.230   2.679 -0.1260 -0.1989  0.8076
 3461TIP3    H210390   3.418   5.267   2.653  0.0885 -0.0236 -0.1831
 3462TIP3   OH210391   2.324   0.610   0.209 -0.2974 -0.3154 -0.1074
 3462TIP3    H110392   2.377   0.610   0.130 -0.7005  0.7723 -0.3959
 3462TIP3    H210393   2.361   0.682   0.262 -0.7551 -0.2958  0.1889
 3463TIP3   OH210394   0.448   0.376   2.186  0.0677  0.4947 -0.2281
 3463TIP3    H110395   0.438   0.282   2.169 -1.1444  0.8041 -1.4034
 3463TIP3    H210396   0.444   0.384   2.282 -0.1791 -0.6061 -0.1374
 3464TIP3   OH210397   5.577   2.024   1.304  0.5593  0.0352  0.2334
 3464TIP3    H110398   5.630   2.074   1.242  1.8252  0.1890  1.3780
 3464TIP3    H210399   5.617   1.937   1.304  0.4997  0.0059  0.7313
 3465TIP3   OH210400   2.246   3.164   4.122 -0.5221  0.3832 -0.3134
 3465TIP3    H110401   2.331   3.207   4.126 -0.5612  0.5259 -0.9535
 3465TIP3    H210402   2.226   3.157   4.029 -0.8481 -0.3791 -0.1980
 3466TIP3   OH210403   4.702   3.793   4.071 -0.2605  0.0151  0.3462
 3466TIP3    H110404   4.677   3.858   4.137 -0.5332  0.1527  0.1107
 3466TIP3    H210405   4.677   3.833   3.988 -0.7938 -0.5470  0.2234
 3467TIP3   OH210406   1.973   4.003   4.370  0.4311 -0.0908 -0.7753
 3467TIP3    H110407   1.987   3.920   4.416  1.0055  1.3438  1.8469
 3467TIP3    H210408   2.061   4.039   4.359  0.0226  1.6988  1.2933
 3468TIP3   OH210409   3.568   0.348   1.275  0.0955 -0.0138  0.2722
 3468TIP3    H110410   3.617   0.302   1.343  0.8573  0.9600  0.3936
 3468TIP3    H210411   3.521   0.417   1.322  3.5979  3.1907 -0.5253
 3469TIP3   OH210412   0.081   3.423   0.329  0.3598 -0.0639  0.6265
 3469TIP3    H110413   0.091   3.476   0.409 -2.1762 -1.4447  1.9787
 3469TIP3    H210414  -0.009   3.440   0.301  0.1531 -2.0950 -0.0572
 3470TIP3   OH210415   4.469   1.836   1.107  0.3454 -0.3487 -0.0496
 3470TIP3    H110416   4.374   1.845   1.110  0.3032 -0.9510  0.8369
 3470TIP3    H210417   4.501   1.906   1.164  0.3914 -0.6636  0.3142
 3471TIP3   OH210418   0.202   0.606   2.297 -0.8696  0.5720 -0.2357
 3471TIP3    H110419   0.188   0.528   2.242 -1.7653  1.0647 -0.7151
 3471TIP3    H210420   0.297   0.614   2.301 -0.7723 -0.1090 -0.8137
 3472TIP3   OH210421   3.693   0.844   2.101  0.2501  0.6585 -0.4080
 3472TIP3    H110422   3.606   0.881   2.120  0.8426  2.6689 -1.3375
 3472TIP3    H210423   3.675   0.774   2.038 -0.8884 -0.5645  1.1847
 3473TIP3   OH210424   4.274   5.411   2.917 -0.5402  0.4014 -0.0211
 3473TIP3    H110425   4.268   5.505   2.903  0.5346  0.7790  1.7873
 3473TIP3    H210426   4.281   5.374   2.829 -1.6299  1.9395 -0.7933
 3474TIP3   OH210427   4.904   5.597   3.030 -0.0788  0.1446  0.0756
 3474TIP3    H110428   4.979   5.629   2.980  0.0070  0.3924  0.3609
 3474TIP3    H210429   4.897   5.657   3.104  0.0754 -0.4900  0.6084
 3475TIP3   OH210430   2.250   4.489   1.284 -0.1957 -0.2931 -0.4728
 3475TIP3    H110431   2.176   4.538   1.250 -0.1392 -0.8153 -1.3857
 3475TIP3    H210432   2.270   4.424   1.216 -0.5538 -1.8974  0.8807
 3476TIP3   OH210433   0.711   1.668   3.409  0.2481 -0.1984 -0.3256
 3476TIP3    H110434   0.800   1.700   3.399  0.4074  1.7645  4.4938
 3476TIP3    H210435   0.721   1.583   3.451 -0.1528 -0.5127 -0.8653
 3477TIP3   OH210436   3.366   5.215   3.607  1.2024 -0.3065  0.3903
 3477TIP3    H110437   3.422   5.177   3.539  0.0083  0.1002 -0.8830
 3477TIP3    H210438   3.320   5.285   3.562  0.5975  0.1769  1.7315
 3478TIP3   OH210439   0.348   0.216   4.246  0.1136  0.0282  0.3618
 3478TIP3    H110440   0.387   0.128   4.242  0.8858  0.3959 -0.4955
 3478TIP3    H210441   0.253   0.200   4.249  0.2524 -0.8333  0.4066
 3479TIP3   OH210442   4.934   3.735   1.455  0.5148 -0.6420 -0.5694
 3479TIP3    H110443   4.878   3.716   1.380  1.3334 -1.0517 -1.0915
 3479TIP3    H210444   4.952   3.649   1.494 -0.3064 -0.3904  0.4089
 3480TIP3   OH210445   4.718   2.913   2.322 -0.4081  0.8341  0.1640
 3480TIP3    H110446   4.800   2.948   2.357  0.4003  0.7639 -1.5250
 3480TIP3    H210447   4.701   2.967   2.245 -1.2904  0.0619 -0.1988
 3481TIP3   OH210448   4.366   5.386   3.465 -0.0702  0.0158  0.1210
 3481TIP3    H110449   4.280   5.347   3.477 -0.2196 -0.3117 -1.7264
 3481TIP3    H210450   4.379   5.386   3.370  2.1159 -0.3006  0.3665
 3482TIP3   OH210451   1.127   3.371  -0.025  0.0040  0.0852  0.1437
 3482TIP3    H110452   1.043   3.388   0.017  0.3375 -1.0845  1.3349
 3482TIP3    H210453   1.192   3.404   0.037  0.4592  1.7806 -1.1399
 3483TIP3   OH210454   3.818   3.196   2.914 -0.1885  0.3711  0.4229
 3483TIP3    H110455   3.790   3.228   2.828  0.0850  0.6247  0.4304
 3483TIP3    H210456   3.742   3.209   2.970 -0.2394  0.5567  0.3107
 3484TIP3   OH210457   4.099   2.426   0.537 -0.2970  0.0702 -0.0167
 3484TIP3    H110458   4.157   2.448   0.610 -0.7150  0.2544  0.2638
 3484TIP3    H210459   4.015   2.466   0.560 -0.6828 -0.6422 -0.1667
 3485TIP3   OH210460   3.418   3.594   1.080  0.0917  0.0409 -0.1768
 3485TIP3    H110461   3.495   3.593   1.137 -0.3295 -2.8628  0.5503
 3485TIP3    H210462   3.375   3.677   1.098  1.6721  0.5827  1.3465
 3486TIP3   OH210463   5.816   3.310   3.830  0.6370 -0.2120  0.4742
 3486TIP3    H110464   5.835   3.306   3.924 -1.8168  0.6228  1.0864
 3486TIP3    H210465   5.786   3.399   3.815  0.9301 -0.3569 -1.1151
 3487TIP3   OH210466   0.254   1.409   3.087 -0.0232 -0.3063  0.4806
 3487TIP3    H110467   0.186   1.414   3.020 -1.1060  0.4723  1.5888
 3487TIP3    H210468   0.299   1.493   3.082 -0.0641 -0.2717  0.6994
 3488TIP3   OH210469   1.572   3.295   1.028  0.0099  0.7027 -0.4283
 3488TIP3    H110470   1.642   3.323   1.087  1.1129  2.5343 -2.4424
 3488TIP3    H210471   1.616   3.235   0.967 -0.6576  0.3542 -0.5743
 3489TIP3   OH210472   1.572   3.071   2.166 -0.1656 -0.0220  0.3690
 3489TIP3    H110473   1.563   3.149   2.221 -0.7332 -1.1581  1.9444
 3489TIP3    H210474   1.648   3.025   2.201  0.2578 -0.1284 -0.6471
 3490TIP3   OH210475   5.179   4.280   5.004  0.1371 -0.0227  0.0320
 3490TIP3    H110476   5.131   4.320   5.076  0.8637  0.4288  0.2791
 3490TIP3    H210477   5.166   4.186   5.016  0.0883  0.0585  0.6372
 3491TIP3   OH210478   0.638   0.041   3.862  0.3161  0.4241  0.0822
 3491TIP3    H110479   0.547   0.045   3.832 -0.0423  1.2204  1.1833
 3491TIP3    H210480   0.683   0.108   3.811  0.1025  0.5858  0.1027
 3492TIP3   OH210481   3.998   0.201   2.704  0.0461  0.0734 -0.3396
 3492TIP3    H110482   4.049   0.126   2.674 -0.3033 -0.3977  0.2275
 3492TIP3    H210483   3.939   0.165   2.771 -0.0243  0.8755  0.0423
 3493TIP3   OH210484   3.355   3.815   1.233 -0.6919  0.5922 -0.0560
 3493TIP3    H110485   3.352   3.909   1.249 -0.0452  0.7392 -0.7563
 3493TIP3    H210486   3.361   3.777   1.321  0.3844  1.2758  0.2004
 3494TIP3   OH210487   4.023   3.748   2.022 -0.6525  0.6676 -0.3658
 3494TIP3    H110488   4.068   3.785   2.098 -3.6040  0.3980  1.6765
 3494TIP3    H210489   3.987   3.824   1.977 -0.0217  0.7390 -0.7626
 3495TIP3   OH210490   5.614   4.182   4.183 -0.0595  0.3888 -0.7155
 3495TIP3    H110491   5.572   4.185   4.096 -0.6202  0.9548 -0.4347
 3495TIP3    H210492   5.582   4.101   4.222  0.3335  0.0424 -1.1015
 3496TIP3   OH210493   0.862   5.488   0.623 -0.1593 -0.0219 -0.4441
 3496TIP3    H110494   0.904   5.444   0.549 -0.2159 -1.2595  0.2399
 3496TIP3    H210495   0.880   5.581   0.609  2.2079 -0.4296 -0.5831
 3497TIP3   OH210496   4.116   0.874   5.080  0.1335  0.2197 -0.3984
 3497TIP3    H110497   4.132   0.821   5.158 -1.9239 -0.7398 -0.5434
 3497TIP3    H210498   4.083   0.957   5.114  1.4060  0.6776 -0.2250
 3498TIP3   OH210499   2.981   5.666   2.651 -0.0575  0.5002  0.6085
 3498TIP3    H110500   2.969   5.665   2.746  2.9762  0.2469  1.0752
 3498TIP3    H210501   3.014   5.753   2.632 -1.6609  0.9180 -0.4290
 3499TIP3   OH210502   3.754   3.923   5.000 -0.6460 -0.2063  0.3764
 3499TIP3    H110503   3.776   3.833   4.977  2.7345  0.0878  1.8575
 3499TIP3    H210504   3.753   3.969   4.916  1.6079 -0.9397 -0.1320
 3500TIP3   OH210505   4.755   1.508   0.060  0.3155 -0.3023 -0.0837
 3500TIP3    H110506   4.700   1.431   0.047 -0.9161  0.7450 -1.4070
 3500TIP3    H210507   4.751   1.525   0.154 -0.1369 -1.3040  0.0892
 3501TIP3   OH210508   5.389   4.899   3.905  0.1916  0.4188 -0.4329
 3501TIP3    H110509   5.378   4.875   3.996 -1.0349 -0.0736 -0.6996
 3501TIP3    H210510   5.399   4.994   3.906 -1.1499  0.5721  0.1121
 3502TIP3   OH210511   5.770   2.113   3.420  0.6279 -0.3077  0.3077
 3502TIP3    H110512   5.817   2.175   3.365  1.2867 -1.3652 -0.3486
 3502TIP3    H210513   5.683   2.105   3.379  1.3460 -1.6494 -1.0923
 3503TIP3   OH210514   0.092   2.258   0.070  0.0826  0.5100 -0.1297
 3503TIP3    H110515   0.080   2.346   0.034 -0.4629  0.0612 -1.0739
 3503TIP3    H210516   0.031   2.253   0.143 -1.0010  0.4008 -1.0255
 3504TIP3   OH210517   4.912   5.249   4.926 -0.1808  0.2153  0.3991
 3504TIP3    H110518   4.994   5.219   4.888  0.2585  0.7491  0.8988
 3504TIP3    H210519   4.903   5.198   5.006 -0.4580 -0.0143  0.2198
 3505TIP3   OH210520   4.803   0.176   1.248 -0.0360 -0.2628 -0.0510
 3505TIP3    H110521   4.739   0.240   1.216  1.1684  1.0190  0.0204
 3505TIP3    H210522   4.750   0.100   1.272 -1.6406  1.0727  0.8439
 3506TIP3   OH210523   4.105   1.401   3.781  0.6017  0.3898  0.1374
 3506TIP3    H110524   4.105   1.308   3.760  2.0411  0.4386 -0.1967
 3506TIP3    H210525   4.174   1.411   3.848  2.5630  1.5796 -1.8917
 3507TIP3   OH210526   0.911   2.445   0.845  0.2113  0.0287  0.1412
 3507TIP3    H110527   0.980   2.419   0.784 -0.3391 -0.2063 -0.3898
 3507TIP3    H210528   0.920   2.540   0.851 -0.8604  0.3032 -1.7459
 3508TIP3   OH210529   4.492   1.711   0.254 -0.6469 -0.4432  0.3010
 3508TIP3    H110530   4.447   1.675   0.178 -0.1908 -0.5186  0.0646
 3508TIP3    H210531   4.499   1.638   0.315  0.7470 -0.9213 -0.3906
 3509TIP3   OH210532   1.272   3.614   4.183  0.0808 -0.4029  0.4253
 3509TIP3    H110533   1.236   3.554   4.117 -0.2699  0.3528 -0.0829
 3509TIP3    H210534   1.275   3.561   4.263  0.2063 -1.2365 -0.1135
 3510TIP3   OH210535   5.191   2.007   3.430  0.3163  0.4133  0.0155
 3510TIP3    H110536   5.170   1.919   3.460 -0.8405  0.2830 -1.0931
 3510TIP3    H210537   5.138   2.065   3.484  0.6354  0.4001  0.3476
 3511TIP3   OH210538   1.013   0.742   4.631 -0.5193  0.4809  0.0077
 3511TIP3    H110539   1.037   0.811   4.693 -2.2724  1.4598 -0.3501
 3511TIP3    H210540   0.940   0.696   4.674 -1.5377  0.9680 -1.1487
 3512TIP3   OH210541   5.688   5.704   3.656 -0.6094 -0.7051  0.1044
 3512TIP3    H110542   5.618   5.770   3.658 -0.8630 -0.8981 -1.2970
 3512TIP3    H210543   5.769   5.754   3.649 -0.7653 -0.5171 -0.4122
 3513TIP3   OH210544   4.275   5.790   3.370  0.1705 -0.1248  0.3156
 3513TIP3    H110545   4.224   5.712   3.348 -1.1861  0.4536  1.2898
 3513TIP3    H210546   4.271   5.845   3.292  2.0442 -1.4386 -0.7856
 3514TIP3   OH210547   2.608   2.757   1.925  0.0072 -0.2586  0.4400
 3514TIP3    H110548   2.569   2.669   1.928  1.4510 -1.0650 -1.6915
 3514TIP3    H210549   2.579   2.792   1.840  1.1777  0.4368  0.3161
 3515TIP3   OH210550   0.069   3.109   4.762 -0.2883  0.3656 -0.1837
 3515TIP3    H110551   0.164   3.105   4.767 -0.1888 -0.0523 -1.7809
 3515TIP3    H210552   0.042   3.017   4.751 -1.1086  0.1531  2.7333
 3516TIP3   OH210553   4.646   1.254   2.818 -0.4184  0.1388 -0.2101
 3516TIP3    H110554   4.739   1.272   2.830 -0.4729  0.1831  0.1517
 3516TIP3    H210555   4.621   1.203   2.895 -0.7010  0.1644 -0.2843
 3517TIP3   OH210556   0.683   1.527   0.992  0.5946 -0.0262  0.0410
 3517TIP3    H110557   0.714   1.550   0.904 -0.8303 -2.2154 -1.1453
 3517TIP3    H210558   0.738   1.454   1.019 -1.7741 -2.4217 -1.1147
 3518TIP3   OH210559   5.448   0.266   2.738 -0.0225 -0.2533 -0.3108
 3518TIP3    H110560   5.467   0.266   2.832 -0.4943 -1.5083 -0.1990
 3518TIP3    H210561   5.494   0.343   2.704  2.1980 -1.1228  0.5353
 3519TIP3   OH210562   5.077   4.087   0.281  0.2564  0.1279 -0.1906
 3519TIP3    H110563   5.096   4.147   0.209 -1.6691 -0.4850 -1.2609
 3519TIP3    H210564   5.058   4.004   0.239  3.4434 -1.5365  1.2783
 3520TIP3   OH210565   6.188   2.284   3.681 -0.1528 -0.2898  0.3751
 3520TIP3    H110566   6.284   2.287   3.688 -0.1828 -0.4841  0.8929
 3520TIP3    H210567   6.159   2.254   3.767 -0.7907  1.4342  0.7892
 3521TIP3   OH210568   0.179   1.359   5.181 -0.3360  0.0144 -0.1303
 3521TIP3    H110569   0.104   1.406   5.218  0.3419  3.1977 -2.3249
 3521TIP3    H210570   0.143   1.311   5.106 -0.2814  1.4134 -1.0888
 3522TIP3   OH210571   0.113   4.980   4.386  0.6936 -0.4451  0.0156
 3522TIP3    H110572   0.171   4.915   4.347 -0.5400 -0.5196 -1.8295
 3522TIP3    H210573   0.070   4.934   4.458 -0.2459 -1.7731 -1.3346
 3523TIP3   OH210574   0.765   2.997   3.741  0.0065  1.0205  0.1260
 3523TIP3    H110575   0.846   3.023   3.698  0.1796 -0.1364 -0.2856
 3523TIP3    H210576   0.726   2.932   3.683 -1.9040  2.4819 -0.3319
 3524TIP3   OH210577   2.673   4.589   4.029  0.3247  0.0751 -0.0248
 3524TIP3    H110578   2.738   4.590   4.100 -0.4658 -0.6256  0.7411
 3524TIP3    H210579   2.723   4.564   3.951  1.1481  0.5010  0.3469
 3525TIP3   OH210580   1.414   4.240   3.320  0.7601 -0.1241  0.2822
 3525TIP3    H110581   1.482   4.204   3.377  1.4196  1.1135  0.3118
 3525TIP3    H210582   1.372   4.164   3.281  1.1567 -0.9495  1.4394
 3526TIP3   OH210583   2.905   1.640   1.453 -0.7793 -0.5359  0.2347
 3526TIP3    H110584   2.895   1.567   1.513 -3.6350 -1.2359 -0.9057
 3526TIP3    H210585   2.824   1.691   1.465  0.3429  1.4667 -0.2702
 3527TIP3   OH210586   0.919   4.300   3.778  0.8950  0.3615  0.1042
 3527TIP3    H110587   0.923   4.378   3.722  0.4390 -0.5152 -1.2064
 3527TIP3    H210588   0.878   4.233   3.723 -2.0149  0.1291  2.2751
 3528TIP3   OH210589   4.739   0.692   0.509 -0.5574 -0.2399 -0.1117
 3528TIP3    H110590   4.811   0.753   0.493 -1.1218  0.3153 -0.5833
 3528TIP3    H210591   4.686   0.696   0.430 -1.1185 -0.6380  0.2376
 3529TIP3   OH210592   3.797   3.723   1.025 -0.4083 -0.5808  0.0075
 3529TIP3    H110593   3.842   3.667   1.087 -0.2652  0.1351  0.5618
 3529TIP3    H210594   3.788   3.670   0.946  0.8667 -0.9374  0.0944
 3530TIP3   OH210595   1.110   1.413   0.524  0.0772 -0.1403  0.8383
 3530TIP3    H110596   1.169   1.339   0.510  0.9165  0.7426 -0.4508
 3530TIP3    H210597   1.117   1.431   0.618  1.0601 -0.6969  0.8888
 3531TIP3   OH210598   3.815   0.228   3.706 -0.4555  0.6201 -0.5360
 3531TIP3    H110599   3.720   0.226   3.716 -0.2580 -0.6767  1.5356
 3531TIP3    H210600   3.843   0.311   3.744 -0.6203  0.1674  0.5995
 3532TIP3   OH210601   4.587   5.198   0.876 -0.4571 -0.7244 -0.6012
 3532TIP3    H110602   4.606   5.290   0.894  3.2778 -1.7759  1.8536
 3532TIP3    H210603   4.524   5.174   0.944  0.0376 -0.4481 -0.0389
 3533TIP3   OH210604   1.577   4.639   4.429 -0.0777  0.5997  0.0410
 3533TIP3    H110605   1.568   4.546   4.408  0.9833  0.4803  0.0650
 3533TIP3    H210606   1.503   4.681   4.385 -1.0103 -0.3440  0.6647
 3534TIP3   OH210607   3.154   4.626   2.506 -0.7137  0.4843 -0.0591
 3534TIP3    H110608   3.064   4.595   2.494 -1.3496  1.8446  0.9238
 3534TIP3    H210609   3.169   4.620   2.600  0.7526 -1.0374 -0.3521
 3535TIP3   OH210610   0.064   2.529   2.145 -0.4055  0.6581 -0.3178
 3535TIP3    H110611   0.107   2.503   2.226 -0.2605  0.2059 -0.5346
 3535TIP3    H210612   0.109   2.609   2.117  0.6442 -0.0939 -0.8110
 3536TIP3   OH210613   3.706   1.719   3.281  0.1658 -0.4402  0.1998
 3536TIP3    H110614   3.765   1.777   3.233 -0.1928 -1.2459 -1.2652
 3536TIP3    H210615   3.756   1.639   3.296  0.1486 -0.3344  0.8608
 3537TIP3   OH210616   5.169   3.601   2.793  0.0130 -0.0713  0.0085
 3537TIP3    H110617   5.226   3.662   2.746  1.1635 -0.5668  0.7220
 3537TIP3    H210618   5.147   3.534   2.728  0.1946  0.1446 -0.2801
 3538TIP3   OH210619   3.053   5.095   0.813 -0.4006  0.2361 -0.1655
 3538TIP3    H110620   2.976   5.147   0.838 -2.4679 -2.7359  0.2027
 3538TIP3    H210621   3.030   5.005   0.837  1.6347 -1.4002 -3.5229
 3539TIP3   OH210622   2.954   0.564   2.085  0.2922  0.1764  0.2254
 3539TIP3    H110623   2.890   0.509   2.130 -0.5118 -0.7952 -1.9630
 3539TIP3    H210624   2.903   0.609   2.017  1.5419  1.0958 -0.1405
 3540TIP3   OH210625   1.696   4.182   0.996 -0.7606 -0.4165  0.3394
 3540TIP3    H110626   1.617   4.130   1.014 -0.4085 -0.5973  1.4069
 3540TIP3    H210627   1.671   4.271   1.019 -1.1340 -0.2106 -0.8039
 3541TIP3   OH210628   1.992   0.596   1.329  0.0431 -0.1110 -0.0758
 3541TIP3    H110629   2.055   0.589   1.257  0.8337 -0.3716  0.6193
 3541TIP3    H210630   1.936   0.670   1.304  1.2479  0.7874 -0.2521
 3542TIP3   OH210631   3.601   0.044   3.392 -0.0824 -0.2016  0.7968
 3542TIP3    H110632   3.543   0.008   3.325  0.8283  0.9805 -0.7014
 3542TIP3    H210633   3.613  -0.027   3.455 -2.5496 -0.7016  0.7721
 3543TIP3   OH210634   3.946   4.396   0.191  0.0127 -0.2801 -0.4498
 3543TIP3    H110635   4.018   4.341   0.221 -0.2428  0.0112  0.7807
 3543TIP3    H210636   3.870   4.364   0.239 -0.2874  0.6460 -0.2890
 3544TIP3   OH210637   3.017   5.613   3.775  0.0864  0.4395 -0.3697
 3544TIP3    H110638   3.002   5.672   3.701 -1.1416  0.8877  0.2030
 3544TIP3    H210639   3.027   5.527   3.734 -0.4599  0.6964 -1.0866
 3545TIP3   OH210640   2.099   2.791   3.233  0.3170 -0.4465 -0.1451
 3545TIP3    H110641   2.005   2.794   3.249  0.2212  3.1929 -0.4843
 3545TIP3    H210642   2.111   2.724   3.167 -2.5405  1.0923 -2.4283
 3546TIP3   OH210643   2.182   5.502   4.205 -0.7706  0.1795 -0.2126
 3546TIP3    H110644   2.136   5.573   4.249 -1.2999 -1.6581  2.4272
 3546TIP3    H210645   2.136   5.423   4.232  2.1117 -1.5110  0.1567
 3547TIP3   OH210646   2.592   5.178   2.125  0.5371 -0.3747 -0.4155
 3547TIP3    H110647   2.615   5.140   2.040 -0.8598  0.7061 -1.3127
 3547TIP3    H210648   2.498   5.194   2.120  0.3845 -0.4669  1.4237
 3548TIP3   OH210649   3.633   4.778   2.985  0.2297  0.5495  0.0164
 3548TIP3    H110650   3.627   4.712   2.916  0.4435  0.5618 -0.0138
 3548TIP3    H210651   3.646   4.728   3.066 -1.8796  0.4194  0.3247
 3549TIP3   OH210652   5.903   2.429   4.622  0.0114  0.4177 -0.0679
 3549TIP3    H110653   5.828   2.403   4.570 -1.3054  0.9255  1.5025
 3549TIP3    H210654   5.968   2.360   4.608 -0.5186  0.2432 -1.8512
 3550TIP3   OH210655   5.475   3.017   2.687  0.2653 -0.5361  0.0707
 3550TIP3    H110656   5.413   3.090   2.687  1.3024  0.4180 -1.7691
 3550TIP3    H210657   5.420   2.940   2.703 -0.9328  0.5408  1.5117
 3551TIP3   OH210658   0.238   4.796   3.809 -0.0107  0.1972  0.3967
 3551TIP3    H110659   0.236   4.813   3.903  1.4771 -1.9858  0.9110
 3551TIP3    H210660   0.329   4.810   3.784 -0.3976  0.8006 -0.7500
 3552TIP3   OH210661   6.093   4.944   0.436  0.4202  0.4600 -0.5713
 3552TIP3    H110662   6.092   4.878   0.367  0.7311 -0.3698  0.2002
 3552TIP3    H210663   6.058   5.023   0.394 -1.0123 -0.4751 -1.2154
 3553TIP3   OH210664   0.174   3.459   4.941  0.0073 -0.1404  0.1323
 3553TIP3    H110665   0.132   3.411   5.012  0.8412 -1.4023 -0.1751
 3553TIP3    H210666   0.253   3.407   4.921  0.6286  1.0495 -0.6360
 3554TIP3   OH210667   2.235   1.589   3.078 -0.3039  0.4821 -0.7289
 3554TIP3    H110668   2.276   1.572   3.163  0.4246  0.5658 -1.0480
 3554TIP3    H210669   2.186   1.670   3.090 -0.1990  0.4962 -0.3857
 3555TIP3   OH210670   5.244   0.142   0.721  0.0392 -0.1440  0.4553
 3555TIP3    H110671   5.257   0.093   0.802  0.6215 -1.0603 -0.1667
 3555TIP3    H210672   5.311   0.108   0.662 -1.0803 -0.2919 -0.7710
 3556TIP3   OH210673   4.624   3.892   4.989 -0.1816  0.1244  0.8762
 3556TIP3    H110674   4.681   3.948   5.042  1.2373 -0.9242  0.5172
 3556TIP3    H210675   4.559   3.952   4.952  0.3353  1.2700  1.7593
 3557TIP3   OH210676   2.283   1.498   2.623  0.3370 -0.0651 -0.9520
 3557TIP3    H110677   2.344   1.425   2.630 -0.1378 -0.3782 -0.0279
 3557TIP3    H210678   2.197   1.458   2.618  0.0153  0.4267  0.2320
 3558TIP3   OH210679   5.924   1.187   2.360 -0.5588 -0.5639 -0.3803
 3558TIP3    H110680   5.839   1.230   2.368 -0.4543 -0.4063 -0.1194
 3558TIP3    H210681   5.948   1.163   2.449 -0.4215 -0.7882 -0.4756
 3559TIP3   OH210682   1.562   4.481   0.568  0.2909 -0.4316 -0.0120
 3559TIP3    H110683   1.565   4.390   0.597  2.1463 -0.6330 -0.6926
 3559TIP3    H210684   1.621   4.485   0.493 -1.3045  0.9301 -1.2853
 3560TIP3   OH210685   3.124   5.945   3.003  0.7756 -0.0878 -0.6424
 3560TIP3    H110686   3.148   6.037   2.992  1.8802  0.0654  2.2326
 3560TIP3    H210687   3.196   5.896   2.963  0.2770  0.2479 -2.0063
 3561TIP3   OH210688   2.201   3.383   2.767 -0.1446 -0.3841  0.6529
 3561TIP3    H110689   2.173   3.472   2.743  0.5816 -0.5615 -0.9502
 3561TIP3    H210690   2.210   3.387   2.862 -2.0431  0.6883  0.8524
 3562TIP3   OH210691   0.551   1.416   3.746 -0.1757  0.0340  0.0985
 3562TIP3    H110692   0.622   1.465   3.787  0.3249 -0.2043 -0.4567
 3562TIP3    H210693   0.519   1.474   3.677  2.2033 -1.3384 -2.3833
 3563TIP3   OH210694   0.138   3.194   4.157  0.1366 -0.0516 -0.4102
 3563TIP3    H110695   0.173   3.281   4.141  0.6193  0.0558  1.0978
 3563TIP3    H210696   0.076   3.179   4.085  1.6345  0.6353 -1.8971
 3564TIP3   OH210697   0.008   5.695   3.663  0.0426 -0.1097 -0.6612
 3564TIP3    H110698   0.077   5.761   3.668  1.0317 -0.9726 -2.0623
 3564TIP3    H210699   0.038   5.626   3.722 -0.3956  0.1659 -0.1092
 3565TIP3   OH210700   4.102   3.931   3.981 -0.2792 -0.3155  0.4806
 3565TIP3    H110701   4.066   3.907   4.066 -1.3848  0.5391  0.2874
 3565TIP3    H210702   4.036   3.989   3.943  1.3536  1.4083  0.1252
 3566TIP3   OH210703   4.042   0.081   3.973 -0.5070  0.0600  0.4542
 3566TIP3    H110704   4.113   0.074   4.036 -0.7902  1.0435  0.9066
 3566TIP3    H210705   4.072   0.148   3.911 -0.1596 -1.0178 -0.5650
 3567TIP3   OH210706   3.302   6.024   3.308  0.0299  0.4335 -0.2693
 3567TIP3    H110707   3.247   5.975   3.368 -1.4671  0.0333 -1.8816
 3567TIP3    H210708   3.364   5.959   3.273  0.6469  0.5839  0.5218
 3568TIP3   OH210709   2.963   0.735   3.413  0.5839  0.7211 -0.8041
 3568TIP3    H110710   3.014   0.816   3.422  1.1032  0.4330 -1.0698
 3568TIP3    H210711   2.900   0.754   3.344 -1.3282  1.8951  1.1311
 3569TIP3   OH210712   1.341   0.035   0.696  0.4438 -0.1932 -0.1511
 3569TIP3    H110713   1.359  -0.057   0.711 -0.5076 -0.4771 -0.6792
 3569TIP3    H210714   1.365   0.079   0.778  2.2435 -0.6946 -0.3608
 3570TIP3   OH210715   4.324   1.658   3.457 -0.3522 -0.0178  0.8116
 3570TIP3    H110716   4.255   1.604   3.494  0.9526 -2.4241 -0.0227
 3570TIP3    H210717   4.353   1.610   3.379  0.8959  1.9257 -0.0079
 3571TIP3   OH210718   1.569   2.768   3.338 -0.2727 -0.2434 -0.1477
 3571TIP3    H110719   1.533   2.821   3.267 -0.8480 -0.9197 -0.3789
 3571TIP3    H210720   1.661   2.758   3.316 -0.0274  1.1241  0.1976
 3572TIP3   OH210721   5.897   4.788   4.375  1.3747 -0.1960 -0.1695
 3572TIP3    H110722   5.889   4.852   4.305 -0.3595 -0.9113 -0.7046
 3572TIP3    H210723   5.815   4.797   4.425  0.8699 -2.2175 -0.5205
 3573TIP3   OH210724   2.319   5.690   4.490  0.2438  0.3635  0.1178
 3573TIP3    H110725   2.229   5.671   4.464  0.5348 -0.6190 -0.1957
 3573TIP3    H210726   2.324   5.786   4.493 -1.0888  0.4310  1.1070
 3574TIP3   OH210727   0.354   0.396   4.034  0.4016  0.1764 -0.6021
 3574TIP3    H110728   0.361   0.314   4.083  1.7713  0.0675 -0.9423
 3574TIP3    H210729   0.260   0.415   4.033  0.2436 -0.2338  1.3647
 3575TIP3   OH210730   2.380   4.201   2.097  0.2049  0.2775  0.2343
 3575TIP3    H110731   2.398   4.290   2.066  0.7272  0.7115  1.7370
 3575TIP3    H210732   2.465   4.159   2.102 -0.0708 -0.4552 -0.8099
 3576TIP3   OH210733   4.179   5.016   3.719 -0.1887  0.2963  0.1073
 3576TIP3    H110734   4.260   5.067   3.710  1.5113 -2.1238  0.6778
 3576TIP3    H210735   4.175   4.993   3.812 -1.0500 -0.3882 -0.0838
 3577TIP3   OH210736   4.215   1.810   5.084 -0.1334 -0.7609 -0.1178
 3577TIP3    H110737   4.252   1.783   5.168 -0.1263  2.0278  0.8720
 3577TIP3    H210738   4.292   1.835   5.031 -0.2616  0.1233  0.0886
 3578TIP3   OH210739   1.981   5.909   3.539  0.9374  0.5143  0.1100
 3578TIP3    H110740   1.923   5.943   3.607  1.8062  0.9287  0.6675
 3578TIP3    H210741   1.986   5.979   3.475 -0.7194 -0.2802 -0.9430
 3579TIP3   OH210742   4.707   1.073   1.813  0.4929 -0.2214  0.8429
 3579TIP3    H110743   4.798   1.080   1.841  0.4359 -0.8543  1.1943
 3579TIP3    H210744   4.658   1.122   1.880  0.5522 -0.0494  0.7616
 3580TIP3   OH210745   1.360   3.550   4.461  0.4534  0.0871  0.8125
 3580TIP3    H110746   1.428   3.596   4.510 -0.2492  0.2050  1.7110
 3580TIP3    H210747   1.322   3.489   4.524  0.6270 -0.9408 -0.0651
 3581TIP3   OH210748   2.254   1.611   4.072  0.3961  0.3430  0.5256
 3581TIP3    H110749   2.196   1.687   4.077 -0.4867 -0.2380 -0.6178
 3581TIP3    H210750   2.198   1.539   4.045  1.5298 -0.3838  0.0248
 3582TIP3   OH210751   2.232   0.044   5.019 -1.0406  0.1212 -0.1922
 3582TIP3    H110752   2.219   0.059   4.926  0.2663  1.1936 -0.2407
 3582TIP3    H210753   2.292   0.114   5.046 -1.2934 -0.2415  1.4235
 3583TIP3   OH210754   0.221   1.211   0.083  0.2727  0.2735  0.0104
 3583TIP3    H110755   0.266   1.199  -0.001  0.4824  2.8994 -0.3399
 3583TIP3    H210756   0.290   1.202   0.149  1.0255  2.3257 -0.4128
 3584TIP3   OH210757   1.762   2.538   5.038  0.2439 -0.1739  0.8357
 3584TIP3    H110758   1.850   2.566   5.014 -0.0253  0.2581  0.3059
 3584TIP3    H210759   1.713   2.621   5.049 -0.7221 -0.3969 -1.3104
 3585TIP3   OH210760   2.423   5.700   1.472  0.9061 -0.3484 -0.1288
 3585TIP3    H110761   2.344   5.647   1.460  1.8618 -2.0238  0.5152
 3585TIP3    H210762   2.429   5.752   1.393 -0.6750 -0.4045 -0.3257
 3586TIP3   OH210763   5.524   2.099   2.875 -0.1994  0.4147 -0.3212
 3586TIP3    H110764   5.451   2.063   2.925  0.2435  1.0941  0.8542
 3586TIP3    H210765   5.594   2.111   2.939  0.6000  0.7509 -1.2218
 3587TIP3   OH210766   0.797   0.620   0.455 -0.1095 -0.0346 -0.4668
 3587TIP3    H110767   0.805   0.692   0.393  1.0894  1.2712  1.1105
 3587TIP3    H210768   0.742   0.655   0.525  1.9682  0.0637  1.2078
 3588TIP3   OH210769   5.506   5.132   0.120  0.9842 -0.0878 -0.3921
 3588TIP3    H110770   5.485   5.095   0.206 -0.9864 -2.4504 -1.7819
 3588TIP3    H210771   5.465   5.219   0.122 -0.4093 -0.7248  0.5164
 3589TIP3   OH210772   3.424   3.463   0.823 -0.5816 -0.0130 -0.1448
 3589TIP3    H110773   3.463   3.476   0.909  0.4291  1.3484 -0.7690
 3589TIP3    H210774   3.356   3.530   0.817  0.1604  0.6794 -0.8609
 3590TIP3   OH210775   1.199   4.560   4.865  0.2707 -1.0233 -0.1191
 3590TIP3    H110776   1.207   4.621   4.939 -3.2728  0.9048 -1.0840
 3590TIP3    H210777   1.190   4.474   4.906 -3.7648  0.1871  2.1014
 3591TIP3   OH210778   5.921   0.430   0.468  0.0497  0.2096 -0.2808
 3591TIP3    H110779   5.851   0.366   0.466  0.2657 -0.0463  0.1966
 3591TIP3    H210780   5.894   0.493   0.534 -0.6577  1.2031 -1.4594
 3592TIP3   OH210781   2.195   1.344   2.987 -0.0924  0.3724 -0.2766
 3592TIP3    H110782   2.135   1.326   2.915 -1.1250  1.0157  0.3790
 3592TIP3    H210783   2.181   1.436   3.008  0.0660  0.1689  0.8270
 3593TIP3   OH210784   2.547   0.121   2.735 -0.1374  0.2168  0.4622
 3593TIP3    H110785   2.502   0.067   2.801 -0.2337  0.6239  0.7302
 3593TIP3    H210786   2.479   0.180   2.702 -0.0185  0.2107  0.2013
 3594TIP3   OH210787   3.360   4.535   2.319  0.4347 -0.3296 -0.4430
 3594TIP3    H110788   3.358   4.448   2.357 -3.0675 -0.0583  0.3155
 3594TIP3    H210789   3.317   4.591   2.384  1.2119  1.6985 -1.5610
 3595TIP3   OH210790   4.677   1.804   1.376  0.2999 -0.9665 -0.3821
 3595TIP3    H110791   4.592   1.797   1.419 -0.2790 -0.0575 -1.3202
 3595TIP3    H210792   4.736   1.836   1.445 -0.7549  1.1104 -0.3681
 3596TIP3   OH210793   4.014   3.312   3.583 -0.2807 -0.3773  0.0364
 3596TIP3    H110794   3.923   3.281   3.583 -1.1318  1.8995 -0.5406
 3596TIP3    H210795   4.057   3.259   3.516 -1.8282  0.0823 -1.4137
 3597TIP3   OH210796   1.365   2.960   4.515  0.1482 -0.1178 -0.1431
 3597TIP3    H110797   1.328   2.878   4.483  0.7955 -0.6296  0.3884
 3597TIP3    H210798   1.360   2.953   4.610  0.5048  0.3225 -0.0872
 3598TIP3   OH210799   2.268   3.910   4.067  0.5159 -0.2730  0.1760
 3598TIP3    H110800   2.346   3.962   4.046 -0.8456  1.2981 -1.2456
 3598TIP3    H210801   2.227   3.892   3.983 -0.9348 -0.6254  0.9252
 3599TIP3   OH210802   0.455   0.671   1.043 -0.4726  0.1400  0.7528
 3599TIP3    H110803   0.443   0.585   1.084 -3.6454  0.4522  0.6962
 3599TIP3    H210804   0.369   0.712   1.047  0.7106  2.9488 -0.1467
 3600TIP3   OH210805   3.021   3.714   3.706 -0.1053  0.5219 -0.0035
 3600TIP3    H110806   3.012   3.796   3.658 -1.5335  0.5806  0.3077
 3600TIP3    H210807   2.931   3.681   3.713  0.4933 -1.3643 -0.6311
 3601TIP3   OH210808   6.110   0.663   4.285 -0.1129 -0.3350  0.7226
 3601TIP3    H110809   6.115   0.715   4.365 -0.3898 -0.5863  0.9044
 3601TIP3    H210810   6.017   0.660   4.264  0.1568  3.6866 -2.2437
 3602TIP3   OH210811   2.695   5.802   5.091 -0.2635 -0.0208  1.1164
 3602TIP3    H110812   2.657   5.878   5.135  0.4883  0.7233  0.5059
 3602TIP3    H210813   2.725   5.836   5.006 -0.8223 -1.2130  0.4165
 3603TIP3   OH210814   2.167   2.258   0.245  0.5354 -0.2698 -0.4191
 3603TIP3    H110815   2.092   2.272   0.187  0.7996  1.6550 -0.3673
 3603TIP3    H210816   2.140   2.186   0.302 -1.2667  0.3430 -0.4265
 3604TIP3   OH210817   2.106   0.395   3.844 -0.2754 -0.4145 -0.2590
 3604TIP3    H110818   2.164   0.335   3.890 -0.2419 -0.5209 -0.4395
 3604TIP3    H210819   2.106   0.475   3.898  0.4930 -0.1999 -0.5640
 3605TIP3   OH210820   5.239   0.146   2.466  0.1053 -0.0673  0.5636
 3605TIP3    H110821   5.233   0.148   2.370 -0.5530  0.6038  0.6076
 3605TIP3    H210822   5.239   0.238   2.492 -1.6271 -0.2505  1.3102
 3606TIP3   OH210823   0.910   3.208   1.563  0.2854  0.0188  0.6143
 3606TIP3    H110824   0.917   3.164   1.648  0.7394 -1.2508 -0.0638
 3606TIP3    H210825   1.001   3.222   1.537  0.2266 -1.9518 -0.8335
 3607TIP3   OH210826   4.584   3.612   2.387 -0.4020  0.4065 -0.6265
 3607TIP3    H110827   4.513   3.550   2.397 -0.5696  0.8223  1.0207
 3607TIP3    H210828   4.644   3.593   2.459 -0.0671  1.6343 -0.5468
 3608TIP3   OH210829   2.268   5.198   0.280 -0.1079 -0.3336 -0.1549
 3608TIP3    H110830   2.264   5.219   0.373  0.4085 -0.8196 -0.0198
 3608TIP3    H210831   2.333   5.259   0.244  0.2878 -0.6809 -0.0408
 3609TIP3   OH210832   1.978   0.061   3.291 -0.3122 -0.3506  0.8275
 3609TIP3    H110833   1.958  -0.030   3.269 -0.4187 -0.3433  0.8948
 3609TIP3    H210834   2.070   0.072   3.266 -0.6586 -0.1107 -0.3851
 3610TIP3   OH210835   2.864   3.314   2.366 -0.2431  0.4555  0.3750
 3610TIP3    H110836   2.899   3.307   2.454 -0.5368  0.8494  0.5275
 3610TIP3    H210837   2.803   3.240   2.358 -0.0799  0.3156  0.4375
 3611TIP3   OH210838   1.860   4.693   1.302 -0.1132 -0.2707  0.0436
 3611TIP3    H110839   1.904   4.732   1.378 -1.5991 -0.3174  0.9668
 3611TIP3    H210840   1.767   4.702   1.322 -0.5267 -0.4853 -1.6942
 3612TIP3   OH210841   1.236   2.670   4.657 -0.7228 -0.8317 -0.4656
 3612TIP3    H110842   1.263   2.716   4.736 -0.7829 -1.1839 -0.2355
 3612TIP3    H210843   1.162   2.720   4.623 -0.1208 -0.1603 -0.8085
 3613TIP3   OH210844   5.246   2.613   2.256 -0.1918  0.3955  0.0831
 3613TIP3    H110845   5.190   2.691   2.251 -1.1923 -0.3362 -0.5551
 3613TIP3    H210846   5.302   2.618   2.179 -0.9325 -0.0021 -0.4932
 3614TIP3   OH210847   2.919   4.032   3.087 -0.0951 -0.5064  0.4820
 3614TIP3    H110848   2.843   3.994   3.043 -0.2210  1.2972 -0.9414
 3614TIP3    H210849   2.910   4.126   3.074  3.1875 -0.2853 -1.1527
 3615TIP3   OH210850   5.229   4.886   4.151  0.3198 -0.2077 -0.4496
 3615TIP3    H110851   5.171   4.933   4.092 -1.2725 -1.2903  0.1675
 3615TIP3    H210852   5.174   4.862   4.225  1.8660 -0.2563  0.7495
 3616TIP3   OH210853   0.798   3.979   1.333 -0.0120 -0.4454  0.2777
 3616TIP3    H110854   0.739   3.969   1.407  1.1331 -1.7809  1.0638
 3616TIP3    H210855   0.826   3.890   1.312  1.5579  0.1260 -0.1958
 3617TIP3   OH210856   1.198   0.898   1.577 -0.6208  0.0314  0.6387
 3617TIP3    H110857   1.293   0.883   1.580 -0.5435 -0.3362 -1.5988
 3617TIP3    H210858   1.168   0.878   1.665  1.2960 -0.5564  1.2153
 3618TIP3   OH210859   1.776   1.307   4.372  0.2741 -0.5419  0.3867
 3618TIP3    H110860   1.796   1.213   4.372  0.5991 -0.5403 -2.0711
 3618TIP3    H210861   1.690   1.313   4.415 -0.4795 -2.1741 -0.7807
 3619TIP3   OH210862   5.906   2.861   1.809  0.1751  0.2488 -0.7942
 3619TIP3    H110863   5.866   2.855   1.723  1.5613  0.4719 -1.4843
 3619TIP3    H210864   5.920   2.770   1.836  0.2851  0.1869 -1.0644
 3620TIP3   OH210865   5.875   2.794   4.283 -0.8761 -0.2941 -0.2354
 3620TIP3    H110866   5.878   2.887   4.260 -1.3146 -0.7984 -2.6408
 3620TIP3    H210867   5.789   2.765   4.253 -0.6378 -1.5419  0.2374
 3621TIP3   OH210868   3.560   3.834   0.905 -0.4457  0.0763  0.1783
 3621TIP3    H110869   3.551   3.924   0.935  2.1165  0.8567 -1.0792
 3621TIP3    H210870   3.624   3.796   0.966 -2.0970 -1.2197  1.2010
 3622TIP3   OH210871   5.909   3.656   3.420  0.1616  0.2979  0.4025
 3622TIP3    H110872   5.978   3.661   3.354  0.5406  0.2228  0.7876
 3622TIP3    H210873   5.925   3.731   3.478  0.2368 -0.0236  0.7978
 3623TIP3   OH210874   4.932   1.095   0.698  0.4217  0.4588 -0.0960
 3623TIP3    H110875   4.848   1.135   0.675 -0.7741 -2.7610 -2.0437
 3623TIP3    H210876   4.919   1.058   0.785 -0.1155  0.2524 -0.2594
 3624TIP3   OH210877   3.219   4.683   3.813 -0.2527  0.2486 -0.6200
 3624TIP3    H110878   3.214   4.779   3.817 -2.0370  0.1409  1.0593
 3624TIP3    H210879   3.285   4.660   3.878 -0.0618  0.3116 -0.7894
 3625TIP3   OH210880   0.302   3.700   4.623  0.7566 -0.1859 -0.2333
 3625TIP3    H110881   0.373   3.756   4.653  1.0596  0.3545 -1.8516
 3625TIP3    H210882   0.345   3.618   4.596  0.5216 -0.5652  0.5094
 3626TIP3   OH210883   6.131   0.619   3.549 -0.2676 -0.0038  0.1897
 3626TIP3    H110884   6.093   0.612   3.462 -0.6285  1.0740  0.2450
 3626TIP3    H210885   6.101   0.704   3.582 -0.0297 -0.3318  1.3135
 3627TIP3   OH210886   3.030   1.775   3.685 -0.2550 -0.0621  1.0968
 3627TIP3    H110887   2.940   1.747   3.701 -1.2053  0.7482 -2.1249
 3627TIP3    H210888   3.026   1.870   3.687  0.4374 -0.0127  0.4963
 3628TIP3   OH210889   2.412   2.498   2.171 -0.1075 -0.3067 -0.2621
 3628TIP3    H110890   2.502   2.509   2.200  0.7022 -2.2535 -1.7574
 3628TIP3    H210891   2.418   2.497   2.075 -2.1009  1.9894 -0.5118
 3629TIP3   OH210892   0.088   5.882   2.077  0.4392  0.2344  0.0702
 3629TIP3    H110893   0.032   5.815   2.118  0.4983  0.5111  0.6099
 3629TIP3    H210894   0.040   5.964   2.090  0.3316  0.2903 -0.6584
 3630TIP3   OH210895   4.100   0.752   0.453 -0.0106 -0.3308 -0.8699
 3630TIP3    H110896   4.085   0.690   0.524  0.8058  0.8790  0.4059
 3630TIP3    H210897   4.013   0.771   0.419 -0.8184  1.2613  1.7691
 3631TIP3   OH210898   0.146   5.818   0.217  0.0992 -0.8164  0.1954
 3631TIP3    H110899   0.241   5.804   0.221  0.4103 -0.9630 -3.6120
 3631TIP3    H210900   0.113   5.743   0.168 -1.6566  0.2432 -0.3366
 3632TIP3   OH210901   5.668   1.351   1.581  0.5434  0.6132 -0.2761
 3632TIP3    H110902   5.667   1.432   1.630  2.5050  0.2650  0.4090
 3632TIP3    H210903   5.747   1.355   1.528  1.9745 -1.7848  1.4953
 3633TIP3   OH210904   2.171   4.333   4.245 -0.3441 -0.9349 -0.4718
 3633TIP3    H110905   2.081   4.342   4.276  0.1642  1.2808  0.5241
 3633TIP3    H210906   2.203   4.253   4.288 -1.0597 -0.3680  1.1975
 3634TIP3   OH210907   4.324   2.778   1.690  0.4793 -0.5033  0.3976
 3634TIP3    H110908   4.413   2.768   1.656  0.7389  2.2844  0.0272
 3634TIP3    H210909   4.298   2.867   1.665 -2.7164 -1.4490 -0.1447
 3635TIP3   OH210910   3.021   0.275   0.147  0.0390 -0.0698  0.2987
 3635TIP3    H110911   2.990   0.213   0.213 -1.3190 -1.7579 -1.8172
 3635TIP3    H210912   3.114   0.255   0.137 -0.0279 -0.6498  0.7881
 3636TIP3   OH210913   1.314   5.119   1.570  0.4860  0.5804  0.6584
 3636TIP3    H110914   1.221   5.099   1.559  0.4010  1.2872  0.1082
 3636TIP3    H210915   1.359   5.058   1.511  0.3068  1.0111  0.0754
 3637TIP3   OH210916   0.687   1.244   2.874 -0.4218 -0.3599 -0.2660
 3637TIP3    H110917   0.612   1.254   2.816 -0.0017  0.3839 -0.6840
 3637TIP3    H210918   0.649   1.216   2.957 -1.0854 -0.7758 -0.7029
 3638TIP3   OH210919   1.977   1.026   4.090  0.6426  0.0325  0.2385
 3638TIP3    H110920   2.042   1.086   4.128  1.5691  0.0700 -1.3182
 3638TIP3    H210921   1.932   1.078   4.024 -0.3177 -0.2873  0.6265
 3639TIP3   OH210922   5.373   1.417   2.202  0.4983 -0.1173  0.3013
 3639TIP3    H110923   5.318   1.417   2.124  1.1708  1.2834 -0.2147
 3639TIP3    H210924   5.426   1.338   2.195  0.1825 -0.2686 -0.3866
 3640TIP3   OH210925   2.973   0.570   4.872  0.5897  0.0222  0.1939
 3640TIP3    H110926   2.901   0.511   4.892 -0.7219  1.8708  1.2635
 3640TIP3    H210927   2.980   0.568   4.777 -0.3832 -0.7353  0.1204
 3641TIP3   OH210928   3.609   2.336   1.625 -0.1929  0.0097 -0.1986
 3641TIP3    H110929   3.532   2.285   1.651  1.1774 -1.9163  0.3339
 3641TIP3    H210930   3.635   2.384   1.704 -1.2543  1.2913 -0.5925
 3642TIP3   OH210931   4.266   3.792   4.554  0.5693  0.6374 -0.0319
 3642TIP3    H110932   4.185   3.810   4.602 -0.3025  0.4280 -1.3577
 3642TIP3    H210933   4.292   3.705   4.584 -0.3476  0.2120 -0.3982
 3643TIP3   OH210934   1.786   3.389   1.184  0.3618 -0.3614 -0.2880
 3643TIP3    H110935   1.865   3.337   1.165 -0.0365 -1.2699  0.4895
 3643TIP3    H210936   1.797   3.416   1.275  0.3064  0.4950 -0.5244
 3644TIP3   OH210937   5.449   5.821   1.843  0.3755  0.0794 -0.1878
 3644TIP3    H110938   5.437   5.729   1.865  1.8496 -0.0016  0.4042
 3644TIP3    H210939   5.513   5.821   1.773  1.6245  0.6912  0.9025
 3645TIP3   OH210940   3.185   3.195   1.038 -0.1324 -0.6387  0.2519
 3645TIP3    H110941   3.197   3.276   1.088 -1.0543 -0.4633  0.2055
 3645TIP3    H210942   3.265   3.144   1.055 -0.2588 -0.4232  1.5916
 3646TIP3   OH210943   4.291   2.982   3.012 -0.2747 -0.1889  0.3352
 3646TIP3    H110944   4.204   2.965   2.975 -0.0575 -2.3439  0.6752
 3646TIP3    H210945   4.320   3.063   2.970 -1.0880 -1.1445 -2.2823
 3647TIP3   OH210946   0.981   5.113   4.116  0.6159  0.1844  0.1594
 3647TIP3    H110947   1.001   5.166   4.194 -1.2710 -1.3823  1.8358
 3647TIP3    H210948   0.914   5.163   4.070 -2.4074 -1.2398  2.6159
 3648TIP3   OH210949   2.284   5.755   3.998  0.5097  0.1058 -0.2962
 3648TIP3    H110950   2.347   5.700   4.046  0.6145 -0.6276 -1.2394
 3648TIP3    H210951   2.335   5.832   3.972  0.6796  0.1097  0.0453
 3649TIP3   OH210952   5.261   0.099   1.288  0.6652 -0.2460 -0.2821
 3649TIP3    H110953   5.318   0.055   1.350 -0.5156 -2.0653 -0.4214
 3649TIP3    H210954   5.265   0.045   1.209  0.1612  0.6030 -0.9035
 3650TIP3   OH210955   3.564   0.870   0.551 -0.2418  0.8537 -0.5410
 3650TIP3    H110956   3.585   0.796   0.494 -0.5682 -0.2440  0.6929
 3650TIP3    H210957   3.502   0.923   0.502 -1.7573 -0.9096 -0.6170
 3651TIP3   OH210958   3.871   0.812   4.971 -0.1712 -0.3396  0.2527
 3651TIP3    H110959   3.956   0.836   5.008  0.7795 -3.2185  0.1615
 3651TIP3    H210960   3.848   0.729   5.014 -2.7078  0.0736 -0.1235
 3652TIP3   OH210961   6.285   5.071   4.861 -0.0009  0.2530  0.2795
 3652TIP3    H110962   6.305   5.092   4.769  0.6847  0.4744  0.4714
 3652TIP3    H210963   6.310   5.150   4.909 -1.6523  0.6715  0.5180
 3653TIP3   OH210964   1.822   2.329   3.300  0.3802  0.3630  0.6228
 3653TIP3    H110965   1.879   2.254   3.313  0.6652  0.5544  0.4787
 3653TIP3    H210966   1.860   2.376   3.226 -0.7775 -0.2957 -0.4159
 3654TIP3   OH210967   1.105   2.260   3.883 -0.0214 -0.5119  0.3321
 3654TIP3    H110968   1.018   2.220   3.887 -0.5005  0.5762  2.0581
 3654TIP3    H210969   1.092   2.338   3.829 -0.7248  0.8653  2.3567
 3655TIP3   OH210970   0.583   3.619   4.408 -0.1797  0.1433  0.8316
 3655TIP3    H110971   0.612   3.703   4.444 -1.3306  0.2205  1.6499
 3655TIP3    H210972   0.655   3.591   4.351  0.4208  1.4520  0.9054
 3656TIP3   OH210973   0.371   3.695   3.451  0.0463  0.0067  0.3116
 3656TIP3    H110974   0.291   3.644   3.458  0.4259 -0.5731  0.6150
 3656TIP3    H210975   0.433   3.636   3.407 -0.3089  1.2142 -1.9195
 3657TIP3   OH210976   0.947   3.416   1.059  0.0496 -0.0013 -0.3968
 3657TIP3    H110977   0.899   3.499   1.052 -0.0774 -0.1468 -1.2979
 3657TIP3    H210978   0.894   3.362   1.117  2.1824  1.9742  3.8563
 3658TIP3   OH210979   5.411   0.576   1.269  0.2210 -0.1410  0.4110
 3658TIP3    H110980   5.398   0.670   1.274  1.3510  0.0930 -0.5254
 3658TIP3    H210981   5.344   0.539   1.326 -0.4251  1.2092  0.5605
 3659TIP3   OH210982   3.854   5.753   1.452 -0.0203  0.2844 -0.1238
 3659TIP3    H110983   3.819   5.745   1.364  0.6342 -0.4373 -0.3271
 3659TIP3    H210984   3.904   5.673   1.466 -1.0538 -0.1441  1.3354
 3660TIP3   OH210985   2.599   0.420   0.473  0.4918  0.0626  0.1989
 3660TIP3    H110986   2.584   0.438   0.566  1.3446 -3.2950  1.1550
 3660TIP3    H210987   2.686   0.455   0.456 -0.1812  1.8496  0.2512
 3661TIP3   OH210988   0.235   4.321   1.029 -0.7066  0.2702 -0.3907
 3661TIP3    H110989   0.163   4.367   1.074  1.3164  0.9365  2.4837
 3661TIP3    H210990   0.214   4.228   1.040 -2.1241  0.4359 -1.4323
 3662TIP3   OH210991   3.962   5.028   5.155  0.1747  0.4060 -0.0190
 3662TIP3    H110992   3.943   4.991   5.241  0.7725 -0.2320 -0.1548
 3662TIP3    H210993   3.879   5.065   5.126 -0.2189 -0.0678  0.4938
 3663TIP3   OH210994   0.566   5.101   4.821  0.4032 -0.0666  0.0489
 3663TIP3    H110995   0.544   5.009   4.809  2.8221 -0.5852 -0.9354
 3663TIP3    H210996   0.569   5.137   4.732  1.5134  0.4195  0.2681
 3664TIP3   OH210997   4.557   0.310   1.215 -0.0499 -0.1423  0.2397
 3664TIP3    H110998   4.505   0.349   1.285 -0.5621  0.8077 -0.6389
 3664TIP3    H210999   4.529   0.356   1.136  1.1822 -0.5302 -0.4569
 3665TIP3   OH211000   2.641   1.118   1.737  0.5850  0.3213 -0.2200
 3665TIP3    H111001   2.701   1.101   1.664 -0.7604 -0.3815 -1.2136
 3665TIP3    H211002   2.677   1.196   1.780  2.3152 -0.2053 -0.6343
 3666TIP3   OH211003   5.846   3.633   4.364  0.0930  0.0397 -1.1894
 3666TIP3    H111004   5.939   3.651   4.359  0.6168 -1.9918 -0.1437
 3666TIP3    H211005   5.816   3.683   4.440  0.6566 -0.4104 -0.6605
 3667TIP3   OH211006   3.431   2.740   2.209 -0.3738 -0.0053 -0.3328
 3667TIP3    H111007   3.457   2.650   2.192 -0.4475  0.1798 -1.4894
 3667TIP3    H211008   3.466   2.759   2.297  2.2595 -0.2088 -1.2376
 3668TIP3   OH211009   2.777   1.446   3.190 -0.2803 -0.0691  0.5354
 3668TIP3    H111010   2.697   1.404   3.223 -0.7334  1.8075  2.0121
 3668TIP3    H211011   2.836   1.449   3.266 -0.3455  2.0304  0.5823
 3669TIP3   OH211012   2.313   3.940   2.026  0.4449  0.1495 -0.0630
 3669TIP3    H111013   2.297   3.873   2.092 -0.0708 -1.4647 -1.7157
 3669TIP3    H211014   2.317   4.023   2.075  2.5076 -1.1812  2.2284
 3670TIP3   OH211015   1.338   0.680   4.930  0.0459  0.3471  0.4403
 3670TIP3    H111016   1.292   0.763   4.937 -2.2575 -0.9438  2.0487
 3670TIP3    H211017   1.395   0.677   5.006 -0.0865  0.3568  0.5408
 3671TIP3   OH211018   1.477   5.320   0.887  0.1278  0.8833 -0.0195
 3671TIP3    H111019   1.549   5.258   0.896  0.9439  1.9109  0.8091
 3671TIP3    H211020   1.398   5.267   0.894  0.7910 -0.2531 -0.8501
 3672TIP3   OH211021   5.375   3.597   2.132  0.3377 -0.2122 -0.8079
 3672TIP3    H111022   5.351   3.689   2.115  0.4642  0.2285  1.1652
 3672TIP3    H211023   5.454   3.603   2.186 -0.1750 -1.4455  0.1275
 3673TIP3   OH211024   0.644   2.027   0.185  0.2119  0.1582 -0.1785
 3673TIP3    H111025   0.703   2.082   0.236  1.3211  0.6742 -1.9444
 3673TIP3    H211026   0.557   2.044   0.221  1.0049 -0.0925  2.0243
 3674TIP3   OH211027   4.911   1.246   4.392 -0.2158  0.1427  0.3560
 3674TIP3    H111028   4.936   1.171   4.446  1.3214  0.7281  0.5154
 3674TIP3    H211029   4.993   1.295   4.380 -1.3435  2.3713  1.1469
 3675TIP3   OH211030   6.005   1.610   0.591 -0.0612 -0.2744  0.5532
 3675TIP3    H111031   5.989   1.611   0.686 -0.3157 -2.0673  0.5533
 3675TIP3    H211032   5.970   1.526   0.562 -0.8009  0.6226 -1.2912
 3676TIP3   OH211033   0.377   5.400   1.733  0.0729 -0.4119 -0.0372
 3676TIP3    H111034   0.311   5.419   1.800 -0.8759 -3.5561  0.1229
 3676TIP3    H211035   0.330   5.347   1.668  1.8894 -0.7317 -1.1620
 3677TIP3   OH211036   3.492   2.511   1.246  0.2005 -0.2226 -0.4173
 3677TIP3    H111037   3.495   2.514   1.342 -0.5345  1.3574 -0.4119
 3677TIP3    H211038   3.440   2.588   1.222 -0.0052 -0.8490 -2.0691
 3678TIP3   OH211039   1.362   4.117   3.811  0.0703 -0.5371  0.4920
 3678TIP3    H111040   1.419   4.042   3.793 -1.2488 -1.0219 -2.2835
 3678TIP3    H211041   1.277   4.091   3.774 -0.7681  1.8339  0.6210
 3679TIP3   OH211042   5.444   2.848   0.420 -0.0841  0.0789 -0.6431
 3679TIP3    H111043   5.506   2.869   0.350  1.8305 -2.4371  0.1435
 3679TIP3    H211044   5.410   2.761   0.397 -1.0920  0.1552  0.4434
 3680TIP3   OH211045   3.747   0.028   0.418 -0.4164 -0.0534 -0.0637
 3680TIP3    H111046   3.745  -0.034   0.345  1.0990 -1.3069  0.8879
 3680TIP3    H211047   3.832   0.072   0.409 -0.8230  0.7957  0.1631
 3681TIP3   OH211048   6.144   1.981   4.477  0.5854  0.0515 -0.4187
 3681TIP3    H111049   6.208   2.049   4.456  0.5968  0.3185  0.4527
 3681TIP3    H211050   6.123   1.941   4.393  0.0475  1.6018 -1.0555
 3682TIP3   OH211051   1.666   2.022   3.971 -0.4133  0.2394  0.1577
 3682TIP3    H111052   1.682   2.075   4.049  0.1265 -0.5614  0.6115
 3682TIP3    H211053   1.702   2.073   3.899  1.3688 -0.0755  0.7531
 3683TIP3   OH211054   1.443   3.105   4.288  0.0418  0.6431  0.1696
 3683TIP3    H111055   1.499   3.033   4.259 -0.9303 -0.7203  1.4965
 3683TIP3    H211056   1.404   3.073   4.370 -3.5959  1.0090 -1.2490
 3684TIP3   OH211057   1.410   1.133   2.543  0.0834 -0.3456 -0.0964
 3684TIP3    H111058   1.356   1.207   2.513 -0.0944 -0.9503 -1.3404
 3684TIP3    H211059   1.347   1.063   2.559  0.3246 -0.4730  0.2984
 3685TIP3   OH211060   5.910   5.336   2.027  0.4768  0.9177 -0.2033
 3685TIP3    H111061   5.955   5.331   1.942 -0.3041  0.8410 -0.6282
 3685TIP3    H211062   5.821   5.305   2.008  0.5784 -0.0969  0.8739
 3686TIP3   OH211063   4.947   2.531   4.866  0.0086 -0.4402  0.4926
 3686TIP3    H111064   4.935   2.441   4.837 -0.5304 -0.3739  0.4900
 3686TIP3    H211065   4.858   2.561   4.885  0.1542  0.2014  0.1629
 3687TIP3   OH211066   1.953   5.002   5.170  0.0770  0.0031 -0.4390
 3687TIP3    H111067   2.025   4.951   5.131  1.2668  2.1578 -1.2596
 3687TIP3    H211068   1.983   5.022   5.259 -0.5419 -0.9934  0.0005
 3688TIP3   OH211069   4.431   4.822   4.349 -0.0636  0.2323 -0.1842
 3688TIP3    H111070   4.477   4.756   4.298  0.2332  0.5504 -0.3360
 3688TIP3    H211071   4.364   4.856   4.290  0.1791  0.4909 -0.3147
 3689TIP3   OH211072   4.123   5.048   4.408 -0.0790 -0.3428 -0.6603
 3689TIP3    H111073   4.157   5.125   4.362  0.3974 -1.3392 -2.0693
 3689TIP3    H211074   4.078   5.083   4.485  1.4417  1.2354 -0.4239
 3690TIP3   OH211075   3.069   1.161   2.268  0.3432  0.0899 -0.2260
 3690TIP3    H111076   3.157   1.178   2.235  0.7111 -2.1345 -0.5450
 3690TIP3    H211077   3.081   1.137   2.360 -0.0093  0.3877 -0.0974
 3691TIP3   OH211078   2.854   3.566   0.326 -0.2048  1.3362  0.2785
 3691TIP3    H111079   2.786   3.549   0.261  1.5093 -2.6738 -0.7634
 3691TIP3    H211080   2.807   3.565   0.410 -1.5514 -1.9328 -0.3434
 3692TIP3   OH211081   5.341   1.341   1.146  0.1599 -0.2537  0.4357
 3692TIP3    H111082   5.281   1.300   1.208 -0.5552 -0.4534 -0.3696
 3692TIP3    H211083   5.284   1.391   1.087  0.7723 -0.5337 -0.4081
 3693TIP3   OH211084   5.016   1.557   4.519 -0.2202  0.2349 -0.3992
 3693TIP3    H111085   4.925   1.537   4.500  0.0258  0.6409 -2.1571
 3693TIP3    H211086   5.022   1.553   4.615 -1.6043 -1.6990 -0.3477
 3694TIP3   OH211087   4.273   0.402   1.031  0.3196 -0.0299  0.1199
 3694TIP3    H111088   4.367   0.395   1.013  0.4734  0.9248  0.4767
 3694TIP3    H211089   4.265   0.385   1.125  0.0173 -1.0278 -0.0819
 3695TIP3   OH211090   2.231   1.476   1.961 -0.3747  0.5367 -0.2432
 3695TIP3    H111091   2.243   1.386   1.990  0.1985  0.8227  0.4626
 3695TIP3    H211092   2.171   1.470   1.887  1.0692 -0.6093 -1.3761
 3696TIP3   OH211093   5.512   3.295   2.350 -0.1656 -0.0889 -0.0746
 3696TIP3    H111094   5.544   3.212   2.388 -3.1410 -1.7123 -0.8351
 3696TIP3    H211095   5.530   3.286   2.257 -0.0126  0.3718 -0.0883
 3697TIP3   OH211096   2.660   4.961   4.005  0.0048 -0.3463 -0.8542
 3697TIP3    H111097   2.582   5.004   3.971 -0.2239 -1.0344 -1.2052
 3697TIP3    H211098   2.643   4.952   4.099  0.0426  0.2878 -0.7792
 3698TIP3   OH211099   1.286   3.729   0.242  0.1586  0.2961 -0.1310
 3698TIP3    H111100   1.201   3.773   0.231  0.1913  0.6195  0.7647
 3698TIP3    H211101   1.337   3.790   0.296  0.9763  0.1179 -0.6872
 3699TIP3   OH211102   3.368   1.863   3.133  0.4413  0.3496  0.3000
 3699TIP3    H111103   3.410   1.840   3.050  2.2273  0.6490  1.0739
 3699TIP3    H211104   3.321   1.944   3.114  0.1502 -0.0251 -0.6221
 3700TIP3   OH211105   3.051   1.118   2.525  0.0872 -0.0787 -0.2939
 3700TIP3    H111106   2.973   1.066   2.506  0.9407 -1.3100 -0.5832
 3700TIP3    H211107   3.041   1.145   2.616 -0.4237 -0.6819 -0.1645
 3701TIP3   OH211108   1.131   4.749   2.796 -0.2229 -0.3218 -0.4099
 3701TIP3    H111109   1.094   4.661   2.809  1.4523 -0.8307  1.3593
 3701TIP3    H211110   1.145   4.782   2.885  1.7259  0.5987 -1.0085
 3702TIP3   OH211111   6.303   0.564   0.364  0.0512 -0.0959 -0.0391
 3702TIP3    H111112   6.312   0.569   0.459  0.0533 -0.5101 -0.0156
 3702TIP3    H211113   6.390   0.540   0.333 -0.4343 -2.0842  0.0297
 3703TIP3   OH211114   5.071   1.771   0.714  0.0722  0.9009  0.1249
 3703TIP3    H111115   5.072   1.832   0.788 -0.4412 -0.2677  1.1163
 3703TIP3    H211116   5.116   1.693   0.746 -1.0213  0.0111 -0.4578
 3704TIP3   OH211117   3.211   4.253   3.963 -0.2410  0.0509  0.1565
 3704TIP3    H111118   3.182   4.323   3.905  2.2092  0.2292 -0.9752
 3704TIP3    H211119   3.224   4.297   4.048 -0.8363  0.4687  0.0387
 3705TIP3   OH211120   5.815   1.754   3.015  0.1702 -0.5207  0.4637
 3705TIP3    H111121   5.742   1.707   2.975  0.1858  0.7353 -1.1587
 3705TIP3    H211122   5.773   1.822   3.069  0.1425 -0.7918  0.7831
 3706TIP3   OH211123   2.962   2.553   0.498  1.0331  0.2468 -0.4419
 3706TIP3    H111124   3.009   2.470   0.497  2.1838  0.8586 -2.5907
 3706TIP3    H211125   3.029   2.619   0.512  0.0074  0.8576  2.3021
 3707TIP3   OH211126   3.728   1.769   1.719 -0.0799  0.5421 -0.4120
 3707TIP3    H111127   3.732   1.681   1.756 -0.9601  0.7518  0.2121
 3707TIP3    H211128   3.641   1.774   1.677  0.3286  0.7983 -1.2640
 3708TIP3   OH211129   0.856   0.496   4.376 -0.5431  0.5052  0.4559
 3708TIP3    H111130   0.882   0.582   4.411 -0.7957  1.1257 -0.8349
 3708TIP3    H211131   0.793   0.516   4.308  0.9024 -0.5674 -1.2779
 3709TIP3   OH211132   4.487   0.346   2.251  0.6481 -0.7894 -0.3941
 3709TIP3    H111133   4.531   0.271   2.212 -0.0774 -0.0225 -2.8487
 3709TIP3    H211134   4.403   0.352   2.204  0.3786  1.1141  0.2303
 3710TIP3   OH211135   3.700   0.019   1.322  0.5886  0.0584 -0.0651
 3710TIP3    H111136   3.753  -0.059   1.340 -0.1834 -0.1195  1.6425
 3710TIP3    H211137   3.764   0.087   1.303  1.4280 -0.3413  1.1874
 3711TIP3   OH211138   5.705   4.385   1.863  0.8494  0.1762  0.1753
 3711TIP3    H111139   5.643   4.405   1.932  1.2280  2.4818 -0.0721
 3711TIP3    H211140   5.746   4.303   1.891 -2.4707 -1.6862  0.1533
 3712TIP3   OH211141   2.114   4.476   1.827 -0.4239  0.0802 -0.6264
 3712TIP3    H111142   2.169   4.420   1.882 -1.8962  0.2239  1.0731
 3712TIP3    H211143   2.148   4.464   1.738  2.0596 -0.1585  0.2807
 3713TIP3   OH211144   2.991   4.954   3.505 -0.1300  0.0153 -0.0185
 3713TIP3    H111145   2.931   4.883   3.524  1.4545 -1.3426  0.1288
 3713TIP3    H211146   2.934   5.030   3.489 -1.8048 -0.5650  2.5121
 3714TIP3   OH211147   5.382   2.547   4.110 -0.5468 -0.0216  0.2760
 3714TIP3    H111148   5.470   2.514   4.091 -0.7553 -1.0631  0.9785
 3714TIP3    H211149   5.393   2.641   4.121  0.7186 -0.2751  1.5303
 3715TIP3   OH211150   2.284   1.084   0.534 -0.2234 -0.5419 -0.1291
 3715TIP3    H111151   2.281   1.155   0.598  0.1206 -1.7443  1.2528
 3715TIP3    H211152   2.296   1.129   0.450  0.1288  1.0212  0.7135
 3716TIP3   OH211153   2.805   0.778   1.437  0.3704 -0.9206 -0.2080
 3716TIP3    H111154   2.854   0.743   1.363 -1.4171 -0.9756 -1.4130
 3716TIP3    H211155   2.811   0.709   1.504 -0.6260 -2.2896 -1.4713
 3717TIP3   OH211156   3.485   1.407   0.097 -0.2502  0.0191  0.3253
 3717TIP3    H111157   3.490   1.370   0.185  0.5484  1.0150  0.7227
 3717TIP3    H211158   3.569   1.452   0.086 -0.0129 -0.7579 -1.2478
 3718TIP3   OH211159   3.829   1.585   4.811 -0.1560 -0.5198 -0.3835
 3718TIP3    H111160   3.849   1.555   4.723  0.7372  0.0649 -0.4025
 3718TIP3    H211161   3.915   1.600   4.851 -0.5406 -0.9326  0.6441
 3719TIP3   OH211162   4.002   4.137   4.970  0.0084  0.3445  0.3798
 3719TIP3    H111163   4.077   4.190   4.999  0.1315 -0.4235  1.5058
 3719TIP3    H211164   4.040   4.052   4.950 -0.4277  0.2365 -0.0068
 3720TIP3   OH211165   5.848   0.776   3.187 -0.2154  0.8122  0.4923
 3720TIP3    H111166   5.857   0.871   3.177  1.1779  0.6395 -0.1693
 3720TIP3    H211167   5.918   0.752   3.248 -0.1203  0.1288  0.1215
 3721TIP3   OH211168   1.703   3.156   2.994 -0.3231 -0.2711  0.3558
 3721TIP3    H111169   1.656   3.102   2.931 -1.8428  1.6774 -0.3253
 3721TIP3    H211170   1.667   3.130   3.079 -0.8734 -0.5012  0.0606
 3722TIP3   OH211171   0.324   4.133   1.407  0.2605  0.4841 -0.6831
 3722TIP3    H111172   0.366   4.089   1.333  0.5212  0.7373 -0.6859
 3722TIP3    H211173   0.231   4.134   1.383  0.0186 -1.4172  0.0064
 3723TIP3   OH211174   5.535   3.590   4.966  0.6301  0.5231 -0.2483
 3723TIP3    H111175   5.574   3.503   4.976  0.9270  0.1951 -3.3599
 3723TIP3    H211176   5.609   3.646   4.944  0.0912  0.9773 -0.9381
 3724TIP3   OH211177   3.325   0.352   0.684  0.7602 -0.2446 -0.3705
 3724TIP3    H111178   3.234   0.347   0.714  0.3801  0.8748 -1.2657
 3724TIP3    H211179   3.353   0.260   0.678  0.3271 -0.5646  1.7061
 3725TIP3   OH211180   0.528   1.854   0.967 -0.1472  0.4194  0.2875
 3725TIP3    H111181   0.610   1.887   1.004 -0.0154 -0.1680  0.5255
 3725TIP3    H211182   0.553   1.813   0.885 -0.1879  0.1465  0.4116
 3726TIP3   OH211183   0.675   3.876   4.442  0.4736 -0.7365 -0.1537
 3726TIP3    H111184   0.669   3.926   4.360 -1.2885  0.9514  0.9262
 3726TIP3    H211185   0.753   3.910   4.485  0.8223 -0.8990 -0.6375
 3727TIP3   OH211186   2.435   2.186   2.252  0.3184 -0.3283  0.1874
 3727TIP3    H111187   2.450   2.101   2.211  0.0917 -0.2181 -0.1309
 3727TIP3    H211188   2.413   2.244   2.179  0.1245 -0.0783  0.4427
 3728TIP3   OH211189   1.562   4.226   2.605  0.0960 -0.0407 -0.5471
 3728TIP3    H111190   1.623   4.201   2.674  0.2287 -0.2596 -0.7416
 3728TIP3    H211191   1.508   4.147   2.592 -0.2881  0.1788 -0.3127
 3729TIP3   OH211192   3.183   5.442   4.944  0.5649 -0.0526  0.3562
 3729TIP3    H111193   3.247   5.497   4.989  0.3703  0.5297 -0.0674
 3729TIP3    H211194   3.117   5.503   4.912 -0.0812 -0.6194  0.5773
 3730TIP3   OH211195   0.561   4.416   2.790 -0.2829 -0.3952 -0.3765
 3730TIP3    H111196   0.600   4.371   2.715  1.5163 -0.9091  0.8065
 3730TIP3    H211197   0.545   4.348   2.854  1.2458  0.4013  0.9281
 3731TIP3   OH211198   0.467   2.155   4.223  0.3159  0.3399 -0.3910
 3731TIP3    H111199   0.536   2.172   4.287 -0.0403  0.0995  0.0664
 3731TIP3    H211200   0.480   2.064   4.198  1.5958  0.9563 -2.0671
 3732TIP3   OH211201   5.749   5.847   4.486  0.1491  0.1271  0.0564
 3732TIP3    H111202   5.710   5.869   4.570 -0.2294  0.6156 -0.2471
 3732TIP3    H211203   5.783   5.758   4.498  0.1762  0.2264  0.7479
 3733TIP3   OH211204   2.664   1.604   2.214 -0.0954  0.1864  0.1225
 3733TIP3    H111205   2.603   1.579   2.144  0.1511 -1.6914  0.5477
 3733TIP3    H211206   2.741   1.637   2.167 -0.9966  1.6413 -0.4274
 3734TIP3   OH211207   0.352   2.842   5.193  0.5030 -0.3950  0.7182
 3734TIP3    H111208   0.318   2.906   5.131 -0.0470 -0.6841  0.7126
 3734TIP3    H211209   0.412   2.788   5.142 -0.7076 -1.2688  0.1621
 3735TIP3   OH211210   0.236   4.522   3.737  0.0440 -0.1013  0.2364
 3735TIP3    H111211   0.243   4.609   3.776  1.7172 -0.6727  1.3095
 3735TIP3    H211212   0.143   4.511   3.720 -0.0206  2.7752 -2.0513
 3736TIP3   OH211213   3.949   4.088   3.545  0.5957 -0.2623  0.2238
 3736TIP3    H111214   3.913   4.073   3.632  0.7756  0.3943  0.4158
 3736TIP3    H211215   4.026   4.031   3.541 -0.3937 -1.6253 -0.1672
 3737TIP3   OH211216   3.362   5.239   2.063  0.2655  0.5337 -0.1563
 3737TIP3    H111217   3.297   5.186   2.109 -0.2224  0.2703 -1.1238
 3737TIP3    H211218   3.411   5.176   2.010  1.6937  0.6430  0.9531
 3738TIP3   OH211219   6.275   1.096   0.839  0.5604 -0.3890  0.1816
 3738TIP3    H111220   6.370   1.105   0.831  0.5098  1.5020  1.0846
 3738TIP3    H211221   6.240   1.146   0.765  0.2880  0.5554  0.9194
 3739TIP3   OH211222   1.517   1.577   4.615 -0.3656  1.1595  0.4568
 3739TIP3    H111223   1.430   1.608   4.641 -1.1485 -0.6994  0.2393
 3739TIP3    H211224   1.526   1.605   4.524 -0.6750  1.4936  0.5264
 3740TIP3   OH211225   4.781   2.492   4.035  0.9042 -0.3235  0.1446
 3740TIP3    H111226   4.784   2.472   3.942  0.0838 -0.1376  0.0673
 3740TIP3    H211227   4.794   2.587   4.040 -1.4476  0.0679  0.0020
 3741TIP3   OH211228   4.416   4.174   4.225  0.4771  0.2559  0.0639
 3741TIP3    H111229   4.468   4.242   4.268 -1.3331  2.6299 -1.1959
 3741TIP3    H211230   4.340   4.163   4.282  0.5638 -0.4199  0.0487
 3742TIP3   OH211231   2.487   3.296   4.159  0.6073  0.0709 -0.1875
 3742TIP3    H111232   2.509   3.349   4.236 -0.1843 -0.4856  0.4493
 3742TIP3    H211233   2.539   3.216   4.170  1.7306  0.6451 -1.0970
 3743TIP3   OH211234   6.267   1.188   1.346 -0.2641 -0.5122 -0.5346
 3743TIP3    H111235   6.354   1.226   1.333 -0.4939 -0.3515 -1.6622
 3743TIP3    H211236   6.226   1.190   1.259 -1.2661 -0.9057 -0.0883
 3744TIP3   OH211237   3.178   4.584   4.402 -0.4483  0.5616  0.3529
 3744TIP3    H111238   3.195   4.624   4.317 -0.3659  2.0090  1.0096
 3744TIP3    H211239   3.090   4.549   4.395 -1.0901  2.1182  0.1558
 3745TIP3   OH211240   6.189   4.127   4.578  0.3013  0.3718  0.1939
 3745TIP3    H111241   6.258   4.148   4.515  0.3498 -1.5579 -0.4765
 3745TIP3    H211242   6.230   4.140   4.664  1.0079  0.7344 -0.1866
 3746TIP3   OH211243   4.082   1.143   1.859  0.3117  0.9929 -0.2919
 3746TIP3    H111244   4.121   1.080   1.919  1.2915  1.2525 -0.6341
 3746TIP3    H211245   4.055   1.216   1.915 -0.0930  0.6203  0.0029
 3747TIP3   OH211246   1.052   2.147  -0.018 -0.3896  0.2598 -0.3679
 3747TIP3    H111247   1.093   2.062  -0.004  1.6792  0.9104 -2.0173
 3747TIP3    H211248   1.102   2.208   0.037 -1.3334  0.5808  0.1740
 3748TIP3   OH211249   1.908   1.071   3.119  0.4166  0.1435  0.0478
 3748TIP3    H111250   1.874   1.092   3.032  0.6368 -0.1088 -0.0989
 3748TIP3    H211251   1.841   1.105   3.179 -0.9089 -1.7126 -0.2722
 3749TIP3   OH211252   5.582   1.403   4.536  0.0224 -0.8402 -0.5950
 3749TIP3    H111253   5.572   1.470   4.605 -2.2372 -0.5585 -1.1185
 3749TIP3    H211254   5.668   1.365   4.552  0.7792  1.2238  0.5998
 3750TIP3   OH211255   3.782   0.872   1.515  0.0643  0.0049 -1.2684
 3750TIP3    H111256   3.771   0.927   1.594 -1.4616  1.0643 -2.1544
 3750TIP3    H211257   3.860   0.906   1.473  2.3086 -2.0655  0.8629
 3751TIP3   OH211258   2.444   3.876   3.372  0.5393 -0.2193  0.2481
 3751TIP3    H111259   2.478   3.802   3.422 -1.0543 -2.1468 -1.3533
 3751TIP3    H211260   2.354   3.888   3.402  0.5771  0.6926  0.0545
 3752TIP3   OH211261   2.423   1.005   2.486 -0.8323  0.0588  0.3971
 3752TIP3    H111262   2.399   0.922   2.445 -0.4298 -0.9087  2.0336
 3752TIP3    H211263   2.510   1.024   2.451  0.1384 -1.5068  1.8135
 3753TIP3   OH211264   0.585   2.234   1.549 -0.2025  0.4392 -0.0488
 3753TIP3    H111265   0.661   2.223   1.491  0.9196  0.3208  1.3802
 3753TIP3    H211266   0.509   2.222   1.492  0.8569 -0.7106 -1.2986
 3754TIP3   OH211267   5.147   2.298   3.211 -0.4451 -0.1630  0.7209
 3754TIP3    H111268   5.139   2.345   3.128  0.5576  0.1453  0.7771
 3754TIP3    H211269   5.058   2.272   3.234 -1.0757  1.9058  0.7878
 3755TIP3   OH211270   6.160   4.787   0.650  0.6680  0.4547  0.0504
 3755TIP3    H111271   6.226   4.734   0.607  1.3461  1.3708 -0.0529
 3755TIP3    H211272   6.113   4.830   0.579  1.7667  1.9427  0.1816
 3756TIP3   OH211273   1.532   0.184   0.052 -0.2976  0.4222 -0.3968
 3756TIP3    H111274   1.564   0.103   0.092  2.0322  0.8481 -1.2536
 3756TIP3    H211275   1.565   0.254   0.108  0.6457  0.8956 -1.5026
 3757TIP3   OH211276   0.527   5.572   4.413 -0.1869  0.2952  0.5480
 3757TIP3    H111277   0.494   5.524   4.489 -1.4734  0.4571  0.1195
 3757TIP3    H211278   0.566   5.505   4.357 -0.6794 -0.0564  0.6184
 3758TIP3   OH211279   4.844   4.037   4.824 -0.2658 -0.6620  0.5602
 3758TIP3    H111280   4.865   3.949   4.794 -0.2479  0.0483 -1.6185
 3758TIP3    H211281   4.749   4.043   4.816 -0.2810 -0.5125  0.8268
 3759TIP3   OH211282   0.107   3.512   3.442 -0.4040  0.1928  0.3600
 3759TIP3    H111283   0.184   3.456   3.430 -1.4045 -1.9521  2.8622
 3759TIP3    H211284   0.059   3.504   3.360 -0.3934 -2.5774  0.5234
 3760TIP3   OH211285   3.255   1.658   1.610  0.0376 -0.2200  0.5083
 3760TIP3    H111286   3.348   1.639   1.612 -0.1139 -1.2443 -0.7559
 3760TIP3    H211287   3.238   1.684   1.520 -1.3076 -2.4560  0.0348
 3761TIP3   OH211288   4.294   1.766   1.861  0.3954  0.3733  0.2892
 3761TIP3    H111289   4.388   1.783   1.864  0.7412 -1.4680  1.5197
 3761TIP3    H211290   4.263   1.787   1.949 -0.0563 -0.4380  0.3291
 3762TIP3   OH211291   1.207   0.314   1.763 -0.3394  0.3605 -0.0265
 3762TIP3    H111292   1.152   0.368   1.706  0.1052 -1.4103 -2.2776
 3762TIP3    H211293   1.248   0.377   1.823 -3.5590  1.9110  0.7382
 3763TIP3   OH211294   1.053   3.624   3.755 -0.7191 -0.3342 -0.2052
 3763TIP3    H111295   1.037   3.702   3.808  1.8096  0.1120  0.0431
 3763TIP3    H211296   1.027   3.649   3.667 -2.0495 -0.0105  0.2635
 3764TIP3   OH211297   2.965   2.633   2.669 -0.2420 -0.0127 -0.1717
 3764TIP3    H111298   2.937   2.652   2.759 -0.0675 -0.2929 -0.0570
 3764TIP3    H211299   3.035   2.696   2.651 -0.6229  0.3846 -0.2955
 3765TIP3   OH211300   2.272   2.263   4.745 -0.1138 -0.6501  0.2165
 3765TIP3    H111301   2.205   2.230   4.686  0.8199 -1.1265 -0.6112
 3765TIP3    H211302   2.353   2.221   4.715  0.4850 -0.4249  1.4564
 3766TIP3   OH211303   3.069   3.400   0.413  0.1007 -0.0724  0.2145
 3766TIP3    H111304   3.063   3.396   0.508 -0.2546  1.7692  0.3095
 3766TIP3    H211305   2.990   3.447   0.385  0.1104 -0.7240 -1.0160
 3767TIP3   OH211306   3.902   2.298   0.126  0.0552  0.1086  0.2254
 3767TIP3    H111307   3.887   2.204   0.128  1.1476 -0.1062 -0.9393
 3767TIP3    H211308   3.863   2.327   0.043 -0.4363  0.7221  0.6599
 3768TIP3   OH211309   4.464   3.122   4.592 -0.7352 -0.2400  0.3335
 3768TIP3    H111310   4.446   3.029   4.606 -3.1801 -0.0236 -0.8379
 3768TIP3    H211311   4.459   3.134   4.497 -2.7883  1.4165  0.5687
 3769TIP3   OH211312   2.168   1.350   0.890 -0.0149  0.0026 -0.2822
 3769TIP3    H111313   2.074   1.334   0.898 -0.0315  0.3972  0.4048
 3769TIP3    H211314   2.205   1.317   0.971  0.4056  0.0767 -0.4423
 3770TIP3   OH211315   0.561   2.126   2.835  0.0755 -0.0278 -0.0745
 3770TIP3    H111316   0.467   2.145   2.828 -0.2562 -0.8165  1.6078
 3770TIP3    H211317   0.589   2.176   2.912  0.9449 -0.1409 -0.3121
 3771TIP3   OH211318   5.836   5.253   1.523  0.1962  0.2405 -0.2164
 3771TIP3    H111319   5.752   5.266   1.478 -0.6004 -2.4804  0.3019
 3771TIP3    H211320   5.889   5.204   1.460  0.3819 -0.4324  0.4525
 3772TIP3   OH211321   6.258   3.189   0.611 -0.0170 -0.7889 -0.5660
 3772TIP3    H111322   6.286   3.273   0.574  1.0464 -1.2045 -0.7224
 3772TIP3    H211323   6.229   3.212   0.700 -0.1495 -0.1854 -0.7586
 3773TIP3   OH211324   0.997   2.948   0.808  0.5196 -0.1865  0.2923
 3773TIP3    H111325   0.971   3.038   0.829  1.3024  0.1703 -0.1977
 3773TIP3    H211326   1.087   2.942   0.841  1.0170 -0.2915 -1.0542
 3774TIP3   OH211327   2.953   4.492   1.794  0.3425  0.5641 -0.2821
 3774TIP3    H111328   2.985   4.403   1.780  0.0239  0.2300  0.9956
 3774TIP3    H211329   2.957   4.532   1.708  0.9997 -0.5194 -0.7815
 3775TIP3   OH211330   5.901   3.355   0.019  0.2196 -0.2257  0.3348
 3775TIP3    H111331   5.840   3.349   0.093  0.2486  0.4166  0.4133
 3775TIP3    H211332   5.918   3.264  -0.005 -0.6451 -0.4195  0.4185
 3776TIP3   OH211333   2.255   4.230   2.353 -0.0741 -0.1603  0.4082
 3776TIP3    H111334   2.166   4.266   2.352  0.1158  0.3144 -0.6463
 3776TIP3    H211335   2.288   4.247   2.265 -0.2479 -3.7169 -0.4718
 3777TIP3   OH211336   4.628   2.762   4.823 -0.1170  0.0183 -0.0290
 3777TIP3    H111337   4.623   2.668   4.807 -0.9163  0.0977 -0.3083
 3777TIP3    H211338   4.704   2.791   4.773  0.0614 -0.4609 -0.0414
 3778TIP3   OH211339   2.652   4.270   2.519 -0.1171 -0.1192  0.1692
 3778TIP3    H111340   2.668   4.180   2.489  0.3722 -0.4215  1.2623
 3778TIP3    H211341   2.665   4.324   2.441  3.0230 -0.6683  0.1715
 3779TIP3   OH211342   1.865   2.611   2.121  0.0654 -0.0863 -0.7746
 3779TIP3    H111343   1.896   2.616   2.030  1.5586  1.6728 -0.2413
 3779TIP3    H211344   1.942   2.634   2.173 -1.4991  2.0436  0.7731
 3780TIP3   OH211345   0.951  -0.037   2.727  0.1535 -0.3800 -1.1274
 3780TIP3    H111346   0.926   0.027   2.794 -1.9607 -1.8013 -0.4556
 3780TIP3    H211347   0.948   0.012   2.645  1.1869  0.9892 -0.3873
 3781TIP3   OH211348   6.106   4.828   1.930 -0.1511 -0.6358 -0.2741
 3781TIP3    H111349   6.036   4.838   1.994 -0.0190  0.5613 -0.2968
 3781TIP3    H211350   6.074   4.872   1.852  1.2491  1.4695  0.2326
 3782TIP3   OH211351   5.008   1.694   1.074  0.0372  0.3169 -0.1270
 3782TIP3    H111352   4.998   1.788   1.090  0.7606  1.1935 -3.8878
 3782TIP3    H211353   5.101   1.677   1.093 -0.2325  0.1671  1.1534
 3783TIP3   OH211354   0.229   0.784   1.356 -1.0169 -0.3323 -0.1753
 3783TIP3    H111355   0.244   0.774   1.262  4.3432  1.2353  0.2190
 3783TIP3    H211356   0.230   0.695   1.390  1.1651 -0.7983 -1.2800
 3784TIP3   OH211357   3.726   2.843   4.389  0.2138  0.0403 -0.5063
 3784TIP3    H111358   3.792   2.810   4.328 -0.9517 -2.0065 -0.7588
 3784TIP3    H211359   3.652   2.784   4.377 -0.2968 -0.0452  2.4256
 3785TIP3   OH211360   5.707   1.921   1.823  0.5057 -0.6074 -0.0376
 3785TIP3    H111361   5.755   1.909   1.741 -1.3464  0.6655 -1.4020
 3785TIP3    H211362   5.760   1.982   1.873  1.3881 -0.9635 -0.5037
 3786TIP3   OH211363   5.277   2.056   1.474 -0.0799  0.3093  0.6603
 3786TIP3    H111364   5.300   2.013   1.391 -1.7999 -1.5742  1.0910
 3786TIP3    H211365   5.356   2.048   1.528  0.0385 -1.2368  0.2852
 3787TIP3   OH211366   3.659   4.459   1.570 -0.1109 -0.1599 -0.2511
 3787TIP3    H111367   3.754   4.450   1.565 -0.1217  0.1449 -1.1346
 3787TIP3    H211368   3.625   4.389   1.515 -0.3990 -0.2975  0.1026
 3788TIP3   OH211369   4.244   3.660   2.522  0.0076 -0.4968  0.6658
 3788TIP3    H111370   4.275   3.734   2.574 -0.8303  0.8273 -0.6699
 3788TIP3    H211371   4.158   3.639   2.560 -0.2095 -0.1150  0.3826
 3789TIP3   OH211372   6.265   2.566   1.782 -0.1675 -0.0469 -0.1495
 3789TIP3    H111373   6.184   2.525   1.815  0.3038  0.0990  1.2252
 3789TIP3    H211374   6.323   2.568   1.858  0.3218  1.9309 -0.5404
 3790TIP3   OH211375   0.221   3.669   2.793  0.2953  0.6901  0.0404
 3790TIP3    H111376   0.146   3.611   2.807  0.1969  0.8585  0.2235
 3790TIP3    H211377   0.182   3.752   2.765  0.4709  0.4763 -0.8660
 3791TIP3   OH211378   0.327   4.696   4.489 -0.0559  0.1010  0.0990
 3791TIP3    H111379   0.243   4.653   4.506  0.4925 -0.6336  1.0253
 3791TIP3    H211380   0.319   4.729   4.399 -2.0607  1.7430  0.7835
 3792TIP3   OH211381   5.089   4.134   4.705 -0.3980  0.4111  0.1317
 3792TIP3    H111382   5.000   4.104   4.688  0.9243 -3.5656 -0.9896
 3792TIP3    H211383   5.109   4.103   4.794 -0.6291  2.9137  1.1263
 3793TIP3   OH211384   3.951   1.835   0.452  0.4468  0.0170 -0.2458
 3793TIP3    H111385   3.894   1.899   0.409  0.5529 -0.1673 -0.6635
 3793TIP3    H211386   3.981   1.879   0.532 -3.9555 -1.4595  2.5751
 3794TIP3   OH211387   4.741   2.426   4.463 -0.1292  0.3347 -0.4497
 3794TIP3    H111388   4.734   2.379   4.380 -0.0461  1.1570 -0.9315
 3794TIP3    H211389   4.774   2.361   4.525  0.0013 -0.2321 -1.1051
 3795TIP3   OH211390   0.335   3.111   4.676 -0.5154  0.0526  0.1955
 3795TIP3    H111391   0.305   3.153   4.596 -0.0289  1.8662  0.9278
 3795TIP3    H211392   0.354   3.021   4.649 -1.8491  0.1900 -1.3557
 3796TIP3   OH211393   5.308   1.648   3.501 -0.1555  0.2216 -0.1088
 3796TIP3    H111394   5.338   1.739   3.499  0.6814 -0.0634 -1.8782
 3796TIP3    H211395   5.219   1.651   3.467  0.2165  0.2848 -1.1177
 3797TIP3   OH211396   1.385   5.694   4.776  0.2274  0.1398  0.1814
 3797TIP3    H111397   1.388   5.601   4.796 -1.8650  0.1150  0.6065
 3797TIP3    H211398   1.362   5.698   4.683 -0.2864  0.2179  0.3088
 3798TIP3   OH211399   0.106   0.988   0.456  0.0818  0.1085 -0.0984
 3798TIP3    H111400   0.130   1.078   0.478 -0.6322  0.4752 -0.7746
 3798TIP3    H211401   0.177   0.958   0.400 -0.4792  0.8306 -1.2336
 3799TIP3   OH211402   2.985   1.615   5.066 -0.2548  0.3056  0.6897
 3799TIP3    H111403   2.893   1.608   5.044 -0.3938  0.9512  1.0353
 3799TIP3    H211404   3.005   1.708   5.058  0.3647  0.1769  0.6342
 3800TIP3   OH211405   5.894   0.757   0.599 -0.0803  0.6100  0.1651
 3800TIP3    H111406   5.964   0.822   0.593  0.0563  0.5227  0.6984
 3800TIP3    H211407   5.876   0.751   0.693 -0.3776  0.1811  0.0823
 3801TIP3   OH211408   4.248   2.471   0.774  0.4354 -0.1062  0.2750
 3801TIP3    H111409   4.230   2.528   0.849 -1.7831 -0.2015 -0.1184
 3801TIP3    H211410   4.219   2.384   0.802 -0.2944 -0.1721 -0.6162
 3802TIP3   OH211411   4.350   5.351   4.465  0.1728  0.2186 -0.4133
 3802TIP3    H111412   4.386   5.321   4.382 -0.7182  0.8079 -1.0333
 3802TIP3    H211413   4.370   5.445   4.467  2.2395 -0.1743  1.1372
 3803TIP3   OH211414   2.390   4.662   2.486  0.4995 -0.4561  0.0397
 3803TIP3    H111415   2.435   4.652   2.402  1.9726  0.5101  0.6736
 3803TIP3    H211416   2.391   4.574   2.524  1.3726 -0.5559 -0.1985
 3804TIP3   OH211417   3.037   5.279   1.783 -0.1762  0.3527 -0.2348
 3804TIP3    H111418   3.084   5.201   1.813  1.4476  1.1757 -0.5336
 3804TIP3    H211419   2.961   5.245   1.737  0.8233 -1.0884 -0.8895
 3805TIP3   OH211420   4.134   5.045   2.461 -0.1949 -0.6101  0.3878
 3805TIP3    H111421   4.081   4.976   2.422 -1.2619  0.7343 -0.6351
 3805TIP3    H211422   4.085   5.072   2.539  0.3747 -1.1869  0.9590
 3806TIP3   OH211423   4.189   4.545   4.919  0.2000  0.2130 -0.3830
 3806TIP3    H111424   4.140   4.615   4.963  1.9250  1.3399 -0.1461
 3806TIP3    H211425   4.183   4.567   4.826 -2.2881 -1.4053 -0.6941
 3807TIP3   OH211426   0.826   5.802   1.774  0.3655  0.3860  0.2651
 3807TIP3    H111427   0.784   5.886   1.756 -1.6154 -0.4520  0.6720
 3807TIP3    H211428   0.912   5.825   1.811  1.1532  2.1642 -2.3857
 3808TIP3   OH211429   2.583   1.262   3.271 -0.4648  0.0656 -0.5662
 3808TIP3    H111430   2.617   1.205   3.340  0.1532  3.1429  1.8955
 3808TIP3    H211431   2.554   1.202   3.202 -3.1741 -3.4371  3.1749
 3809TIP3   OH211432   4.602   2.337   3.315  0.1168  0.3484  0.0763
 3809TIP3    H111433   4.588   2.302   3.403 -2.7427 -1.7112 -1.0291
 3809TIP3    H211434   4.530   2.398   3.301  0.2938  0.3356 -0.9885
 3810TIP3   OH211435   4.302   1.836   3.673 -0.2293 -0.1895 -0.0066
 3810TIP3    H111436   4.329   1.767   3.612 -1.6092 -0.3328 -0.4740
 3810TIP3    H211437   4.210   1.852   3.653  0.2431  2.3892 -0.4713
 3811TIP3   OH211438   2.051   4.693   2.081  0.2011 -0.3258  0.6822
 3811TIP3    H111439   2.097   4.771   2.049 -0.4831 -0.3904 -0.5290
 3811TIP3    H211440   2.092   4.620   2.035 -1.0717 -0.3817 -0.4228
 3812TIP3   OH211441   0.406   4.974   4.594 -0.4327 -0.6463  0.0393
 3812TIP3    H111442   0.439   4.898   4.546 -0.9102 -0.1049 -1.1750
 3812TIP3    H211443   0.318   4.948   4.621 -0.0661 -1.0519  0.8904
 3813TIP3   OH211444   4.436   3.493   2.622  0.0800  0.6122 -0.0577
 3813TIP3    H111445   4.448   3.413   2.570 -0.0396  0.4794  0.1179
 3813TIP3    H211446   4.353   3.529   2.592  0.6693  1.2808 -0.9396
 3814TIP3   OH211447   1.860   2.487   0.499  0.8846 -0.1126  0.1080
 3814TIP3    H111448   1.842   2.563   0.554  2.0161  0.4606 -0.2842
 3814TIP3    H211449   1.848   2.411   0.557  0.2636  0.3909  0.6412
 3815TIP3   OH211450   4.651   4.680   1.664  0.1811  0.7554  0.6593
 3815TIP3    H111451   4.738   4.674   1.625 -0.1371 -1.6011  0.1441
 3815TIP3    H211452   4.622   4.769   1.644  1.5891  0.8745 -1.1050
 3816TIP3   OH211453   5.024   3.718   1.115  0.2083  0.0147  0.0538
 3816TIP3    H111454   5.052   3.667   1.192 -0.2754  0.6529  0.6604
 3816TIP3    H211455   5.048   3.808   1.136  0.3660  0.1590 -0.6949
 3817TIP3   OH211456   5.658   5.191   2.047  0.8467 -0.5567 -0.2292
 3817TIP3    H111457   5.573   5.166   2.082  1.5154 -1.5221  0.7923
 3817TIP3    H211458   5.642   5.271   1.997 -0.3961  0.1329  1.2152
 3818TIP3   OH211459   4.560   2.295   3.597  0.2860 -0.6279 -0.5924
 3818TIP3    H111460   4.536   2.215   3.644 -1.5757 -0.7848 -1.6905
 3818TIP3    H211461   4.548   2.364   3.662 -0.3588 -1.0246 -0.2762
 3819TIP3   OH211462   4.710   4.286   2.585  0.4191  0.3650 -0.2240
 3819TIP3    H111463   4.730   4.379   2.571  0.5140 -0.0502 -3.7262
 3819TIP3    H211464   4.628   4.287   2.635  0.5555  2.3121  0.0598
 3820TIP3   OH211465   4.386   3.338   0.268  0.1228 -0.8131 -0.7467
 3820TIP3    H111466   4.377   3.247   0.241  1.4285 -1.1069 -0.2847
 3820TIP3    H211467   4.318   3.384   0.220 -1.1942 -2.1699 -0.2746
 3821TIP3   OH211468   5.631   2.356   4.560 -0.2915  0.4640  0.0242
 3821TIP3    H111469   5.590   2.273   4.534  0.7869  0.0273 -0.3135
 3821TIP3    H211470   5.643   2.403   4.477  3.1595 -0.9314 -0.4006
 3822TIP3   OH211471   1.872   4.441   0.484 -0.1459  0.1407  0.0166
 3822TIP3    H111472   1.966   4.449   0.467 -0.2244 -0.8857 -0.9793
 3822TIP3    H211473   1.846   4.361   0.440 -1.3310 -0.0812  1.0565
 3823TIP3   OH211474   5.644   4.819   4.450  0.5260  0.6718 -0.3575
 3823TIP3    H111475   5.621   4.847   4.362  1.0957  1.0349 -0.3935
 3823TIP3    H211476   5.592   4.740   4.465  1.0950  0.0919 -1.3496
 3824TIP3   OH211477   6.143   4.410   3.599  0.0223 -0.3010 -0.0503
 3824TIP3    H111478   6.133   4.317   3.619  1.2450 -0.2917  0.6751
 3824TIP3    H211479   6.060   4.434   3.558 -0.1421 -1.8153 -0.6839
 3825TIP3   OH211480   4.253   1.078   3.012  0.2232 -0.0823 -0.0580
 3825TIP3    H111481   4.210   1.158   2.982  1.7468  0.3903 -1.1122
 3825TIP3    H211482   4.181   1.021   3.041 -1.0625  0.7938 -1.3950
 3826TIP3   OH211483   3.413   0.213   2.470  0.5223 -0.3137 -0.3010
 3826TIP3    H111484   3.504   0.237   2.487  0.8621 -0.0008 -2.3015
 3826TIP3    H211485   3.373   0.293   2.435 -0.3344 -0.6412 -0.0903
 3827TIP3   OH211486   1.456   4.858   2.487 -0.4082 -0.3641 -0.3827
 3827TIP3    H111487   1.487   4.928   2.429  1.6914  0.6510  1.7841
 3827TIP3    H211488   1.523   4.789   2.478 -0.8582 -0.8231 -0.2615
 3828TIP3   OH211489   2.492   0.429   4.570  0.1242 -0.5599 -0.2605
 3828TIP3    H111490   2.502   0.517   4.605  0.0024 -0.2872 -0.9022
 3828TIP3    H211491   2.505   0.372   4.646 -0.7920  0.0317  0.3781
 3829TIP3   OH211492   3.117   1.665   2.130 -0.0621  0.1750 -0.5782
 3829TIP3    H111493   3.186   1.646   2.067  0.2999 -1.5221  0.2502
 3829TIP3    H211494   3.156   1.645   2.215 -1.5283 -0.7693 -0.0816
 3830TIP3   OH211495   6.201   1.100   3.050  0.7698 -0.5626  0.2186
 3830TIP3    H111496   6.294   1.108   3.074  1.2352  1.6081 -1.9519
 3830TIP3    H211497   6.161   1.182   3.078  0.6502  0.6556 -3.0392
 3831TIP3   OH211498   5.542   4.860   4.193  0.0179  0.0369  0.0608
 3831TIP3    H111499   5.573   4.770   4.186  0.4181 -0.0043  1.7979
 3831TIP3    H211500   5.447   4.853   4.191 -0.0056 -0.6242  1.5674
 3832TIP3   OH211501   4.477   5.591   1.787 -0.1773  0.3902  0.9094
 3832TIP3    H111502   4.523   5.671   1.762 -0.3771  0.7549  1.7001
 3832TIP3    H211503   4.401   5.621   1.837  0.1148 -0.3188  1.7992
 3833TIP3   OH211504   1.194   3.524   1.973  0.8944  0.0455 -0.6350
 3833TIP3    H111505   1.129   3.588   1.945 -1.4785 -1.4860  1.0080
 3833TIP3    H211506   1.163   3.440   1.938  0.8492 -1.0202  1.7102
 3834TIP3   OH211507   3.024   3.891   1.984 -0.0679 -0.7647 -0.1261
 3834TIP3    H111508   3.021   3.933   1.898 -1.6402 -0.7949 -0.1068
 3834TIP3    H211509   2.972   3.811   1.974  0.8016 -1.4425  0.5203
 3835TIP3   OH211510   0.209   0.412   0.994 -0.2347 -0.7693 -0.3150
 3835TIP3    H111511   0.206   0.497   0.951 -0.8301  0.2134  1.5688
 3835TIP3    H211512   0.203   0.349   0.922  1.3471  0.7110 -1.8638
 3836TIP3   OH211513   5.492   1.970   1.644  0.4709 -0.1402 -0.1769
 3836TIP3    H111514   5.410   1.920   1.644  0.1908  0.3133 -0.4473
 3836TIP3    H211515   5.548   1.923   1.705 -0.4280  0.2301  0.9773
 3837TIP3   OH211516   3.542   5.708   4.860 -0.1822  0.6155  0.1905
 3837TIP3    H111517   3.636   5.713   4.880  0.1297  0.2905 -1.1057
 3837TIP3    H211518   3.533   5.751   4.775 -1.1699  0.3908  0.1702
 3838TIP3   OH211519   5.838   4.639   2.836  0.5245 -0.0622  0.0381
 3838TIP3    H111520   5.781   4.714   2.852 -0.5784 -0.9985  0.6684
 3838TIP3    H211521   5.902   4.641   2.907  3.2047  2.6205 -2.1688
 3839TIP3   OH211522   0.563   3.362   4.177  0.0850 -0.2241 -0.4725
 3839TIP3    H111523   0.472   3.340   4.158 -0.8964  0.6860  2.5741
 3839TIP3    H211524   0.589   3.420   4.106 -1.9281 -0.0089 -1.0945
 3840TIP3   OH211525   6.170   5.792   3.160 -0.1268  0.2859 -0.1238
 3840TIP3    H111526   6.170   5.848   3.082  0.4653  0.5640  0.0699
 3840TIP3    H211527   6.085   5.749   3.159 -0.1955  0.4280 -0.8275
 3841TIP3   OH211528   3.502   2.673   4.318  0.5307  0.5860 -0.2120
 3841TIP3    H111529   3.458   2.712   4.393 -0.6310 -0.3595 -0.3621
 3841TIP3    H211530   3.486   2.734   4.246  1.8115  1.5931  0.3049
 3842TIP3   OH211531   0.285   5.615  -0.005  0.1542 -0.4326  0.4443
 3842TIP3    H111532   0.330   5.532   0.009 -1.4050 -1.0899  1.7182
 3842TIP3    H211533   0.324   5.674   0.059 -2.3324 -1.6496  3.2781
 3843TIP3   OH211534   5.157   0.762   4.176  0.4600  0.0516 -1.0096
 3843TIP3    H111535   5.063   0.753   4.194  0.5444  0.8704 -0.0605
 3843TIP3    H211536   5.164   0.752   4.081 -0.4740 -0.9072 -0.9969
 3844TIP3   OH211537   0.343   0.507   3.113  0.1557  0.1721  0.1619
 3844TIP3    H111538   0.252   0.487   3.133  0.0628  2.2386  2.1765
 3844TIP3    H211539   0.391   0.427   3.136 -1.0372 -0.6786 -0.2269
 3845TIP3   OH211540   4.352   5.868   1.162  0.4572  0.0118 -0.0210
 3845TIP3    H111541   4.278   5.866   1.224  0.8708  0.3205  0.4891
 3845TIP3    H211542   4.427   5.895   1.215  0.5290  1.7714 -0.9741
 3846TIP3   OH211543   3.793   3.107   3.287  0.0385  0.4681 -0.3081
 3846TIP3    H111544   3.729   3.141   3.224 -0.0021 -0.5848 -0.8780
 3846TIP3    H211545   3.878   3.126   3.247  0.0481  0.9386 -0.0605
 3847TIP3   OH211546   4.190   5.015   1.272 -0.7224  0.2490 -0.2246
 3847TIP3    H111547   4.249   4.940   1.268 -0.3012  0.5645  0.1344
 3847TIP3    H211548   4.246   5.090   1.288 -1.2270  0.5388  0.2202
 3848TIP3   OH211549   1.268   4.099   4.591  0.2142 -0.1714  0.8818
 3848TIP3    H111550   1.251   4.187   4.556 -0.4413 -0.4350  0.5066
 3848TIP3    H211551   1.285   4.046   4.513  2.8930  0.0637  1.2294
 3849TIP3   OH211552   2.182   3.727   2.505  0.0571  0.2842  0.1522
 3849TIP3    H111553   2.219   3.643   2.478  2.0959  1.4361 -0.8926
 3849TIP3    H211554   2.143   3.710   2.591 -0.0580 -1.8226 -0.2657
 3850TIP3   OH211555   3.528   1.114   3.316  0.2429  0.4502  0.2958
 3850TIP3    H111556   3.499   1.120   3.225 -1.4244  0.7376  0.7966
 3850TIP3    H211557   3.583   1.036   3.319 -2.5344 -1.7175 -0.3143
 3851TIP3   OH211558   4.978   3.559   0.371  0.0239 -0.2691 -0.2397
 3851TIP3    H111559   5.067   3.594   0.372 -0.4345  0.9671 -0.0518
 3851TIP3    H211560   4.987   3.468   0.398  0.9194  0.6291  2.8814
 3852TIP3   OH211561   3.174   5.446   4.265 -0.2219 -0.2486 -0.0460
 3852TIP3    H111562   3.236   5.377   4.242 -1.3469 -1.5108  0.6053
 3852TIP3    H211563   3.091   5.419   4.226 -0.8675  0.3065  0.8965
 3853TIP3   OH211564   5.018   3.805   0.196  0.5575 -0.2041  0.0613
 3853TIP3    H111565   5.032   3.820   0.102  0.0695  1.9366  0.2710
 3853TIP3    H211566   4.978   3.718   0.201 -1.7174  0.6055 -1.9513
 3854TIP3   OH211567   3.313   5.959   4.539  0.2751  0.1690  0.7305
 3854TIP3    H111568   3.232   5.909   4.532 -0.0160  0.7624 -0.3456
 3854TIP3    H211569   3.293   6.032   4.597  0.1980  0.0143  0.8976
 3855TIP3   OH211570   1.374   4.801   4.000  0.1769  0.5118 -0.2932
 3855TIP3    H111571   1.438   4.735   3.975  0.9306  1.5807 -1.2718
 3855TIP3    H211572   1.299   4.785   3.942  0.2783  0.3985 -0.3912
 3856TIP3   OH211573   3.278   1.084   3.835  0.0962  0.1862 -0.2419
 3856TIP3    H111574   3.346   1.037   3.787  1.3371  1.8018 -0.1458
 3856TIP3    H211575   3.250   1.154   3.776 -1.9095 -0.7418 -0.4875
 3857TIP3   OH211576   0.579   1.940   3.491 -0.1634  0.2976 -0.2349
 3857TIP3    H111577   0.615   1.902   3.411 -1.0384 -0.5775 -0.2351
 3857TIP3    H211578   0.654   1.946   3.550 -0.0142 -1.7903 -0.1202
 3858TIP3   OH211579   0.694   4.293   0.350  0.0096  0.1492  0.3085
 3858TIP3    H111580   0.685   4.238   0.427  1.4285  0.1958  0.5421
 3858TIP3    H211581   0.682   4.382   0.382  0.2420  0.1442  0.4095
 3859TIP3   OH211582   0.177   4.679   1.136 -0.3382 -0.2613 -0.2720
 3859TIP3    H111583   0.255   4.722   1.172 -1.3187  1.7813 -0.5117
 3859TIP3    H211584   0.155   4.613   1.202  0.5690  0.3145  0.6440
 3860TIP3   OH211585   5.995   5.611   4.412  0.1632 -0.4218  0.0658
 3860TIP3    H111586   5.908   5.616   4.450 -0.1091  1.4139 -0.7059
 3860TIP3    H211587   6.005   5.519   4.388 -1.9144 -0.5400 -0.5955
 3861TIP3   OH211588   1.022   0.499   1.683  0.0809  0.3891 -0.2707
 3861TIP3    H111589   1.004   0.512   1.776 -1.1571  2.9161 -0.7662
 3861TIP3    H211590   0.937   0.511   1.640  0.5637 -1.0372 -1.7459
 3862TIP3   OH211591   5.668   1.284   2.202 -0.0231  0.0830  0.1354
 3862TIP3    H111592   5.598   1.223   2.227 -1.6322  1.5947 -0.5092
 3862TIP3    H211593   5.633   1.333   2.128  1.0515  2.0626  0.8482
 3863TIP3   OH211594   3.088   3.201   1.350 -0.3425 -0.0204 -0.3445
 3863TIP3    H111595   3.096   3.294   1.332 -1.2331  0.2807  0.7144
 3863TIP3    H211596   2.996   3.181   1.331  0.0547 -0.9001 -1.4654
 3864TIP3   OH211597   0.323   0.284   1.929 -0.0696  0.1544  0.2370
 3864TIP3    H111598   0.269   0.313   1.855 -1.3651  1.0677  1.4728
 3864TIP3    H211599   0.413   0.301   1.901 -0.4894 -0.1202 -1.3654
 3865TIP3   OH211600   0.259   0.242   2.606  0.1640  0.5844 -0.1093
 3865TIP3    H111601   0.178   0.281   2.574  0.3418  0.5269 -0.6302
 3865TIP3    H211602   0.284   0.297   2.680 -1.2602 -0.3971  1.1608
 3866TIP3   OH211603   2.424   1.253   2.215 -0.3614 -0.1978 -0.2876
 3866TIP3    H111604   2.343   1.215   2.249 -0.0572  0.2299  0.9626
 3866TIP3    H211605   2.475   1.178   2.186 -0.9788 -0.5103 -0.5919
 3867TIP3   OH211606   0.558   4.154   0.576  0.1844 -0.0079  0.8501
 3867TIP3    H111607   0.612   4.186   0.648  2.9441  2.0407 -1.8753
 3867TIP3    H211608   0.478   4.206   0.582  0.3595  0.1396  2.3841
 3868TIP3   OH211609   3.674   3.407   2.163  0.3009  0.2446 -0.0787
 3868TIP3    H111610   3.595   3.460   2.151  0.2404  0.1210 -0.2312
 3868TIP3    H211611   3.650   3.321   2.130  0.5678  0.2623 -0.3253
 3869TIP3   OH211612   3.397   1.596   2.275 -0.3735 -0.7803 -0.0072
 3869TIP3    H111613   3.382   1.503   2.289 -0.6960 -0.5514  1.3159
 3869TIP3    H211614   3.485   1.601   2.236 -0.3627 -1.6313 -0.1047
 3870TIP3   OH211615   2.456   5.940   3.088  0.4820  0.1941  0.4267
 3870TIP3    H111616   2.404   5.861   3.076 -0.3442  0.7328  0.4061
 3870TIP3    H211617   2.499   5.927   3.173 -1.0335  0.4715  1.2863
 3871TIP3   OH211618   2.102   4.709   4.313  0.4977  0.8326  0.1203
 3871TIP3    H111619   2.148   4.626   4.326  1.3052  1.1977 -0.3459
 3871TIP3    H211620   2.016   4.695   4.352  0.4552 -0.3839 -0.3506
 3872TIP3   OH211621   4.264   2.085   1.608 -0.4388  0.0829 -0.7844
 3872TIP3    H111622   4.335   2.144   1.585 -1.1576  0.5300 -1.9201
 3872TIP3    H211623   4.186   2.142   1.612 -0.4252  0.0783  2.7838
 3873TIP3   OH211624   4.451   2.162   2.130 -0.2661  0.2696 -0.1825
 3873TIP3    H111625   4.461   2.244   2.178  0.3913  0.2109 -0.2120
 3873TIP3    H211626   4.526   2.109   2.157  0.9128  0.7632 -2.3139
 3874TIP3   OH211627   1.089   3.819   1.034  0.8955 -0.0401  0.6337
 3874TIP3    H111628   1.167   3.860   0.996 -0.4701  1.5710 -0.6296
 3874TIP3    H211629   1.062   3.755   0.969  2.2645 -2.1418  2.0100
 3875TIP3   OH211630   1.838   1.151   3.869  0.2272  0.4800  0.5912
 3875TIP3    H111631   1.803   1.239   3.883 -0.1967  0.7519 -1.7602
 3875TIP3    H211632   1.904   1.162   3.801 -0.2400 -1.0896 -0.1599
 3876TIP3   OH211633   6.044   3.571   4.021  0.5417  0.5144  0.5953
 3876TIP3    H111634   5.950   3.584   4.035 -0.1685 -1.9941 -1.1782
 3876TIP3    H211635   6.079   3.559   4.109 -1.0472  0.1374  1.2175
 3877TIP3   OH211636   5.249   0.456   3.627  0.1576  0.4229 -0.0659
 3877TIP3    H111637   5.160   0.475   3.657  0.1177  1.4262 -0.7656
 3877TIP3    H211638   5.304   0.468   3.705 -0.2470  0.4228  0.2218
 3878TIP3   OH211639   2.536   0.150   3.434 -0.4940  0.4700 -0.3300
 3878TIP3    H111640   2.562   0.126   3.523 -1.6651 -1.4257 -0.4299
 3878TIP3    H211641   2.618   0.173   3.390  0.0635  1.8519  1.3095
 3879TIP3   OH211642   4.434   1.394   2.032 -0.2087 -0.3143 -0.3000
 3879TIP3    H111643   4.469   1.439   2.108 -0.8221 -1.3215  0.6086
 3879TIP3    H211644   4.472   1.440   1.957 -0.7555  1.6437  0.5618
 3880TIP3   OH211645   3.608   1.415   1.512 -0.3765 -0.2512  0.5760
 3880TIP3    H111646   3.532   1.357   1.514 -0.0163 -0.9338 -1.7587
 3880TIP3    H211647   3.669   1.372   1.452  0.9126  1.3944  0.6314
 3881TIP3   OH211648   4.338   0.031   3.196  0.4161  0.0296  0.6603
 3881TIP3    H111649   4.428   0.019   3.166 -0.4407 -2.2914 -1.3623
 3881TIP3    H211650   4.285   0.015   3.118 -1.7779  2.0996  1.6099
 3882TIP3   OH211651   5.327   3.819   1.413  0.0714  0.0506  0.4854
 3882TIP3    H111652   5.422   3.809   1.415  0.0403 -0.1288  1.6737
 3882TIP3    H211653   5.300   3.813   1.505 -1.0417  0.5850  0.2085
 3883TIP3   OH211654   3.601   2.913   2.041 -0.0900 -0.7580 -0.1395
 3883TIP3    H111655   3.569   2.895   1.953 -0.3049  0.7243 -0.3849
 3883TIP3    H211656   3.575   2.837   2.092 -3.0220 -0.1603 -0.5901
 3884TIP3   OH211657   5.586   4.305   4.423 -0.1013  0.3381 -0.3124
 3884TIP3    H111658   5.647   4.275   4.491 -2.3530 -1.8619  0.9406
 3884TIP3    H211659   5.609   4.254   4.345  0.9618  1.0784 -0.4931
 3885TIP3   OH211660   6.232   1.011   3.487 -0.0217  0.0235  0.6077
 3885TIP3    H111661   6.151   1.056   3.461  1.2422  2.2075  0.1631
 3885TIP3    H211662   6.270   1.068   3.554  2.7833  0.9707 -1.5773
 3886TIP3   OH211663   0.961   3.287   2.166 -0.1170  0.0875 -0.3381
 3886TIP3    H111664   1.048   3.256   2.141 -1.8634 -2.5078 -3.9921
 3886TIP3    H211665   0.971   3.382   2.173  2.7923 -0.0276 -1.5380
 3887TIP3   OH211666   3.581   2.081   4.545 -0.5023  0.0549 -0.1155
 3887TIP3    H111667   3.533   2.003   4.517 -0.9525  0.2664  0.0546
 3887TIP3    H211668   3.587   2.072   4.641  0.5148 -0.3715 -0.2020
 3888TIP3   OH211669   2.118   5.872   1.429 -0.0879 -0.0430 -0.5832
 3888TIP3    H111670   2.165   5.789   1.439  1.9382  1.0584 -0.6349
 3888TIP3    H211671   2.168   5.921   1.365 -2.2365  0.5865 -1.8879
 3889TIP3   OH211672   1.225   4.252   1.812 -0.1766 -0.2432  0.3562
 3889TIP3    H111673   1.271   4.334   1.794 -2.2412  0.9872  0.3722
 3889TIP3    H211674   1.204   4.217   1.725  1.1869 -1.0922  0.3385
 3890TIP3   OH211675   1.184   0.102   1.607  0.2894  0.8454 -0.4729
 3890TIP3    H111676   1.204   0.166   1.676  0.2586 -0.7847  1.1113
 3890TIP3    H211677   1.270   0.068   1.581  0.1780 -0.5931  0.8588
 3891TIP3   OH211678   1.822   5.792   2.661 -0.6071 -0.9184  0.5233
 3891TIP3    H111679   1.869   5.822   2.583 -1.2178 -0.4503  0.3239
 3891TIP3    H211680   1.828   5.696   2.657 -1.2502 -0.9405 -0.5119
 3892TIP3   OH211681   4.196   5.667   1.573 -0.4894  0.1698 -0.1662
 3892TIP3    H111682   4.177   5.681   1.666 -0.7870  1.9598 -0.4552
 3892TIP3    H211683   4.181   5.573   1.559  0.0269 -0.2198  1.6800
 3893TIP3   OH211684   3.960   3.670   4.359  0.0696 -0.1202  0.0152
 3893TIP3    H111685   3.897   3.647   4.291  0.6453 -0.1597 -0.5193
 3893TIP3    H211686   3.946   3.605   4.428  0.7315 -1.2388 -0.8696
 3894TIP3   OH211687   0.416   3.142   3.479 -0.5481 -0.0114 -0.0272
 3894TIP3    H111688   0.342   3.088   3.507 -1.4255  1.8123  1.4480
 3894TIP3    H211689   0.469   3.152   3.558  0.2985  0.1845 -0.6142
 3895TIP3   OH211690   1.644   2.592   1.641  0.2475  0.3165 -0.2407
 3895TIP3    H111691   1.608   2.503   1.649  0.8574  0.1825  1.5207
 3895TIP3    H211692   1.699   2.588   1.562  1.2955 -1.2798  0.5017
 3896TIP3   OH211693   5.686   0.693   1.475 -0.7719 -0.0386  0.5212
 3896TIP3    H111694   5.767   0.704   1.524  0.3240 -2.3643 -0.5668
 3896TIP3    H211695   5.676   0.774   1.425  0.5538  0.5318  1.1410
 3897TIP3   OH211696   0.958   5.876   5.018 -0.1474 -0.5111 -0.0661
 3897TIP3    H111697   0.998   5.925   4.946 -0.7827  0.2788  0.1022
 3897TIP3    H211698   0.903   5.811   4.975  0.4475 -0.8621 -0.2963
 3898TIP3   OH211699   3.964   2.841   0.369 -0.1281  0.1957 -0.0069
 3898TIP3    H111700   3.901   2.813   0.302 -0.7899 -0.5397  0.8927
 3898TIP3    H211701   4.049   2.839   0.324 -0.6738  0.6742 -1.0893
 3899TIP3   OH211702   1.500   1.837   5.100  0.1007  0.0374 -0.2545
 3899TIP3    H111703   1.436   1.904   5.073 -0.5784 -0.5098 -0.0169
 3899TIP3    H211704   1.583   1.870   5.067 -0.2427  0.9436 -0.2549
 3900TIP3   OH211705   5.946   0.614   1.864 -0.2118 -0.4314 -0.0540
 3900TIP3    H111706   5.987   0.676   1.803  0.7068 -2.2244 -1.3673
 3900TIP3    H211707   5.986   0.634   1.948 -1.1332  1.7842 -0.0681
 3901TIP3   OH211708   5.418   0.845   0.754 -0.4625 -0.2186  0.4809
 3901TIP3    H111709   5.405   0.752   0.773  1.6754 -0.7301 -0.1770
 3901TIP3    H211710   5.479   0.845   0.680  0.6267  1.6802  1.3010
 3902TIP3   OH211711   1.767   4.872   2.460  0.3802 -0.0137  0.0623
 3902TIP3    H111712   1.763   4.964   2.486  0.2262  0.2275 -0.7766
 3902TIP3    H211713   1.804   4.875   2.372  0.8045 -0.7923  0.2130
 3903TIP3   OH211714   0.840   2.382   0.375  0.2831  0.0401 -0.6733
 3903TIP3    H111715   0.783   2.401   0.301 -2.2675 -0.4154  1.0394
 3903TIP3    H211716   0.849   2.286   0.374  0.8064  0.0848 -0.7530
 3904TIP3   OH211717   3.635   1.790   3.816 -0.3237 -1.0807  1.2185
 3904TIP3    H111718   3.634   1.725   3.746 -1.1355  1.4351 -1.2622
 3904TIP3    H211719   3.543   1.811   3.830 -0.0203  0.8607  0.5781
 3905TIP3   OH211720   2.501   2.662   0.552 -0.5132  0.3874  0.1730
 3905TIP3    H111721   2.514   2.574   0.517 -0.5382  0.1683  0.7062
 3905TIP3    H211722   2.429   2.652   0.615 -0.3448  0.7398  0.4206
 3906TIP3   OH211723   4.529   3.288   3.573 -0.4726  0.2103 -0.2652
 3906TIP3    H111724   4.552   3.208   3.525  1.0951  0.6979 -0.3885
 3906TIP3    H211725   4.605   3.305   3.628 -0.4910  1.9972 -0.7538
 3907TIP3   OH211726   4.029   1.348   2.297 -0.2221 -0.1890  0.2090
 3907TIP3    H111727   3.994   1.279   2.353 -4.0980  0.5317 -1.0155
 3907TIP3    H211728   4.026   1.427   2.352 -1.5518  0.0412 -0.1623
 3908TIP3   OH211729   5.835   2.071   4.988 -0.3982 -0.5431 -0.1532
 3908TIP3    H111730   5.879   2.022   4.918  0.4598  1.5973 -1.2024
 3908TIP3    H211731   5.785   2.138   4.941  0.5399  1.2211  1.2617
 3909TIP3   OH211732   0.533   2.104   0.767 -0.3471 -0.0923  0.2803
 3909TIP3    H111733   0.582   2.023   0.784  1.3222  0.9047  0.3901
 3909TIP3    H211734   0.588   2.173   0.803 -1.3585  1.1798 -0.5474
 3910TIP3   OH211735   5.349   1.344   0.443  0.0512  0.0134  0.1553
 3910TIP3    H111736   5.294   1.281   0.489  2.5781 -2.0398  0.5842
 3910TIP3    H211737   5.436   1.303   0.440  1.8571  3.4457  0.3818
 3911TIP3   OH211738   2.018   1.236   2.788  0.0043  0.2842  0.1112
 3911TIP3    H111739   1.948   1.194   2.837 -0.7489  0.6474 -0.6412
 3911TIP3    H211740   2.064   1.164   2.745  0.2730  0.0236  0.8188
 3912TIP3   OH211741   2.027   5.697   0.984  0.1315  0.2884  0.3851
 3912TIP3    H111742   2.113   5.734   0.963  0.4183 -1.2032 -1.1992
 3912TIP3    H211743   1.969   5.731   0.916  0.3629 -1.9298 -0.9997
 3913TIP3   OH211744   6.250   3.682   2.611 -0.2653 -0.1610 -0.3718
 3913TIP3    H111745   6.235   3.608   2.552  0.7228 -0.3748 -0.3617
 3913TIP3    H211746   6.235   3.647   2.699 -1.9931  0.2200 -0.4728
 3914TIP3   OH211747   2.195   0.425   4.252  0.0162  0.4677  0.5532
 3914TIP3    H111748   2.271   0.480   4.267  0.4893  0.3253 -1.1226
 3914TIP3    H211749   2.147   0.468   4.182 -0.2284 -0.6184  0.0202
 3915TIP3   OH211750   0.589   4.590   1.995 -0.0825 -0.4576  0.0782
 3915TIP3    H111751   0.666   4.647   1.999 -2.4680  3.2433 -0.9776
 3915TIP3    H211752   0.624   4.503   1.979  3.8544  0.9302 -0.0031
 3916TIP3   OH211753   3.030   3.698   0.501 -0.2515 -0.1910  0.1480
 3916TIP3    H111754   3.120   3.701   0.471 -0.7767 -1.5600 -1.7022
 3916TIP3    H211755   2.982   3.653   0.432 -2.2234 -0.2133  1.4309
 3917TIP3   OH211756   0.292   3.876   1.567  0.1313  0.5216 -0.2277
 3917TIP3    H111757   0.322   3.907   1.482  0.1500 -0.2906 -0.5334
 3917TIP3    H211758   0.272   3.955   1.617 -0.9275  0.9958 -1.3563
 3918TIP3   OH211759   1.097   4.900   0.496 -0.2371  0.6320  0.5773
 3918TIP3    H111760   1.058   4.880   0.582  0.4052 -0.0530  0.7279
 3918TIP3    H211761   1.191   4.883   0.509 -0.1812  0.1638 -0.3585
 3919TIP3   OH211762   2.447   2.313   2.939 -0.4974  0.6432  0.1584
 3919TIP3    H111763   2.407   2.318   2.852 -1.2913  2.0383  0.5729
 3919TIP3    H211764   2.537   2.343   2.926 -0.7167  1.1854 -0.1282
 3920TIP3   OH211765   2.637   3.235   0.294 -0.0377  0.2534  0.3868
 3920TIP3    H111766   2.657   3.328   0.281  2.2140 -0.5222 -2.6823
 3920TIP3    H211767   2.597   3.207   0.213  1.7345 -1.9823  0.1856
 3921TIP3   OH211768   4.124   2.622   2.952  0.2631  0.0937 -0.1400
 3921TIP3    H111769   4.111   2.666   3.036 -1.4211 -1.7324  0.6412
 3921TIP3    H211770   4.070   2.672   2.891 -2.4642 -1.3099  0.9505
 3922TIP3   OH211771   3.169   0.100   4.849  0.6052 -0.4890 -0.0191
 3922TIP3    H111772   3.261   0.078   4.861  0.6219 -0.1902  0.4310
 3922TIP3    H211773   3.156   0.099   4.755  1.3503  0.5839 -0.1486
 3923TIP3   OH211774   4.040   1.320   4.830  0.3986 -0.5880 -1.0542
 3923TIP3    H111775   4.049   1.413   4.853  2.2124 -0.6522 -1.3828
 3923TIP3    H211776   3.993   1.320   4.747 -2.1640 -0.1442  0.2824
 3924TIP3   OH211777   2.067   4.118   1.314 -0.0569  0.6624  0.2412
 3924TIP3    H111778   2.028   4.195   1.273  1.1264  0.7120 -0.8544
 3924TIP3    H211779   2.064   4.137   1.408 -1.6482  1.1190  0.1297
 3925TIP3   OH211780   1.419   4.987   1.190 -0.0294 -0.5460  0.3124
 3925TIP3    H111781   1.436   5.076   1.221  1.4009 -1.5230  2.6205
 3925TIP3    H211782   1.431   4.932   1.268 -0.9472 -2.7629 -1.0166
 3926TIP3   OH211783   3.108   4.215   3.343 -0.1511 -0.0730 -0.3351
 3926TIP3    H111784   3.162   4.141   3.315  0.7992  0.5960 -0.3346
 3926TIP3    H211785   3.084   4.194   3.434  0.1483 -0.3635 -0.3204
 3927TIP3   OH211786   1.131   2.691   2.503  0.5432  0.3983  0.5603
 3927TIP3    H111787   1.081   2.617   2.469  0.2282  1.3984 -1.2982
 3927TIP3    H211788   1.080   2.723   2.577 -0.2172 -0.1773  0.2941
 3928TIP3   OH211789   6.121   0.757   0.319 -0.6521  0.2553 -0.2851
 3928TIP3    H111790   6.137   0.795   0.406 -0.1172  0.9898 -0.6902
 3928TIP3    H211791   6.189   0.691   0.310 -1.6157 -0.8777  0.4425
 3929TIP3   OH211792   5.158   2.730   1.109  0.2412 -0.2666 -0.1060
 3929TIP3    H111793   5.229   2.766   1.162  0.6901 -2.2839  0.7812
 3929TIP3    H211794   5.195   2.722   1.021  0.5055  0.3344 -0.0529
 3930TIP3   OH211795   3.493   4.057   1.891  0.3056  0.4173  0.5989
 3930TIP3    H111796   3.568   4.060   1.951 -0.8103 -1.0527  2.1186
 3930TIP3    H211797   3.435   4.126   1.922  0.3322  0.5597  0.3411
 3931TIP3   OH211798   0.859   3.542   4.325 -0.2169 -0.4118 -0.0383
 3931TIP3    H111799   0.932   3.481   4.310  0.4786  0.6382 -1.1701
 3931TIP3    H211800   0.889   3.598   4.397  0.1085  0.0014 -0.4845
 3932TIP3   OH211801   3.122   2.528   1.081 -0.0510  0.5905  0.1060
 3932TIP3    H111802   3.041   2.561   1.119  0.2571  1.2158  0.2342
 3932TIP3    H211803   3.105   2.525   0.987  0.0284  1.4538  0.0580
 3933TIP3   OH211804   6.134   2.789   4.354  0.2203  0.1158  0.8118
 3933TIP3    H111805   6.171   2.845   4.285 -0.6853  1.4567  1.3786
 3933TIP3    H211806   6.040   2.787   4.336  0.1415 -0.5761  1.2672
 3934TIP3   OH211807   2.505   3.793   1.871  0.1725 -0.4445  0.3010
 3934TIP3    H111808   2.429   3.841   1.905  0.3616  1.5280 -1.7906
 3934TIP3    H211809   2.571   3.860   1.856  1.0825 -1.6042 -1.1599
 3935TIP3   OH211810   3.043   3.166   0.175  0.4657  0.4286 -0.0750
 3935TIP3    H111811   2.998   3.200   0.252 -1.6349 -1.5233 -0.3306
 3935TIP3    H211812   3.129   3.209   0.176 -0.1605  1.7868  2.3302
 3936TIP3   OH211813   0.661   1.616   2.100 -0.3922  0.1682 -0.7018
 3936TIP3    H111814   0.749   1.651   2.092  0.2120 -0.7501  1.4318
 3936TIP3    H211815   0.663   1.560   2.177 -2.5914 -0.6776 -1.1634
 3937TIP3   OH211816   2.397   2.838   4.014 -0.7453 -0.6229 -0.0468
 3937TIP3    H111817   2.413   2.846   4.108  0.8240 -1.7309 -0.1861
 3937TIP3    H211818   2.442   2.757   3.989  2.3872  1.6501 -2.5013
 3938TIP3   OH211819   4.478   4.510   1.961  0.2278 -0.4997 -0.4094
 3938TIP3    H111820   4.565   4.470   1.961  0.9765  1.0403  0.4169
 3938TIP3    H211821   4.479   4.569   1.885  0.2048  0.1156  0.0611
 3939TIP3   OH211822   2.201   5.245   1.122 -0.5293  0.0850 -0.4677
 3939TIP3    H111823   2.190   5.164   1.072 -1.0571  0.6758 -1.3239
 3939TIP3    H211824   2.162   5.313   1.067 -0.6161  0.8379  0.5017
 3940TIP3   OH211825   1.566   3.848   0.664 -0.1606  0.3055 -0.0999
 3940TIP3    H111826   1.504   3.812   0.728 -1.2463  1.2863 -0.5731
 3940TIP3    H211827   1.645   3.866   0.715 -0.0492 -1.4290  0.4134
 3941TIP3   OH211828   1.004   3.651   0.852  0.6076  0.1370 -0.9251
 3941TIP3    H111829   1.058   3.578   0.822 -0.9279 -1.1961 -0.5809
 3941TIP3    H211830   0.929   3.652   0.793 -0.3411  0.1803  0.2255
 3942TIP3   OH211831   2.377   3.192   2.934  0.6373  0.5877  0.6028
 3942TIP3    H111832   2.328   3.269   2.963 -0.4124  0.2128 -0.1162
 3942TIP3    H211833   2.315   3.119   2.941  0.6082  0.3176 -1.5981
 3943TIP3   OH211834   3.132   3.027   0.778 -0.5475  0.2555 -0.7575
 3943TIP3    H111835   3.172   3.099   0.827  1.3866 -1.0224 -0.3400
 3943TIP3    H211836   3.111   3.065   0.693 -0.3278  1.5177 -0.2657
 3944TIP3   OH211837   0.527   5.279   3.657  0.0372 -0.1569 -0.7115
 3944TIP3    H111838   0.479   5.360   3.676 -0.9533 -0.9977  0.5317
 3944TIP3    H211839   0.601   5.280   3.718  1.0324  0.6218 -1.8921
 3945TIP3   OH211840   4.512   4.996   3.014 -0.2565  0.2402 -0.1717
 3945TIP3    H111841   4.479   4.910   3.043 -0.1680  0.4624  0.6119
 3945TIP3    H211842   4.438   5.055   3.027 -1.2901 -0.1683 -3.3248
 3946TIP3   OH211843   6.290   5.371   4.861  0.3950  0.0483  1.0221
 3946TIP3    H111844   6.281   5.377   4.766  1.5715 -1.4292  0.7730
 3946TIP3    H211845   6.380   5.344   4.875 -0.0579 -0.8257  2.4969
 3947TIP3   OH211846   1.537   3.791   4.319 -0.1347  0.6064 -0.4193
 3947TIP3    H111847   1.607   3.747   4.270  0.8158  1.1884  0.3898
 3947TIP3    H211848   1.461   3.733   4.309  1.2928 -1.7420  1.3927
 3948TIP3   OH211849   5.327   0.571   3.364  0.3001 -0.8056  0.2660
 3948TIP3    H111850   5.341   0.665   3.359  1.2047 -0.9238  0.4373
 3948TIP3    H211851   5.337   0.550   3.457 -0.7949 -0.9432  0.3625
 3949TIP3   OH211852   1.606   5.821   1.924  0.2531  0.1886 -0.3135
 3949TIP3    H111853   1.648   5.892   1.973 -0.3542  1.4954 -1.6062
 3949TIP3    H211854   1.514   5.824   1.950 -0.0231  0.7275 -1.3118
 3950TIP3   OH211855   3.585   3.198   2.701 -0.0253  0.1181  0.4115
 3950TIP3    H111856   3.552   3.285   2.725 -0.9455  0.6032 -2.2514
 3950TIP3    H211857   3.658   3.216   2.641 -0.3815 -0.8977 -0.3687
 3951TIP3   OH211858   3.325   1.459   4.662  0.2890 -0.2327  0.1901
 3951TIP3    H111859   3.292   1.506   4.585  2.2755  2.4717  0.8280
 3951TIP3    H211860   3.254   1.466   4.726 -0.3516 -0.1693 -0.5159
 3952TIP3   OH211861   4.448   2.511   0.594  0.1366  0.1571 -0.4897
 3952TIP3    H111862   4.496   2.429   0.579 -1.2824 -0.7721 -0.1377
 3952TIP3    H211863   4.389   2.491   0.666  0.1098  1.6688 -0.0670
 3953TIP3   OH211864   0.551   0.011   1.857 -0.3256  0.0478  0.0569
 3953TIP3    H111865   0.633   0.061   1.857 -0.7604  0.8275 -1.2911
 3953TIP3    H211866   0.529   0.002   1.765 -2.4494  1.0610  0.4020
 3954TIP3   OH211867   0.331   2.281   2.888 -0.4943 -0.1239 -0.8966
 3954TIP3    H111868   0.237   2.271   2.905 -0.7892  0.2738 -2.2129
 3954TIP3    H211869   0.337   2.352   2.825  0.6337 -0.6766 -1.4443
 3955TIP3   OH211870   5.576   2.422   1.616 -0.3708 -0.4775  0.3519
 3955TIP3    H111871   5.662   2.462   1.605 -0.7728 -0.3374 -3.5144
 3955TIP3    H211872   5.532   2.479   1.680  1.8586  0.2836  1.3119
 3956TIP3   OH211873   6.119   2.821   1.420 -0.2553  0.2235 -0.0601
 3956TIP3    H111874   6.167   2.801   1.340 -1.1196  1.7066 -0.9970
 3956TIP3    H211875   6.182   2.806   1.490  0.5729 -0.9346 -1.0177
 3957TIP3   OH211876   2.232   4.711   1.482 -0.4410  0.3650 -0.1892
 3957TIP3    H111877   2.175   4.747   1.414  1.7638  1.4509 -1.5839
 3957TIP3    H211878   2.268   4.631   1.443 -0.5816 -0.0062  0.4370
 3958TIP3   OH211879   3.770   4.962   3.142 -0.3204  0.0349  0.3299
 3958TIP3    H111880   3.741   4.871   3.138  1.9177 -0.7893  1.2146
 3958TIP3    H211881   3.863   4.959   3.120 -0.0796  2.0465  0.8266
 3959TIP3   OH211882   3.358   0.674   1.020 -0.2089  0.4024 -0.7328
 3959TIP3    H111883   3.383   0.582   1.008 -0.3321  0.1576  0.7728
 3959TIP3    H211884   3.263   0.674   1.011 -0.1844  0.4405 -1.0138
 3960TIP3   OH211885   5.028   0.536   4.891  0.6453 -0.2698  0.5256
 3960TIP3    H111886   4.965   0.506   4.956  0.9656 -1.3200  0.3671
 3960TIP3    H211887   5.114   0.516   4.929  0.8303 -1.5408 -0.4911
 3961TIP3   OH211888   5.782   5.433   1.083  0.6517  0.5896  0.6826
 3961TIP3    H111889   5.686   5.436   1.078  0.5944 -0.1657  1.1841
 3961TIP3    H211890   5.810   5.423   0.992  0.1653 -0.7827  0.6571
 3962TIP3   OH211891   3.305   2.095   0.340 -0.1508  0.2601 -0.2916
 3962TIP3    H111892   3.251   2.106   0.417 -2.2839 -0.7912 -1.5491
 3962TIP3    H211893   3.391   2.129   0.365 -1.1007  1.0391  2.1090
 3963TIP3   OH211894   4.113   1.901   3.254 -0.7072 -0.3418 -0.5624
 3963TIP3    H111895   4.106   1.825   3.197  1.1749  0.2062 -1.6106
 3963TIP3    H211896   4.065   1.970   3.208  0.8294  0.1061 -1.5393
 3964TIP3   OH211897   0.403   4.598   1.655  0.4193  0.0180  0.0476
 3964TIP3    H111898   0.449   4.655   1.717  1.3038 -0.0394 -0.5314
 3964TIP3    H211899   0.360   4.532   1.709  0.3860  0.5343  0.6507
 3965TIP3   OH211900   4.262   5.296   0.472  0.1832 -0.3021  0.4753
 3965TIP3    H111901   4.327   5.291   0.402 -1.4185 -2.4693 -0.9915
 3965TIP3    H211902   4.184   5.330   0.429 -0.3513 -0.0280  1.6352
 3966TIP3   OH211903   2.030   0.003   2.509  0.0655 -0.0119 -0.1297
 3966TIP3    H111904   2.074  -0.028   2.588  0.5119 -0.7689 -0.6604
 3966TIP3    H211905   1.974   0.075   2.539 -0.0634 -0.5333  0.9366
 3967TIP3   OH211906   1.627   4.020   0.317 -0.1026  0.4439  0.0932
 3967TIP3    H111907   1.658   4.077   0.247  0.6679 -1.1090 -0.8854
 3967TIP3    H211908   1.561   3.965   0.275 -1.8538  1.4680  1.3561
 3968TIP3   OH211909   2.599   4.694   0.082  0.0152  0.3109 -0.2687
 3968TIP3    H111910   2.680   4.743   0.069  1.1278 -1.5640 -0.8454
 3968TIP3    H211911   2.607   4.658   0.170  0.4380 -0.8537 -0.7454
 3969TIP3   OH211912   0.583   2.388   2.629  0.2361  0.0006 -0.1429
 3969TIP3    H111913   0.540   2.304   2.644  0.6041  0.2269  2.9561
 3969TIP3    H211914   0.676   2.365   2.620  0.2153  0.0045 -0.3752
 3970TIP3   OH211915   2.188   3.937   3.406 -0.5634  0.1733  0.2485
 3970TIP3    H111916   2.214   3.942   3.314 -0.6753 -1.6986  0.0801
 3970TIP3    H211917   2.093   3.948   3.405 -0.4598  1.1635  0.2647
 3971TIP3   OH211918   1.924   4.635   2.342  0.4134  0.0482 -0.6682
 3971TIP3    H111919   1.900   4.715   2.390 -0.6345  0.3266 -1.6311
 3971TIP3    H211920   1.974   4.667   2.267  1.9322 -0.3818  0.1131
 3972TIP3   OH211921   6.355   1.819   0.232 -0.6932 -0.1252 -0.0247
 3972TIP3    H111922   6.311   1.903   0.226 -1.1394 -0.3766 -0.2814
 3972TIP3    H211923   6.314   1.776   0.308 -1.0248 -0.4366 -0.3786
 3973TIP3   OH211924   2.178   2.341   3.203  0.4920  0.1002 -0.5239
 3973TIP3    H111925   2.274   2.343   3.198  0.4894 -1.4865 -1.8569
 3973TIP3    H211926   2.160   2.310   3.292  1.2679 -1.2829 -0.8220
 3974TIP3   OH211927   2.825   5.016   4.743  0.1037 -0.3920 -0.5839
 3974TIP3    H111928   2.839   4.922   4.745  0.6562 -0.3042  0.3948
 3974TIP3    H211929   2.740   5.027   4.700 -0.1065 -1.3465 -0.4324
 3975TIP3   OH211930   0.473   4.468   0.936  0.0256 -0.0346  0.0702
 3975TIP3    H111931   0.391   4.423   0.957  0.7611 -1.1550  0.5990
 3975TIP3    H211932   0.494   4.518   1.015 -0.1660  0.2819 -0.0789
 3976TIP3   OH211933   0.167   2.564   1.296 -0.5182  0.5674  0.4486
 3976TIP3    H111934   0.107   2.515   1.353 -1.1839  2.3523  1.3744
 3976TIP3    H211935   0.214   2.622   1.355  1.3467  0.0015 -0.4246
 3977TIP3   OH211936   5.109   1.809   1.428  0.2348 -0.0416 -0.4844
 3977TIP3    H111937   5.048   1.735   1.434  0.1857  0.0381  0.0813
 3977TIP3    H211938   5.138   1.809   1.337 -1.0317  0.2658 -0.9002
 3978TIP3   OH211939   6.202   0.136   2.723 -0.0689 -0.2543  0.0033
 3978TIP3    H111940   6.111   0.162   2.708 -0.3275 -1.0973  0.0477
 3978TIP3    H211941   6.251   0.219   2.724 -1.3663  0.7222  3.9080
 3979TIP3   OH211942   5.810   4.288   3.343  0.0061 -0.1334 -0.1750
 3979TIP3    H111943   5.832   4.262   3.253  0.0852 -3.0636  0.5939
 3979TIP3    H211944   5.833   4.381   3.347  2.1434 -0.4457 -2.4998
 3980TIP3   OH211945   1.019   3.596   4.757 -0.4864 -0.4576 -0.3663
 3980TIP3    H111946   1.068   3.662   4.708 -0.3971 -1.1896 -1.2933
 3980TIP3    H211947   0.948   3.569   4.697 -1.3940 -0.1680  0.5531
 3981TIP3   OH211948   0.102   1.178   2.703 -0.0288  0.2746  0.0377
 3981TIP3    H111949   0.193   1.204   2.688 -0.1172  0.1149 -0.8041
 3981TIP3    H211950   0.080   1.122   2.629 -1.1915  1.2674 -0.3853
 3982TIP3   OH211951   2.425   3.678   4.688  0.3250  0.1912 -0.0242
 3982TIP3    H111952   2.388   3.593   4.710  0.6679 -0.3831 -1.5340
 3982TIP3    H211953   2.350   3.731   4.663  0.3133 -0.6173 -1.9468
 3983TIP3   OH211954   5.422   5.649   2.089  1.0149 -0.3188 -0.0024
 3983TIP3    H111955   5.346   5.684   2.135  0.2584 -0.7934 -0.8741
 3983TIP3    H211956   5.407   5.554   2.085  2.3718 -0.6228  1.1082
 3984TIP3   OH211957   2.276   3.430   4.591  0.2219  0.3132 -0.4591
 3984TIP3    H111958   2.200   3.489   4.595 -0.8744 -1.0690 -0.4519
 3984TIP3    H211959   2.278   3.398   4.501  0.2535 -0.3606 -0.2252
 3985TIP3   OH211960   4.291   4.515   3.514  0.1635  0.4237  0.1195
 3985TIP3    H111961   4.209   4.507   3.563 -0.0276 -2.2303 -0.4599
 3985TIP3    H211962   4.268   4.494   3.424  1.4105 -0.0460 -0.1198
 3986TIP3   OH211963   5.653   0.288   4.378  0.0374 -0.1981 -0.1095
 3986TIP3    H111964   5.722   0.297   4.312 -1.1630  0.1997 -1.3697
 3986TIP3    H211965   5.619   0.200   4.365 -0.7174  0.1518 -0.5645
 3987TIP3   OH211966   2.220   4.605   3.536  0.2540 -0.3928  0.0510
 3987TIP3    H111967   2.162   4.568   3.469  1.3297  1.1707 -1.8454
 3987TIP3    H211968   2.270   4.530   3.567 -0.1417 -1.1412 -1.0437
 3988TIP3   OH211969   3.371   5.374   2.432  0.7565 -0.2702 -0.0994
 3988TIP3    H111970   3.368   5.469   2.446  0.8283 -0.5028  1.6569
 3988TIP3    H211971   3.281   5.349   2.413  0.3155 -0.1481  1.7129
 3989TIP3   OH211972   3.298   1.262   3.366 -0.5043  0.2243  0.1669
 3989TIP3    H111973   3.382   1.215   3.368 -0.7570 -0.2776 -0.5658
 3989TIP3    H211974   3.320   1.347   3.328 -0.1966  0.3814  0.6848
 3990TIP3   OH211975   0.146   3.519   0.966 -0.4625  0.5899  0.4248
 3990TIP3    H111976   0.087   3.530   1.040 -1.5177 -1.3040 -0.0777
 3990TIP3    H211977   0.230   3.498   1.006 -0.6382  1.1276  1.1026
 3991TIP3   OH211978   3.343   3.484   3.292  0.2324 -0.1705 -0.6352
 3991TIP3    H111979   3.319   3.445   3.376  1.0050 -1.1323 -0.8507
 3991TIP3    H211980   3.346   3.410   3.231  0.5633  0.3957 -1.3167
 3992TIP3   OH211981   0.016   4.688   0.501 -0.1401  0.0393  0.0608
 3992TIP3    H111982   0.054   4.601   0.509 -0.4300 -0.0294  0.7051
 3992TIP3    H211983   0.035   4.714   0.411 -1.3773 -1.3217 -0.6364
 3993TIP3   OH211984   6.116   2.531   0.535  0.0269  0.0291 -0.0511
 3993TIP3    H111985   6.181   2.596   0.564 -1.2447  0.4573  2.0605
 3993TIP3    H211986   6.070   2.574   0.463  0.3846  0.7544  0.1355
 3994TIP3   OH211987   4.382   4.818   3.836 -0.5822 -0.1297  0.0169
 3994TIP3    H111988   4.465   4.800   3.791 -0.5106  4.5601 -2.3054
 3994TIP3    H211989   4.315   4.803   3.769 -1.0156  1.5676  0.0314
 3995TIP3   OH211990   4.433   5.634   2.165  0.0593  0.7115  0.1676
 3995TIP3    H111991   4.484   5.557   2.141  1.9009  1.6565  0.8301
 3995TIP3    H211992   4.354   5.599   2.207  1.4046 -0.8379  1.5681
 3996TIP3   OH211993   3.387   3.448   5.212  0.3498  0.0356  0.2005
 3996TIP3    H111994   3.418   3.371   5.164  0.8182  2.0313 -3.0135
 3996TIP3    H211995   3.296   3.459   5.185 -0.5227 -0.6977  2.5882
 3997TIP3   OH211996   0.707   5.634   3.753 -1.0249 -0.2536 -0.2354
 3997TIP3    H111997   0.629   5.631   3.697 -0.6980 -0.7750 -0.6721
 3997TIP3    H211998   0.762   5.562   3.721  0.5369  1.3068 -1.2586
 3998TIP3   OH211999   5.749   1.059   1.463  0.2467 -0.4633 -0.3994
 3998TIP3    H112000   5.831   1.083   1.420  0.9907 -1.7286  0.2714
 3998TIP3    H212001   5.710   1.143   1.487  1.9251  0.1635  0.3336
 3999TIP3   OH212002   1.591   4.074   3.465 -0.0278 -0.2368 -0.0080
 3999TIP3    H112003   1.564   4.006   3.526  1.5689  1.3431  2.6275
 3999TIP3    H212004   1.686   4.079   3.476  0.2427  0.5431 -2.2441
 4000TIP3   OH212005   4.362   4.224   0.295  0.2804  0.2983  0.3699
 4000TIP3    H112006   4.438   4.179   0.259  0.1302  0.3857 -0.0581
 4000TIP3    H212007   4.311   4.251   0.219  0.0259  0.5995  0.6422
 4001TIP3   OH212008   5.756   3.646   0.322 -0.6267 -0.3114 -0.5565
 4001TIP3    H112009   5.830   3.690   0.280 -1.2016  0.6228 -0.6329
 4001TIP3    H212010   5.782   3.639   0.414 -0.0864 -0.7940 -0.7355
 4002TIP3   OH212011   4.097   2.637   4.329 -0.1170  0.4884  0.1023
 4002TIP3    H112012   4.127   2.624   4.239  1.1499  1.0855  0.4015
 4002TIP3    H212013   4.013   2.592   4.334 -0.3263  0.6633 -1.4419
 4003TIP3   OH212014   1.908   3.213   0.417  0.0155 -0.1310  0.4974
 4003TIP3    H112015   1.898   3.160   0.496  0.4508 -1.3612 -0.2506
 4003TIP3    H212016   1.970   3.281   0.441  0.3907 -0.6866  1.1256
 4004TIP3   OH212017   3.146   0.162   4.064 -0.0784  0.2359  0.0186
 4004TIP3    H112018   3.127   0.131   3.975  0.1943 -1.3940  0.4866
 4004TIP3    H212019   3.060   0.186   4.099 -0.0373  2.1769 -1.1002
 4005TIP3   OH212020   2.466   4.852   1.271 -0.1364  0.5913 -0.2033
 4005TIP3    H112021   2.488   4.832   1.362  0.0551 -1.2396 -0.5992
 4005TIP3    H212022   2.429   4.940   1.273  0.0272  0.6515  1.6099
 4006TIP3   OH212023   1.296   3.858   2.310 -0.0931  0.7723 -0.1588
 4006TIP3    H112024   1.327   3.768   2.308 -1.7834  0.1808 -1.0603
 4006TIP3    H212025   1.357   3.905   2.253  0.7136  0.2005  0.2006
 4007TIP3   OH212026   5.248   3.090   2.088 -0.0486  0.4763  0.6089
 4007TIP3    H112027   5.217   3.136   2.166 -2.8861 -0.9810  0.4656
 4007TIP3    H212028   5.242   2.997   2.111  3.0978  0.0355  0.0252
 4008TIP3   OH212029   3.894   0.465   3.857 -0.1083  0.3196 -0.0363
 4008TIP3    H112030   3.829   0.536   3.854 -0.6877 -0.2211 -0.8923
 4008TIP3    H212031   3.907   0.448   3.950 -3.0954 -1.2238  0.2225
 4009TIP3   OH212032   1.070   4.064   3.467 -0.8129 -0.2928  0.0962
 4009TIP3    H112033   1.025   4.085   3.385  1.3672  1.8970 -0.6468
 4009TIP3    H212034   1.115   3.982   3.449  0.8119  0.8677 -1.4885
 4010TIP3   OH212035   2.484   4.245   1.474  0.1267 -0.6479  0.3120
 4010TIP3    H112036   2.503   4.337   1.454  0.8748 -0.9101 -0.1869
 4010TIP3    H212037   2.477   4.243   1.570  1.3926 -0.3054  0.4306
 4011TIP3   OH212038   5.611   4.758   0.416  0.6287  0.0768 -0.3253
 4011TIP3    H112039   5.696   4.714   0.427  0.3755 -0.1438  0.9719
 4011TIP3    H212040   5.549   4.687   0.400  0.0426 -0.2788  2.7931
 4012TIP3   OH212041   5.402   5.151   2.168 -0.0121  0.2710 -0.4163
 4012TIP3    H112042   5.394   5.191   2.254 -0.7732  1.1717 -0.8977
 4012TIP3    H212043   5.388   5.057   2.184  1.9991  0.1103  0.7476
 4013TIP3   OH212044   5.786   2.089   2.749  0.0673  0.2115 -0.2596
 4013TIP3    H112045   5.839   2.140   2.810 -0.6036  1.3446 -0.6065
 4013TIP3    H212046   5.700   2.085   2.789 -0.1684  0.2897 -0.7514
 4014TIP3   OH212047   4.919   4.489   3.393  0.3927 -0.3163 -0.4288
 4014TIP3    H112048   4.892   4.455   3.478 -0.7726 -0.2140 -0.7485
 4014TIP3    H212049   5.013   4.470   3.389  0.9295  1.4637  1.7124
 4015TIP3   OH212050   1.796   0.753   0.295  0.0775 -0.1889 -0.2206
 4015TIP3    H112051   1.868   0.720   0.349 -0.0126  1.0658  0.7036
 4015TIP3    H212052   1.796   0.696   0.218  1.6910 -0.5749  0.0263
 4016TIP3   OH212053   4.148   5.220   0.729 -0.3166  0.2281 -0.3019
 4016TIP3    H112054   4.177   5.290   0.788  0.8928  0.8187 -1.5553
 4016TIP3    H212055   4.193   5.237   0.646 -1.4575 -0.9667 -1.2128
 4017TIP3   OH212056   5.872   5.065   2.822  0.1834  0.5213  0.2304
 4017TIP3    H112057   5.835   4.976   2.823 -0.6018  0.8287 -0.5698
 4017TIP3    H212058   5.802   5.120   2.788  0.5460  1.5194  1.0532
 4018TIP3   OH212059   5.164   1.522   0.311 -0.0503 -0.4382  0.1455
 4018TIP3    H112060   5.199   1.611   0.302 -1.7284  0.4268  1.4569
 4018TIP3    H212061   5.209   1.486   0.387  0.6952 -0.7665 -0.4391
 4019TIP3   OH212062   3.998   2.663   5.115  0.1063 -0.5447  0.0616
 4019TIP3    H112063   4.007   2.594   5.181  2.9064 -1.0216 -0.6804
 4019TIP3    H212064   3.911   2.649   5.078  0.0520 -2.8227  0.8794
 4020TIP3   OH212065   3.427   4.273   4.837 -0.9776 -0.3249  0.0087
 4020TIP3    H112066   3.401   4.182   4.854 -0.1140 -0.5853 -0.0042
 4020TIP3    H212067   3.391   4.292   4.750 -2.6915 -0.0441  0.7330
 4021TIP3   OH212068   4.527   3.610  -0.012  0.2383 -0.2665  0.4715
 4021TIP3    H112069   4.496   3.641   0.074 -1.2782 -0.0402 -0.1202
 4021TIP3    H212070   4.621   3.601  -0.001  0.0898 -0.2435  2.1707
 4022TIP3   OH212071   0.635   2.849   4.324 -0.0042  0.3234 -0.0342
 4022TIP3    H112072   0.628   2.910   4.251 -0.0389 -0.2434 -0.5139
 4022TIP3    H212073   0.708   2.882   4.376  0.1498  0.6244 -0.4344
 4023TIP3   OH212074   4.982   5.388   4.610  0.5344  0.6519  0.0180
 4023TIP3    H112075   4.978   5.419   4.519 -0.8060 -0.0868 -0.1994
 4023TIP3    H212076   5.071   5.354   4.619  0.7782  0.9880 -0.9283
 4024TIP3   OH212077   4.707   5.032   4.068 -0.4727 -0.1661  0.3109
 4024TIP3    H112078   4.619   5.034   4.106  0.4274  2.5164  2.6135
 4024TIP3    H212079   4.763   5.002   4.140  0.6764 -0.5564 -0.7086
 4025TIP3   OH212080   3.864   0.133   2.952  0.1068  0.4345  0.4409
 4025TIP3    H112081   3.811   0.174   3.019 -0.3304 -0.7200  0.8385
 4025TIP3    H212082   3.952   0.166   2.967 -0.3384  1.7456  0.2869
 4026TIP3   OH212083   6.097   5.791   4.215  0.2688  0.5609 -0.1207
 4026TIP3    H112084   6.074   5.744   4.296  1.5024  0.8974  0.4428
 4026TIP3    H212085   6.049   5.745   4.146  1.8647 -1.9165  0.3119
 4027TIP3   OH212086   0.226   1.023   4.429  0.2731  0.8519 -0.0236
 4027TIP3    H112087   0.252   1.106   4.391 -1.0494  0.8428 -1.0521
 4027TIP3    H212088   0.280   0.957   4.384 -0.6749  0.9224 -1.3447
 4028TIP3   OH212089   5.450   1.467   4.119  0.1466  0.1387 -0.4406
 4028TIP3    H112090   5.489   1.487   4.034  0.8872 -0.8560 -0.3598
 4028TIP3    H212091   5.492   1.528   4.180  0.3301  0.2073 -0.6352
 4029TIP3   OH212092   1.645   2.372   3.487  0.2211 -0.0241  0.2279
 4029TIP3    H112093   1.706   2.369   3.413  0.3551  0.5100  0.3117
 4029TIP3    H212094   1.675   2.446   3.540  0.0294 -0.3050  0.7365
 4030TIP3   OH212095   2.770   3.636   3.729 -0.7752  0.0648  0.0987
 4030TIP3    H112096   2.769   3.558   3.674 -0.1231 -0.8795  1.3646
 4030TIP3    H212097   2.689   3.632   3.779 -0.6081  0.0390  0.3706
 4031TIP3   OH212098   3.837   5.459   2.643 -0.0830 -0.3604 -0.4259
 4031TIP3    H112099   3.764   5.398   2.638 -0.3201 -0.4945  2.5866
 4031TIP3    H212100   3.914   5.404   2.655  0.0088 -0.1633 -0.0764
 4032TIP3   OH212101   1.498   5.358   3.668 -0.4890 -0.1769  0.2657
 4032TIP3    H112102   1.511   5.435   3.723  1.5260 -0.6543  0.5274
 4032TIP3    H212103   1.503   5.284   3.728 -1.4190 -0.5833 -0.1313
 4033TIP3   OH212104   0.054   2.959   2.409  0.2459 -0.3563  0.1958
 4033TIP3    H112105   0.033   2.868   2.426  0.4400 -0.3013  0.7395
 4033TIP3    H212106  -0.024   2.995   2.367  0.7191 -1.1636 -1.4790
 4034TIP3   OH212107   5.381   3.625   1.098 -0.2920  0.2242  0.1386
 4034TIP3    H112108   5.303   3.595   1.145  0.1289  0.5402  1.0569
 4034TIP3    H212109   5.372   3.720   1.095  0.4947  0.3385  1.0518
 4035TIP3   OH212110   3.137   1.830   0.260 -0.3558  0.1713  0.6331
 4035TIP3    H112111   3.217   1.796   0.220  0.8646  1.3393  1.9621
 4035TIP3    H212112   3.139   1.799   0.350 -0.1198  2.1795  1.3747
 4036TIP3   OH212113   4.774   0.049   1.678 -1.1472 -0.2481 -0.3182
 4036TIP3    H112114   4.837   0.005   1.622  0.4975  1.0517  0.4067
 4036TIP3    H212115   4.706   0.080   1.618  0.6728  1.3058 -1.7131
 4037TIP3   OH212116   4.701   0.300   4.953  0.0016 -0.5384  0.0345
 4037TIP3    H112117   4.612   0.266   4.946 -0.3869  0.6696 -1.6072
 4037TIP3    H212118   4.714   0.348   4.871  1.6669  0.4738  0.8513
 4038TIP3   OH212119   0.366   1.883  -0.003 -0.0673  0.7009 -0.0315
 4038TIP3    H112120   0.343   1.976  -0.006  0.2929  0.7768 -0.4524
 4038TIP3    H212121   0.394   1.868   0.087 -0.7871  0.8375  0.2270
 4039TIP3   OH212122   3.391   3.500   3.651 -0.0916  0.4068 -0.4196
 4039TIP3    H112123   3.387   3.581   3.702 -0.6730 -0.6320  1.2518
 4039TIP3    H212124   3.305   3.493   3.610 -0.2185  0.3767 -0.1491
 4040TIP3   OH212125   3.299   5.312   2.900 -0.2037  0.3700 -0.2646
 4040TIP3    H112126   3.314   5.218   2.906 -1.2033  0.1545 -0.9217
 4040TIP3    H212127   3.370   5.345   2.844  1.2819  0.3343  1.5006
 4041TIP3   OH212128   0.949   0.598   2.423 -0.5453  0.6609  0.0413
 4041TIP3    H112129   0.948   0.534   2.352  1.4734 -0.2256  0.7428
 4041TIP3    H212130   0.999   0.556   2.493 -4.4817  0.4296  3.0807
 4042TIP3   OH212131   2.299   4.209   3.402  0.0893  0.0339  0.3675
 4042TIP3    H112132   2.358   4.166   3.340 -0.7273 -0.5834  0.0123
 4042TIP3    H212133   2.227   4.241   3.349  0.3806  1.3407  0.7122
 4043TIP3   OH212134   0.377   5.136   0.913 -0.0885  0.2433 -0.0256
 4043TIP3    H112135   0.386   5.047   0.879  0.5701  0.1032  0.4925
 4043TIP3    H212136   0.369   5.124   1.008 -0.9081  0.6839 -0.0338
 4044TIP3   OH212137   0.675   0.747   0.881 -0.0809  0.3400  0.2760
 4044TIP3    H112138   0.661   0.790   0.796 -0.6523  0.5087  0.4493
 4044TIP3    H212139   0.590   0.753   0.925  0.5214  1.3099  1.3554
 4045TIP3   OH212140   4.393   1.122   3.840 -0.4393  0.5360  0.4632
 4045TIP3    H112141   4.328   1.132   3.910 -1.9004  0.5388 -0.8274
 4045TIP3    H212142   4.341   1.127   3.759  0.3255 -4.5014 -0.6600
 4046TIP3   OH212143   5.511   4.096   1.855  0.2446  0.3705  0.0314
 4046TIP3    H112144   5.465   4.119   1.936 -0.6810 -0.4346 -0.2405
 4046TIP3    H212145   5.528   4.181   1.813  1.3863  0.8472  1.3855
 4047TIP3   OH212146   0.527   0.699   1.496  0.0475 -0.2743  0.1380
 4047TIP3    H112147   0.495   0.730   1.412  2.4511  1.5166 -0.2450
 4047TIP3    H212148   0.448   0.675   1.545 -1.3985 -1.7533 -2.6912
 4048TIP3   OH212149   2.696   1.908   5.134  0.4550 -0.0087  0.4564
 4048TIP3    H112150   2.690   1.818   5.102 -1.8726  0.3975 -0.4320
 4048TIP3    H212151   2.721   1.959   5.057 -1.2680  0.4636  0.1729
 4049TIP3   OH212152   4.530   5.972   0.102  0.3689  0.7846 -0.0029
 4049TIP3    H112153   4.447   5.934   0.132  0.5537  1.1510  1.0114
 4049TIP3    H212154   4.573   5.900   0.056  0.0872  0.1723  0.6609
 4050TIP3   OH212155   0.513   3.547   2.182  0.2411  0.2925 -0.3984
 4050TIP3    H112156   0.494   3.491   2.258  0.0672  0.6786 -0.1522
 4050TIP3    H212157   0.428   3.557   2.138  0.1194  0.9693 -0.0210
 4051TIP3   OH212158   0.992   4.520   2.835 -0.1456 -0.5961  0.0889
 4051TIP3    H112159   1.029   4.460   2.770  0.4655 -1.3617  1.1012
 4051TIP3    H212160   0.987   4.467   2.915  0.0034  0.5912  0.8974
 4052TIP3   OH212161   4.159   1.635   3.991  0.0078  0.0383  0.6205
 4052TIP3    H112162   4.227   1.568   3.988 -0.4677 -0.5635  2.1393
 4052TIP3    H212163   4.077   1.586   4.001 -0.8287  0.6955 -2.2777
 4053TIP3   OH212164   2.360   3.057   2.135  0.5015 -0.6598 -0.0688
 4053TIP3    H112165   2.316   3.017   2.060 -0.2525 -0.1720  0.1004
 4053TIP3    H212166   2.302   3.040   2.209 -0.6184  1.9224 -0.2260
 4054TIP3   OH212167   3.882   1.750   3.926  0.3329  0.0473  0.8196
 4054TIP3    H112168   3.901   1.830   3.974 -0.2670  0.0990  0.9713
 4054TIP3    H212169   3.798   1.766   3.883  1.1197  0.2312 -0.7285
 4055TIP3   OH212170   2.527   1.053   1.064 -0.4746 -0.3984 -0.2538
 4055TIP3    H112171   2.576   0.973   1.086 -1.9433 -1.4742 -0.7616
 4055TIP3    H212172   2.436   1.025   1.062 -0.9951  1.2561 -0.7096
 4056TIP3   OH212173   4.989   3.075   3.894  0.2351 -0.2017 -0.1193
 4056TIP3    H112174   4.998   3.016   3.819 -1.2052  0.2287 -0.6659
 4056TIP3    H212175   5.071   3.124   3.896 -0.0299  0.3877 -1.9612
 4057TIP3   OH212176   6.023   4.907   4.578  0.3594  0.4168  0.1054
 4057TIP3    H112177   5.968   4.854   4.520  1.5148 -2.1684  1.1881
 4057TIP3    H212178   6.083   4.952   4.519 -1.1252  1.1476 -0.9070
 4058TIP3   OH212179   0.551   5.083   2.686  0.3822  1.0899  0.2516
 4058TIP3    H112180   0.637   5.109   2.654  1.0421 -1.8967 -0.7300
 4058TIP3    H212181   0.570   5.023   2.759 -0.7786 -0.2115 -0.4655
 4059TIP3   OH212182   0.582   3.776   2.649 -0.5009  0.0672 -0.8848
 4059TIP3    H112183   0.577   3.749   2.557 -0.7543  0.7710 -1.0805
 4059TIP3    H212184   0.525   3.852   2.655 -3.5100 -2.0795  0.6661
 4060TIP3   OH212185   0.234   2.964   3.579  0.1464  0.6154 -0.2558
 4060TIP3    H112186   0.153   2.962   3.630 -0.5462  3.0624 -1.0956
 4060TIP3    H212187   0.302   2.937   3.640 -1.0575  0.2654  0.9898
 4061TIP3   OH212188   1.070   3.373   4.905  0.1728  0.0339 -0.2854
 4061TIP3    H112189   1.165   3.367   4.893  0.5281 -0.0908  2.0252
 4061TIP3    H212190   1.047   3.461   4.873  0.9334 -0.1694 -1.4442
 4062TIP3   OH212191   4.221   1.619   2.227  0.4179  0.0113 -0.3391
 4062TIP3    H112192   4.175   1.554   2.175  0.0954 -0.9521  1.0790
 4062TIP3    H212193   4.196   1.599   2.318  3.2555 -0.2719  0.4685
 4063TIP3   OH212194   5.331   1.961   0.543  0.2647 -0.3451 -0.5851
 4063TIP3    H112195   5.319   2.053   0.519  2.6836  0.1613 -0.1756
 4063TIP3    H212196   5.274   1.947   0.618  0.5889  1.1380 -0.0306
 4064TIP3   OH212197   1.889   5.338   0.523  0.2651  0.6204  0.1991
 4064TIP3    H112198   1.804   5.363   0.486  0.3271 -0.6006 -0.8735
 4064TIP3    H212199   1.947   5.331   0.447  0.9414  0.0175  0.7554
 4065TIP3   OH212200   3.779   3.147   3.674  0.0831  0.3834  0.5533
 4065TIP3    H112201   3.718   3.074   3.658 -0.8455  1.1882  0.3170
 4065TIP3    H212202   3.866   3.107   3.670 -0.3681 -0.5571 -0.4940
 4066TIP3   OH212203   1.274   2.046   3.955 -0.2776 -0.1472 -0.2361
 4066TIP3    H112204   1.227   2.128   3.941  0.7961  0.7593  1.1082
 4066TIP3    H212205   1.250   2.020   4.044 -0.1986 -1.0198 -0.4617
 4067TIP3   OH212206   1.116   4.370   3.254  0.1913 -0.1572 -0.0722
 4067TIP3    H112207   1.091   4.447   3.203  0.5940 -0.1765 -0.3037
 4067TIP3    H212208   1.210   4.381   3.268  0.6344 -1.4882 -1.6509
 4068TIP3   OH212209   0.416   2.948   2.935  0.4621  0.6710 -0.2603
 4068TIP3    H112210   0.404   2.983   3.024  1.2136 -0.8035  0.4506
 4068TIP3    H212211   0.328   2.948   2.897  0.1506  1.4615  0.4174
 4069TIP3   OH212212   5.719   3.238   4.374  0.4554  0.5213  0.1703
 4069TIP3    H112213   5.671   3.176   4.429 -2.2491  1.6870 -0.6961
 4069TIP3    H212214   5.727   3.317   4.428  0.0337  0.8294 -0.2095
 4070TIP3   OH212215   2.591   3.013   2.878  0.4255  0.2092  0.7493
 4070TIP3    H112216   2.524   3.058   2.930 -0.0263  0.8696 -0.3678
 4070TIP3    H212217   2.586   2.922   2.907  0.3023  0.5817  1.9669
 4071TIP3   OH212218   5.889   5.104   3.644 -0.1971 -0.1361  0.0273
 4071TIP3    H112219   5.959   5.125   3.582 -0.2010  0.8043  0.3353
 4071TIP3    H212220   5.931   5.110   3.730 -0.2788 -1.0942  0.1433
 4072TIP3   OH212221   6.143   0.105   0.765 -0.1600  0.0038  0.2968
 4072TIP3    H112222   6.059   0.060   0.764 -0.5689  0.7125  0.9806
 4072TIP3    H212223   6.188   0.071   0.843 -0.8584  1.3973  1.3648
 4073TIP3   OH212224   5.911   0.451   1.254 -0.1358  0.0148  0.1032
 4073TIP3    H112225   5.937   0.421   1.167 -0.0757 -0.9338  0.4399
 4073TIP3    H212226   5.970   0.524   1.273 -0.2114  0.2879 -0.6868
 4074TIP3   OH212227   5.382   4.689   0.008  0.3067  0.3329  0.0258
 4074TIP3    H112228   5.311   4.750   0.024 -0.9535 -1.0506 -0.0781
 4074TIP3    H212229   5.349   4.604   0.038  2.2104 -0.2244  0.7011
 4075TIP3   OH212230   4.457   3.607   4.659 -0.9400  0.4470  0.5699
 4075TIP3    H112231   4.482   3.644   4.574  0.5606  0.0772  0.8331
 4075TIP3    H212232   4.503   3.660   4.724  1.4828 -1.9224  0.9494
 4076TIP3   OH212233   4.970   5.018   2.785  0.0889 -0.0593  0.1981
 4076TIP3    H112234   4.983   5.112   2.789  0.5732 -0.1398  0.6855
 4076TIP3    H212235   4.881   5.007   2.751 -0.3412  0.5837  1.0728
 4077TIP3   OH212236   2.819   0.564   1.599  0.0189  0.4833 -0.4736
 4077TIP3    H112237   2.727   0.539   1.592 -0.3533  1.0627  1.6425
 4077TIP3    H212238   2.867   0.485   1.576 -0.9589  0.3340 -2.1759
 4078TIP3   OH212239   1.887   3.620   3.886  0.3814 -0.1550  0.0019
 4078TIP3    H112240   1.815   3.560   3.905 -0.1618  0.9744  1.8095
 4078TIP3    H212241   1.926   3.587   3.806  2.0239 -4.7409  2.3662
 4079TIP3   OH212242   3.751   3.214   4.980 -0.1065  0.1778 -0.2638
 4079TIP3    H112243   3.717   3.125   4.975 -1.3065  0.6250 -0.3688
 4079TIP3    H212244   3.730   3.243   5.069 -0.5065  0.6547 -0.5089
 4080TIP3   OH212245   5.797   5.467   2.582 -0.5329 -0.0313 -0.4269
 4080TIP3    H112246   5.890   5.450   2.573 -0.6250 -1.3493  0.7335
 4080TIP3    H212247   5.792   5.555   2.619  0.1982  0.4424 -1.4156
 4081TIP3   OH212248   4.154   0.293   0.542 -0.0207 -0.3174 -0.2796
 4081TIP3    H112249   4.210   0.368   0.518  0.6566 -1.5221 -2.8266
 4081TIP3    H212250   4.158   0.291   0.637  2.6672  0.9103 -0.2410
 4082TIP3   OH212251   5.684   4.843   2.917  0.0679  0.0272  0.1634
 4082TIP3    H112252   5.625   4.908   2.881  1.3052  1.1499  0.0925
 4082TIP3    H212253   5.629   4.790   2.975 -0.9402  1.1789  0.2940
 4083TIP3   OH212254   5.634   3.360   1.906 -0.2611  0.2039 -0.0563
 4083TIP3    H112255   5.653   3.301   1.978  0.6380  1.6501  0.9431
 4083TIP3    H212256   5.640   3.305   1.828 -1.2821 -1.3952  0.9342
 4084TIP3   OH212257   0.548   1.061   1.181 -0.0343  0.3461  0.4034
 4084TIP3    H112258   0.582   1.131   1.237  1.8235  0.3464 -0.6574
 4084TIP3    H212259   0.598   0.983   1.207 -2.6137 -0.8561  2.1160
 4085TIP3   OH212260   5.455   0.708   4.813  0.8241 -0.8097  0.3436
 4085TIP3    H112261   5.548   0.695   4.794  0.7874 -0.7637  0.1249
 4085TIP3    H212262   5.411   0.634   4.769  0.7743 -0.9317  0.5991
 4086TIP3   OH212263   0.808   4.543   4.548  0.0051 -0.0090  0.4212
 4086TIP3    H112264   0.890   4.589   4.568  0.2455 -1.0155  1.9190
 4086TIP3    H212265   0.834   4.467   4.497  0.2881 -1.3193  2.4027
 4087TIP3   OH212266   2.045   3.472   0.508  0.4748  0.6030  0.1804
 4087TIP3    H112267   2.032   3.533   0.581 -2.0676  1.7843 -1.1158
 4087TIP3    H212268   2.044   3.528   0.430 -0.3140 -0.9301 -0.9618
 4088TIP3   OH212269   3.159   3.506   5.042  0.3845 -0.3618 -0.1799
 4088TIP3    H112270   3.157   3.469   4.954  1.9874 -0.1303 -0.3450
 4088TIP3    H212271   3.125   3.595   5.031  1.9571  0.1936 -0.8849
 4089TIP3   OH212272   1.061   0.957   2.740 -0.2050  0.0566 -0.0768
 4089TIP3    H112273   1.147   0.916   2.724 -1.2408 -2.3372  0.0402
 4089TIP3    H212274   1.013   0.942   2.659 -0.7125  0.9180  0.0529
 4090TIP3   OH212275   1.925   1.005   3.544  0.0323  0.3994 -0.3474
 4090TIP3    H112276   1.836   0.973   3.554  0.4143 -0.5355  0.1143
 4090TIP3    H212277   1.915   1.100   3.531 -1.0350  0.2590 -0.6101
 4091TIP3   OH212278   1.181   2.899   1.766 -0.4978 -0.2547 -0.0932
 4091TIP3    H112279   1.175   2.871   1.857  1.1876 -1.1537 -0.2202
 4091TIP3    H212280   1.212   2.821   1.719  0.2240  0.6456 -1.1570
 4092TIP3   OH212281   4.534   4.109   1.975  0.5806  0.0358 -1.0083
 4092TIP3    H112282   4.530   4.013   1.983 -0.8158  0.0872 -0.9650
 4092TIP3    H212283   4.561   4.124   1.885 -1.1327 -0.4033 -1.6216
 4093TIP3   OH212284   3.363   2.765   0.688  0.0691  0.4009 -0.2105
 4093TIP3    H112285   3.406   2.832   0.636 -0.1752 -0.1158 -1.1057
 4093TIP3    H212286   3.274   2.799   0.702 -0.2279  0.0391 -1.1326
 4094TIP3   OH212287   2.498   0.977   2.139 -0.2904 -0.2836 -0.0839
 4094TIP3    H112288   2.543   0.938   2.064  0.2971  0.0624  0.0848
 4094TIP3    H212289   2.565   0.982   2.207 -0.3082  1.1856 -0.1540
 4095TIP3   OH212290   2.780   5.276   1.603 -0.4370 -0.1848 -0.1859
 4095TIP3    H112291   2.705   5.228   1.568 -1.7363  1.1436  0.6421
 4095TIP3    H212292   2.742   5.354   1.643  1.1416 -0.5810  2.3202
 4096TIP3   OH212293   5.110   1.468   4.755 -0.0311  0.1280  0.1038
 4096TIP3    H112294   5.189   1.521   4.754  0.1023 -0.0603  0.5514
 4096TIP3    H212295   5.136   1.385   4.716 -0.0597  0.1346  0.0701
 4097TIP3   OH212296   2.612   1.385   1.395 -0.3967 -0.5906 -0.1663
 4097TIP3    H112297   2.670   1.392   1.471 -0.8423  1.3313  0.0357
 4097TIP3    H212298   2.525   1.408   1.428 -0.8001 -0.7960 -1.0360
 4098TIP3   OH212299   4.109   2.372   3.062 -0.7163 -0.0344  0.5889
 4098TIP3    H112300   4.112   2.436   2.991  2.3008  0.1895  0.8013
 4098TIP3    H212301   4.149   2.417   3.136  0.3711 -1.7232  1.0804
 4099TIP3   OH212302   1.095   2.388   3.486 -0.0486  0.1968  0.1694
 4099TIP3    H112303   1.164   2.388   3.553 -0.4848 -0.7586  0.6454
 4099TIP3    H212304   1.015   2.373   3.536 -0.2284 -2.0051 -0.6820
 4100TIP3   OH212305   0.440   0.985   2.280 -0.3573 -0.3810  0.3266
 4100TIP3    H112306   0.431   1.012   2.371 -0.3380 -0.9310  0.4964
 4100TIP3    H212307   0.489   1.056   2.239  0.5609 -0.6064  0.9948
 4101TIP3   OH212308   3.853   5.370   1.076 -0.2988  0.7102 -0.4312
 4101TIP3    H112309   3.868   5.325   1.159  0.6465  0.1254 -0.8942
 4101TIP3    H212310   3.935   5.417   1.060  0.5297 -1.1745 -2.2173
 4102TIP3   OH212311   2.216   3.547   1.654  0.0376 -0.3012 -0.0496
 4102TIP3    H112312   2.282   3.616   1.660  0.5062 -0.7383 -0.1305
 4102TIP3    H212313   2.214   3.524   1.561  0.5813 -1.0614  0.1179
 4103TIP3   OH212314   0.345   4.450   4.836 -0.4077 -0.4333 -0.1368
 4103TIP3    H112315   0.429   4.447   4.791 -0.3313 -1.7574  0.0580
 4103TIP3    H212316   0.280   4.441   4.766 -0.5124  2.3055 -0.5034
 4104TIP3   OH212317   4.521   5.186   1.255 -0.3646 -0.0971  0.2050
 4104TIP3    H112318   4.502   5.242   1.330  1.1995 -0.0731  0.6315
 4104TIP3    H212319   4.516   5.244   1.179  0.5885  0.4989  0.5776
 4105TIP3   OH212320   3.244   2.488   2.193  0.0045  0.2773 -0.5275
 4105TIP3    H112321   3.209   2.402   2.170 -0.9866  1.1979 -2.8034
 4105TIP3    H212322   3.167   2.539   2.219  0.8968 -0.2762  4.0297
 4106TIP3   OH212323   5.699   0.962   3.529 -0.3476 -0.0842  0.3159
 4106TIP3    H112324   5.651   0.951   3.447  0.6911 -0.7813 -0.2296
 4106TIP3    H212325   5.644   1.018   3.583 -0.9590  0.5433 -0.9350
 4107TIP3   OH212326   4.047   4.342   3.590  0.3151  0.2681 -0.2242
 4107TIP3    H112327   3.958   4.372   3.572  0.4832  0.0490 -1.4785
 4107TIP3    H212328   4.038   4.249   3.609  0.3146  0.1680 -0.7067
 4108TIP3   OH212329   0.223   5.361   0.329  0.0698  0.3169 -0.3186
 4108TIP3    H112330   0.154   5.425   0.312 -1.2153 -0.9649 -0.0941
 4108TIP3    H212331   0.188   5.278   0.297  1.0220 -0.5921  0.8837
 4109TIP3   OH212332   4.162   5.576   2.218  0.0116  0.1620 -0.3522
 4109TIP3    H112333   4.128   5.488   2.235  0.8937 -0.4792 -1.7815
 4109TIP3    H212334   4.097   5.616   2.160 -0.4662  0.5207  0.4197
 4110TIP3   OH212335   0.527   3.824   4.683  0.1383  0.2632 -0.2529
 4110TIP3    H112336   0.564   3.813   4.770  0.5836 -2.1786 -0.6955
 4110TIP3    H212337   0.599   3.859   4.631  0.7146 -0.9069 -0.2554
 4111TIP3   OH212338   3.147   3.059   0.464 -0.1649 -0.5894  0.1331
 4111TIP3    H112339   3.156   2.978   0.413 -0.9834 -1.1911  0.9150
 4111TIP3    H212340   3.073   3.104   0.424 -1.2354 -1.3813  1.1832
 4112TIP3   OH212341   3.649   4.764   0.691 -0.2559  0.0370  0.6109
 4112TIP3    H112342   3.658   4.860   0.690 -1.5622  0.1745 -0.1888
 4112TIP3    H212343   3.558   4.748   0.665  0.0676 -1.4432  0.3094
 4113TIP3   OH212344   3.871   4.718   3.572 -0.6756 -0.1665 -0.8710
 4113TIP3    H112345   3.869   4.632   3.616 -0.5467 -0.0746 -0.6843
 4113TIP3    H212346   3.787   4.724   3.528 -1.1464  0.0846  0.0347
 4114TIP3   OH212347   3.139   2.298   2.556 -0.4443 -0.1048 -0.7051
 4114TIP3    H112348   3.134   2.250   2.638 -0.4710  1.2027  0.0786
 4114TIP3    H212349   3.157   2.231   2.490  1.4276 -0.9676  0.6025
 4115TIP3   OH212350   1.757   3.947  -0.028  0.0001 -0.1826 -0.5127
 4115TIP3    H112351   1.685   3.893   0.006 -0.5330  1.9333  2.0757
 4115TIP3    H212352   1.827   3.937   0.036  1.0395 -0.1153 -1.6041
 4116TIP3   OH212353   5.378   2.314   4.868 -0.0829 -0.7100 -0.1858
 4116TIP3    H112354   5.310   2.371   4.834 -0.4129 -0.9977 -0.0109
 4116TIP3    H212355   5.363   2.312   4.963  0.6848 -0.1019 -0.0353
 4117TIP3   OH212356   2.482   1.322   1.030  0.0008  0.2487  0.2242
 4117TIP3    H112357   2.490   1.227   1.034  1.3618  0.0735 -3.1863
 4117TIP3    H212358   2.557   1.351   0.978 -0.1276  3.2784  1.4879
 4118TIP3   OH212359   1.557   4.432   2.081 -0.4661  0.2229 -0.0507
 4118TIP3    H112360   1.633   4.487   2.101  1.2619 -1.1134 -2.5084
 4118TIP3    H212361   1.550   4.374   2.157 -0.5290  1.8851  1.2671
 4119TIP3   OH212362   0.470   3.764   0.910  0.2311 -0.0991 -0.1431
 4119TIP3    H112363   0.526   3.725   0.977 -1.2618 -0.5740  0.9015
 4119TIP3    H212364   0.414   3.825   0.958 -0.9902 -0.5705 -0.9069
 4120TIP3   OH212365   0.971   4.153   3.193 -0.5946 -0.2048 -0.5420
 4120TIP3    H112366   1.039   4.209   3.229  1.1764 -2.9093  0.6968
 4120TIP3    H212367   0.967   4.175   3.100  2.9666 -0.7573 -0.9510
 4121TIP3   OH212368   2.241   0.774   5.040 -0.1571  0.4823 -0.5687
 4121TIP3    H112369   2.280   0.782   4.953  1.3110  0.5181  0.0562
 4121TIP3    H212370   2.309   0.733   5.093 -0.7235  1.1684  0.7472
 4122TIP3   OH212371   0.330   3.857   3.767  0.0620  0.3832  0.4278
 4122TIP3    H112372   0.310   3.824   3.854  0.2161 -0.5135  0.1279
 4122TIP3    H212373   0.274   3.807   3.708  2.3837 -1.5014 -0.3323
 4123TIP3   OH212374   3.057   2.965   2.974  0.4630 -0.5358 -0.7016
 4123TIP3    H112375   3.112   2.976   2.896  0.7489  0.9870 -0.3271
 4123TIP3    H212376   3.116   2.987   3.047  0.0339 -1.3551 -0.0981
 4124TIP3   OH212377   1.023   4.431   2.009  0.2479  0.2151 -0.3137
 4124TIP3    H112378   1.107   4.476   2.017 -0.2160  1.3990 -1.6207
 4124TIP3    H212379   0.981   4.472   1.933 -1.2899 -0.7063 -0.0095
 4125TIP3   OH212380   4.177   1.163   1.279  0.0561  0.0803  0.0612
 4125TIP3    H112381   4.149   1.248   1.245 -0.4402  0.0875  0.4781
 4125TIP3    H212382   4.198   1.112   1.201 -1.0351  0.1066 -0.2612
 4126TIP3   OH212383   3.770   0.637   0.493 -0.2742 -0.3294  0.2601
 4126TIP3    H112384   3.746   0.610   0.582 -0.5855 -0.3296  0.1777
 4126TIP3    H212385   3.761   0.557   0.441  0.5595 -0.4878  0.3509
 4127TIP3   OH212386   1.790   5.948   3.765  0.9062 -0.2754 -0.0153
 4127TIP3    H112387   1.746   6.027   3.735  0.4153 -0.4069  0.3313
 4127TIP3    H212388   1.816   5.968   3.855  0.5673 -0.5834  0.1567
 4128TIP3   OH212389   2.513   2.851   4.279 -0.4224  0.4349  0.1315
 4128TIP3    H112390   2.440   2.820   4.332  0.1964 -1.5716 -0.1314
 4128TIP3    H212391   2.590   2.807   4.314  0.5494  1.7529 -0.2297
 4129TIP3   OH212392   4.155   4.560   1.253 -0.1454  0.4331  0.1361
 4129TIP3    H112393   4.198   4.640   1.283 -0.6187  1.3353 -1.4995
 4129TIP3    H212394   4.227   4.499   1.236  0.1478 -0.3206  3.4139
 4130TIP3   OH212395   6.292   3.340   2.682 -0.2420  0.2558  0.2936
 4130TIP3    H112396   6.339   3.257   2.680  1.4325  1.1434  0.8804
 4130TIP3    H212397   6.263   3.353   2.592  1.3932  0.0674 -0.2932
 4131TIP3   OH212398   1.029   0.121   2.218  0.3079  0.0645 -0.4683
 4131TIP3    H112399   1.092   0.055   2.188 -1.6074 -1.4953 -1.2714
 4131TIP3    H212400   0.979   0.077   2.287 -2.1880 -0.0625 -2.2140
 4132TIP3   OH212401   0.853   1.209   0.320  0.3502  0.6130 -0.2996
 4132TIP3    H112402   0.865   1.265   0.397 -0.3000 -0.2263  0.4170
 4132TIP3    H212403   0.904   1.130   0.339 -2.0936 -0.8427  0.5756
 4133TIP3   OH212404   4.568   3.227   1.131 -0.3111  0.1222 -0.3319
 4133TIP3    H112405   4.509   3.157   1.103  1.3410 -0.9040 -1.4475
 4133TIP3    H212406   4.518   3.307   1.119 -1.3958 -0.6905 -1.5283
 4134TIP3   OH212407   4.537   3.232   2.512 -0.2160  0.1792  0.7029
 4134TIP3    H112408   4.512   3.174   2.585 -0.6170 -0.1206  0.3304
 4134TIP3    H212409   4.490   3.197   2.437 -2.0592  2.1266  0.8441
 4135TIP3   OH212410   1.280   1.117   4.820 -0.0572  0.1604  0.1050
 4135TIP3    H112411   1.374   1.111   4.808 -0.1827 -2.3129 -0.2971
 4135TIP3    H212412   1.245   1.129   4.732 -0.1593  0.1324  0.1415
 4136TIP3   OH212413   4.164   2.841   4.488 -0.6827  0.0669  0.0492
 4136TIP3    H112414   4.154   2.800   4.574 -0.1364 -1.3260 -0.5256
 4136TIP3    H212415   4.145   2.771   4.425  0.8461  0.5218 -0.9692
 4137TIP3   OH212416   2.559   0.822   0.853  0.3418  0.1874 -0.5057
 4137TIP3    H112417   2.606   0.798   0.773  0.6030 -1.0672  0.0130
 4137TIP3    H212418   2.483   0.870   0.822 -0.8035 -2.2362 -1.7066
 4138TIP3   OH212419   4.482   2.134   2.629  0.2196  0.5063  0.2257
 4138TIP3    H112420   4.541   2.208   2.614  0.8281  0.0758  0.4976
 4138TIP3    H212421   4.513   2.093   2.710  0.8432 -0.9612 -0.7136
 4139TIP3   OH212422   5.963   0.357   1.972  0.0478  0.3262  0.4051
 4139TIP3    H112423   5.958   0.420   1.900  0.1298  1.0906  1.0532
 4139TIP3    H212424   5.992   0.276   1.931  1.0172  0.9984 -0.2761
 4140TIP3   OH212425   2.769   0.822   2.113  0.2330 -0.4197 -0.1957
 4140TIP3    H112426   2.724   0.738   2.123  0.6045 -0.5856  0.1614
 4140TIP3    H212427   2.753   0.848   2.023 -0.8445 -0.3138  0.0190
 4141TIP3   OH212428   3.052   5.460   2.100 -0.4987  0.2977 -0.2110
 4141TIP3    H112429   2.992   5.389   2.080  2.0623 -1.6331 -1.7060
 4141TIP3    H212430   3.074   5.448   2.192 -0.9988 -0.0807 -0.1388
 4142TIP3   OH212431   5.572   1.453   1.973  0.2316 -0.2442  0.2384
 4142TIP3    H112432   5.487   1.412   1.991  0.3151 -0.1250  0.9405
 4142TIP3    H212433   5.551   1.532   1.922 -0.1787  0.3317  1.2685
 4143TIP3   OH212434   3.148   1.083   4.082 -0.2656  0.2001 -0.2374
 4143TIP3    H112435   3.179   1.002   4.122  0.2838  0.9335  0.8534
 4143TIP3    H212436   3.191   1.084   3.996 -2.0595 -1.7659 -1.2651
 4144TIP3   OH212437   2.370   1.393   0.095 -0.6164 -0.3294  0.2883
 4144TIP3    H112438   2.376   1.448   0.016  1.4540 -0.1147  0.5471
 4144TIP3    H212439   2.335   1.452   0.162 -0.6901  0.0014 -0.0371
 4145TIP3   OH212440   1.810   5.307   4.446 -0.2234  0.5731  0.1342
 4145TIP3    H112441   1.755   5.267   4.514  0.5783 -2.1693 -0.6656
 4145TIP3    H212442   1.882   5.346   4.495 -1.6565  2.1879  1.0468
 4146TIP3   OH212443   0.188   3.957   2.132 -0.1693  0.3695  0.2447
 4146TIP3    H112444   0.111   3.953   2.075 -0.6474  2.1916  0.6953
 4146TIP3    H212445   0.169   3.895   2.202 -1.1214  0.6122  0.2150
 4147TIP3   OH212446   4.092   4.605   4.542 -0.1051  0.0254  0.0796
 4147TIP3    H112447   4.095   4.692   4.581 -2.9534  0.3976 -0.3492
 4147TIP3    H212448   4.002   4.576   4.555  0.2087 -1.9712 -1.6975
 4148TIP3   OH212449   0.134   0.964   3.039 -0.2268 -0.3171 -0.0403
 4148TIP3    H112450   0.112   0.951   2.947 -1.9230  0.7194  0.1887
 4148TIP3    H212451   0.200   0.896   3.057  0.8360  0.0216 -2.2286
 4149TIP3   OH212452   1.279   1.396   3.829 -0.0328 -0.4305 -0.6293
 4149TIP3    H112453   1.191   1.371   3.854  0.3608 -0.0050  1.2846
 4149TIP3    H212454   1.298   1.474   3.879  1.4342 -0.4967 -1.0209
 4150TIP3   OH212455   5.250   2.059   2.935 -0.1157 -0.5734  0.5735
 4150TIP3    H112456   5.247   1.976   2.887 -1.8455 -0.6820  0.7999
 4150TIP3    H212457   5.207   2.040   3.018 -1.0760  0.6859  0.3866
 4151TIP3   OH212458   3.344   1.862   4.528  0.1533 -0.5319 -0.1773
 4151TIP3    H112459   3.274   1.905   4.577 -0.0436  0.1288 -1.0358
 4151TIP3    H212460   3.304   1.783   4.492  0.3972 -1.2259  1.0185
 4152TIP3   OH212461   4.495   1.080   3.245  0.2426  0.1939  0.4034
 4152TIP3    H112462   4.469   1.145   3.179  0.5890  0.0860  0.1562
 4152TIP3    H212463   4.450   1.107   3.324  0.9303  1.1420  0.4900
 4153TIP3   OH212464   5.533   5.569   1.308  0.0518 -0.7248 -0.3822
 4153TIP3    H112465   5.598   5.575   1.378  0.6182  0.4770 -0.9790
 4153TIP3    H212466   5.555   5.641   1.249  1.0297 -3.0025 -3.0209
 4154TIP3   OH212467   4.155   1.392   2.047 -0.5823 -0.0129 -0.3741
 4154TIP3    H112468   4.249   1.390   2.064 -0.8408  1.0572  1.3768
 4154TIP3    H212469   4.116   1.348   2.122 -1.5907  1.6384  0.1199
 4155TIP3   OH212470   5.161   1.010   0.026 -0.1969 -0.1962 -0.3549
 4155TIP3    H112471   5.098   0.971   0.088 -0.8832  0.6862 -0.4900
 4155TIP3    H212472   5.211   1.072   0.079  0.4648 -0.7706 -0.2874
 4156TIP3   OH212473   0.679   2.928   2.830  0.5779  0.1988 -0.5236
 4156TIP3    H112474   0.685   2.853   2.770  0.1894 -0.2735  0.0108
 4156TIP3    H212475   0.596   2.915   2.876  0.2226  1.2827 -0.8327
 4157TIP3   OH212476   1.859   1.466   2.967  0.3966  0.0712 -0.5819
 4157TIP3    H112477   1.846   1.546   2.916  1.5722  1.0103  0.5243
 4157TIP3    H212478   1.881   1.399   2.903 -1.3685  0.4127 -1.6106
 4158TIP3   OH212479   2.598   0.306   1.215  0.0637 -0.7415  0.1212
 4158TIP3    H112480   2.568   0.292   1.125 -0.7199 -2.0091  0.5525
 4158TIP3    H212481   2.644   0.225   1.237  0.5893 -0.2822  0.7324
 4159TIP3   OH212482   3.174   4.650   2.779 -0.1382  0.5797 -0.1943
 4159TIP3    H112483   3.173   4.618   2.870 -0.9481  0.1467 -0.3455
 4159TIP3    H212484   3.085   4.684   2.765 -0.4122 -0.5042 -1.2122
 4160TIP3   OH212485   6.310   2.856   3.615  0.8135  0.4512 -0.0440
 4160TIP3    H112486   6.346   2.768   3.629 -1.4801 -0.4779  0.5463
 4160TIP3    H212487   6.273   2.880   3.700  0.2616  1.4303 -0.5472
 4161TIP3   OH212488   2.040   2.532   4.053  0.4406 -0.3570  0.1525
 4161TIP3    H112489   2.009   2.475   3.983 -0.1980  0.1972 -0.0250
 4161TIP3    H212490   2.085   2.604   4.008  0.0746 -0.0257  0.3069
 4162TIP3   OH212491   4.964   5.536   4.112  0.0561  0.2095  0.2330
 4162TIP3    H112492   4.901   5.527   4.040  0.3727 -0.8212  0.0774
 4162TIP3    H212493   4.998   5.625   4.102 -1.7488  0.9987  0.6397
 4163TIP3   OH212494   1.124   3.105   0.050  0.2022  0.5399 -0.2972
 4163TIP3    H112495   1.197   3.068   0.100  2.6973  1.2016 -3.0919
 4163TIP3    H212496   1.145   3.198   0.042 -1.2911  0.8693 -0.6575
 4164TIP3   OH212497   2.202   2.588   0.548  0.1494 -0.2966 -0.6427
 4164TIP3    H112498   2.241   2.539   0.475  2.4569 -2.5563  1.8587
 4164TIP3    H212499   2.180   2.521   0.612  2.1274  1.7391  2.4178
 4165TIP3   OH212500   6.208   0.026   0.486  0.1176 -0.3105 -0.2853
 4165TIP3    H112501   6.183   0.031   0.578  0.8076 -1.2839 -0.0179
 4165TIP3    H212502   6.196   0.114   0.452 -0.1602  0.0537  0.7385
 4166TIP3   OH212503   4.610   2.622   3.074  0.4523 -0.1718  0.0042
 4166TIP3    H112504   4.528   2.587   3.038  1.1255 -0.7560 -1.0225
 4166TIP3    H212505   4.627   2.700   3.022  0.8661 -0.4098 -0.2247
 4167TIP3   OH212506   4.105   0.510   4.796  0.1999  0.3454  0.2321
 4167TIP3    H112507   4.108   0.417   4.820  0.4135  0.1344 -0.5743
 4167TIP3    H212508   4.087   0.510   4.702 -1.3956  1.1562  0.5115
 4168TIP3   OH212509   1.141   5.850   1.813  0.2039 -0.8237 -0.0266
 4168TIP3    H112510   1.155   5.899   1.894 -0.2648 -0.5643 -0.0973
 4168TIP3    H212511   1.122   5.917   1.747  1.0746 -0.9972 -0.4677
 4169TIP3   OH212512   4.538   1.140   2.014  0.0526 -0.1634 -0.3285
 4169TIP3    H112513   4.468   1.090   2.056 -0.4492 -1.0348 -2.0853
 4169TIP3    H212514   4.502   1.229   2.006 -1.2683 -0.7662 -1.9204
 4170TIP3   OH212515   0.991   3.736   5.021  0.0975  0.3454 -0.4850
 4170TIP3    H112516   0.991   3.713   4.929  1.0297  1.6458 -0.8374
 4170TIP3    H212517   1.026   3.825   5.024  0.3233  0.2387  1.1466
 4171TIP3   OH212518   5.647   0.141   0.721  0.2959  0.3937 -0.1255
 4171TIP3    H112519   5.584   0.079   0.685  0.9626 -1.9864  2.5045
 4171TIP3    H212520   5.602   0.181   0.796  1.7322 -1.2515  1.7189
 4172TIP3   OH212521   5.566   1.802   3.931  0.4541 -0.1719  0.0335
 4172TIP3    H112522   5.479   1.821   3.968  0.1841  0.6133 -0.9380
 4172TIP3    H212523   5.563   1.709   3.910  0.4571 -0.5295  1.5326
 4173TIP3   OH212524   5.677   3.620   3.264 -0.0911 -0.1555 -0.3362
 4173TIP3    H112525   5.708   3.562   3.195  2.2485 -1.3398  1.5891
 4173TIP3    H212526   5.752   3.631   3.322 -0.9846  3.3298  0.4330
 4174TIP3   OH212527   2.271   1.703   0.899 -0.0523  0.2609  0.7074
 4174TIP3    H112528   2.298   1.793   0.914  0.6608  0.1310  0.2690
 4174TIP3    H212529   2.194   1.710   0.843 -0.0206  0.5947  0.7028
 4175TIP3   OH212530   0.550   1.928   4.872 -0.3019 -0.1357  0.1455
 4175TIP3    H112531   0.563   1.835   4.893  0.1013 -0.1461 -0.1378
 4175TIP3    H212532   0.456   1.942   4.884 -0.3428 -0.5479  0.3241
 4176TIP3   OH212533   0.245   1.103   3.693 -0.1695 -0.2420 -0.4129
 4176TIP3    H112534   0.310   1.035   3.712  0.8240  1.1174  1.3395
 4176TIP3    H212535   0.281   1.150   3.618 -0.4266 -1.0618 -1.0679
 4177TIP3   OH212536   4.236   5.448   1.414 -0.1705  0.4788 -0.5807
 4177TIP3    H112537   4.263   5.357   1.400 -0.8682  0.0977  0.4897
 4177TIP3    H212538   4.315   5.499   1.393  0.2593 -0.3603 -1.0999
 4178TIP3   OH212539   0.796   0.784   0.221  0.7461 -0.2657 -0.2763
 4178TIP3    H112540   0.885   0.774   0.189  0.8774 -0.8237  0.2627
 4178TIP3    H212541   0.741   0.750   0.151  0.9710 -0.3090 -0.4316
 4179TIP3   OH212542   4.408   1.346   0.747  0.0020 -0.3013 -0.1085
 4179TIP3    H112543   4.403   1.442   0.752 -0.9683 -0.1859 -2.2921
 4179TIP3    H212544   4.356   1.315   0.821 -0.8808  0.8671 -0.2129
 4180TIP3   OH212545   6.249   2.150   1.657  0.7777 -0.3096 -0.3447
 4180TIP3    H112546   6.305   2.163   1.734 -0.2908 -0.6281  0.5088
 4180TIP3    H212547   6.294   2.197   1.587  1.5167  0.4257  0.5902
 4181TIP3   OH212548   4.600   5.047   0.635 -0.1038 -0.0322  0.6392
 4181TIP3    H112549   4.608   5.067   0.728 -0.0878  2.7329  0.1149
 4181TIP3    H212550   4.675   5.090   0.594 -0.2261 -1.0092 -0.7081
 4182TIP3   OH212551   3.243   1.342   0.735  0.1246  0.0388  0.5029
 4182TIP3    H112552   3.251   1.290   0.815  0.6586 -0.9650 -0.1835
 4182TIP3    H212553   3.282   1.427   0.758 -2.1124  0.7326  2.0907
 4183TIP3   OH212554   3.908   3.489   1.135 -0.5201  0.0197 -0.4544
 4183TIP3    H112555   3.974   3.435   1.179 -1.5610 -2.4083 -1.6310
 4183TIP3    H212556   3.829   3.477   1.188 -0.5347  1.2482 -0.1795
 4184TIP3   OH212557   2.981   4.903   2.054 -0.5557 -0.1429 -0.0642
 4184TIP3    H112558   2.934   4.920   1.972 -0.4844  0.8948  0.0914
 4184TIP3    H212559   2.918   4.923   2.123 -0.6084 -0.9999  0.1429
 4185TIP3   OH212560   1.242   4.936   0.850  0.3805 -0.1344  0.3669
 4185TIP3    H112561   1.222   4.850   0.813  1.1944  0.6312 -2.0434
 4185TIP3    H212562   1.338   4.938   0.857  0.3749  0.6195  0.2949
 4186TIP3   OH212563   2.165   4.113   0.803 -0.0978  0.6796  0.1619
 4186TIP3    H112564   2.224   4.140   0.873 -1.5482  0.7103  1.4378
 4186TIP3    H212565   2.084   4.162   0.820 -0.9180 -0.3092 -0.7539
 4187TIP3   OH212566   1.530   1.448   0.530 -0.0843 -0.1312  0.8141
 4187TIP3    H112567   1.460   1.441   0.594 -0.6701 -0.5624  0.1375
 4187TIP3    H212568   1.608   1.467   0.582 -0.6904  0.3357  1.5750
 4188TIP3   OH212569   3.389   4.435   5.136 -0.0753  0.2997 -0.5184
 4188TIP3    H112570   3.338   4.413   5.058  0.7132 -1.8062 -0.5093
 4188TIP3    H212571   3.342   4.393   5.208  0.5351  0.1193 -0.2192
 4189TIP3   OH212572   2.252   1.936   4.483 -0.5447  0.0061  0.1245
 4189TIP3    H112573   2.347   1.924   4.491 -0.4635  0.7009  0.1988
 4189TIP3    H212574   2.215   1.861   4.530 -0.0384 -0.6545 -0.5099
 4190TIP3   OH212575   1.359   2.775   1.140 -0.0542  0.1042 -0.2135
 4190TIP3    H112576   1.419   2.836   1.183  2.2126 -0.6267 -2.0985
 4190TIP3    H212577   1.411   2.697   1.124 -2.3252 -1.6428  0.3732
 4191TIP3   OH212578   0.615   4.840   1.027 -0.2490 -0.0235 -0.8907
 4191TIP3    H112579   0.559   4.839   1.105  1.3852  1.0886  0.3680
 4191TIP3    H212580   0.697   4.801   1.057  0.9726  1.9283 -1.5719
 4192TIP3   OH212581   6.070   5.390   0.489 -0.1094  0.6186  0.5987
 4192TIP3    H112582   6.131   5.391   0.562 -1.1220 -0.8186  1.5092
 4192TIP3    H212583   6.033   5.302   0.490  0.7646  0.0681 -2.4326
 4193TIP3   OH212584   4.008   2.302   4.047  0.1189  0.5504  0.2871
 4193TIP3    H112585   4.022   2.208   4.049  1.4782  0.7370  1.0918
 4193TIP3    H212586   3.964   2.319   3.964 -4.1764 -1.2627  1.9151
 4194TIP3   OH212587   3.517   5.739   4.520  0.1389 -0.2423  0.0151
 4194TIP3    H112588   3.513   5.830   4.550  1.2849 -0.3433  0.5156
 4194TIP3    H212589   3.429   5.705   4.537 -0.0615  0.5288  0.6082
 4195TIP3   OH212590   0.704   0.667   1.832 -0.1996  0.2367  0.2043
 4195TIP3    H112591   0.735   0.754   1.856 -1.8891  0.8826  0.1432
 4195TIP3    H212592   0.734   0.654   1.742 -0.5576  1.0555 -0.0343
 4196TIP3   OH212593   2.928   0.292   4.458 -0.2971  0.3843  0.4067
 4196TIP3    H112594   3.018   0.307   4.486 -0.9005  1.7287  1.7395
 4196TIP3    H212595   2.932   0.213   4.403  1.5844  0.1114  0.9017
 4197TIP3   OH212596   3.056   3.208   3.206 -0.6181  0.2905 -0.0139
 4197TIP3    H112597   2.989   3.139   3.203 -0.6698  0.3304  0.1830
 4197TIP3    H212598   3.059   3.242   3.117 -0.2248 -0.3153 -0.2403
 4198TIP3   OH212599   1.721   3.005   0.580 -0.2830  0.1317  0.4042
 4198TIP3    H112600   1.690   2.915   0.569  0.6131 -0.0180 -1.0967
 4198TIP3    H212601   1.808   2.996   0.619  0.0204  0.3281 -0.2274
 4199TIP3   OH212602   3.480   4.347   1.998  0.0670 -0.5539 -0.3547
 4199TIP3    H112603   3.479   4.374   1.906 -0.8333  2.9077  0.4999
 4199TIP3    H212604   3.389   4.328   2.019  0.0295  0.1455  0.1494
 4200TIP3   OH212605   1.472   5.440   4.870 -0.1104 -0.1130 -0.3123
 4200TIP3    H112606   1.525   5.453   4.791  0.2805 -3.1134 -0.6683
 4200TIP3    H212607   1.533   5.405   4.934 -0.6753  1.2102  1.0080
 4201TIP3   OH212608   4.708   4.474   2.984  0.1352  0.4412 -0.9129
 4201TIP3    H112609   4.649   4.503   3.054 -0.5282  0.4455 -1.4650
 4201TIP3    H212610   4.736   4.554   2.941  0.2125  0.4141 -0.9129
 4202TIP3   OH212611   5.163   0.038   3.881  0.0482  0.0188 -0.4510
 4202TIP3    H112612   5.249   0.081   3.883  0.0370  0.2241 -2.4757
 4202TIP3    H212613   5.110   0.093   3.824 -1.3514 -0.2980  0.5062
 4203TIP3   OH212614   1.864   3.946   0.479 -0.3443  0.0205 -0.2002
 4203TIP3    H112615   1.778   3.931   0.439 -0.6497  2.5621 -0.6244
 4203TIP3    H212616   1.925   3.899   0.422 -1.4546 -2.5440  0.5760
 4204TIP3   OH212617   2.680   1.375   0.828  0.1822 -0.3511  0.0890
 4204TIP3    H112618   2.660   1.356   0.736 -0.6336 -1.4065  0.4620
 4204TIP3    H212619   2.747   1.443   0.824 -0.5597  0.3549 -1.2789
 4205TIP3   OH212620   3.573   5.487   5.052 -1.2081 -0.1264 -0.2946
 4205TIP3    H112621   3.610   5.532   4.976  0.3131  0.0840  0.5259
 4205TIP3    H212622   3.481   5.514   5.053 -1.4831 -0.8013 -2.5079
 4206TIP3   OH212623   2.648   3.995   1.751 -0.1246 -1.0230 -0.2096
 4206TIP3    H112624   2.583   4.065   1.760  0.3524 -0.6757  0.7930
 4206TIP3    H212625   2.647   3.971   1.659 -0.8921 -0.2632 -0.4028
 4207TIP3   OH212626   0.778   4.028   4.696 -0.3103  0.2506  0.0408
 4207TIP3    H112627   0.818   4.108   4.730 -0.2749  0.2754 -0.0572
 4207TIP3    H212628   0.751   3.979   4.774 -0.1699  0.2745  0.1053
 4208TIP3   OH212629   4.445   0.340   1.775 -0.0662  0.0883  0.7012
 4208TIP3    H112630   4.514   0.406   1.780  1.0783 -1.0122  0.2784
 4208TIP3    H212631   4.468   0.277   1.844 -0.8706 -0.1129  0.7945
 4209TIP3   OH212632   0.286   5.532   2.516  0.5721  0.3510 -0.2278
 4209TIP3    H112633   0.359   5.593   2.527 -0.5589  2.1097 -1.7431
 4209TIP3    H212634   0.280   5.519   2.421 -0.4129 -0.6201 -0.0542
 4210TIP3   OH212635   4.270   0.459   3.470 -0.2709 -0.2184 -0.1938
 4210TIP3    H112636   4.249   0.366   3.477 -1.5783  0.0591 -0.1875
 4210TIP3    H212637   4.186   0.501   3.450  0.2436  0.9994  0.1223
 4211TIP3   OH212638   5.598   5.469   4.912 -0.3553 -0.1952  0.3238
 4211TIP3    H112639   5.668   5.404   4.922 -0.1582 -0.1781 -0.8224
 4211TIP3    H212640   5.622   5.539   4.973  0.3736 -0.4122  0.2958
 4212TIP3   OH212641   4.099   2.342   1.868 -0.2827 -0.5659  0.6811
 4212TIP3    H112642   4.121   2.379   1.783 -0.2338  2.3225  1.8180
 4212TIP3    H212643   4.090   2.248   1.852  1.6595 -0.4163 -2.0759
 4213TIP3   OH212644   5.856   0.663   4.196  0.0205 -0.0113  0.0067
 4213TIP3    H112645   5.839   0.674   4.103 -0.7594  0.7180  0.2189
 4213TIP3    H212646   5.785   0.711   4.239 -0.3430 -1.3591  0.9878
 4214TIP3   OH212647   0.829   1.281   3.690  0.0926 -0.5981 -0.1544
 4214TIP3    H112648   0.898   1.340   3.661  0.4905 -0.3125  1.2976
 4214TIP3    H212649   0.749   1.319   3.654  0.5641 -0.3438 -0.9626
 4215TIP3   OH212650   0.199   4.129   4.049  0.1377 -0.2867  0.3076
 4215TIP3    H112651   0.206   4.055   4.109 -0.0186  0.4955  1.3347
 4215TIP3    H212652   0.192   4.090   3.963  1.5180 -1.4320  0.6773
 4216TIP3   OH212653   5.039   5.312   3.354  0.0626  0.0414  0.4062
 4216TIP3    H112654   5.071   5.268   3.432 -1.1420 -1.1487  0.2732
 4216TIP3    H212655   4.987   5.246   3.309  1.0155  0.5736 -1.6076
 4217TIP3   OH212656   2.972   1.958   0.969 -0.2398  0.0544  0.3162
 4217TIP3    H112657   3.043   2.020   0.950 -1.1506  0.7443 -0.9480
 4217TIP3    H212658   3.018   1.878   0.996  0.9648  1.1815  1.8341
 4218TIP3   OH212659   0.983   1.521   1.283  0.0383 -0.7634 -0.1854
 4218TIP3    H112660   1.028   1.446   1.243  0.3126 -1.1657  0.8431
 4218TIP3    H212661   1.051   1.588   1.289 -0.0164 -0.6847 -0.4326
 4219TIP3   OH212662   1.657   2.011   4.419  0.1665  0.2909 -0.0731
 4219TIP3    H112663   1.701   2.071   4.358  0.0776 -1.1567 -1.6236
 4219TIP3    H212664   1.719   1.939   4.430 -1.4157 -1.4252 -1.7010
 4220TIP3   OH212665   4.765   4.860   3.091 -0.2757 -0.1639 -0.0894
 4220TIP3    H112666   4.689   4.913   3.068  1.5624  2.6276 -0.1618
 4220TIP3    H212667   4.742   4.819   3.174 -2.2096 -0.1704 -0.6010
 4221TIP3   OH212668   5.091   5.704   2.852 -0.1025 -0.7098  0.2740
 4221TIP3    H112669   5.124   5.788   2.820 -0.5136 -1.0520 -1.0760
 4221TIP3    H212670   5.169   5.659   2.885  0.2440 -0.1353  0.2583
 4222TIP3   OH212671   0.948   4.320   4.365 -0.5297  0.2405  0.6622
 4222TIP3    H112672   0.980   4.237   4.329  0.8301  0.0993  2.0944
 4222TIP3    H212673   1.026   4.374   4.376 -1.4290  1.8814 -0.5537
 4223TIP3   OH212674   0.051   4.120   1.345  0.2580  0.6385 -0.1666
 4223TIP3    H112675  -0.015   4.051   1.355  0.4000  0.5542  0.1892
 4223TIP3    H212676   0.006   4.188   1.294 -0.3760  0.9309  0.7645
 4224TIP3   OH212677   1.021   1.687   0.124 -0.1033  0.0733 -0.9101
 4224TIP3    H112678   0.973   1.696   0.206 -0.0219 -0.5097 -0.7898
 4224TIP3    H212679   1.026   1.592   0.110  1.5742  0.0891 -0.5911
 4225TIP3   OH212680   1.881   4.371   1.809 -0.0499 -0.2248 -0.0935
 4225TIP3    H112681   1.893   4.292   1.861 -0.1011  0.2140  0.5969
 4225TIP3    H212682   1.960   4.423   1.825 -0.4224  0.2682  0.1896
 4226TIP3   OH212683   5.977   4.412   5.034 -0.3449  0.5162 -0.2248
 4226TIP3    H112684   5.909   4.411   4.966 -1.7747  1.1496  1.1408
 4226TIP3    H212685   6.053   4.452   4.990 -1.4183  1.4850 -1.2989
 4227TIP3   OH212686   0.946   2.578   2.784  0.3390  0.8135  0.2054
 4227TIP3    H112687   1.033   2.538   2.776  0.2783  0.9330 -1.3246
 4227TIP3    H212688   0.961   2.671   2.767 -0.1421  0.7761 -0.4441
 4228TIP3   OH212689   5.554   4.886   2.580  0.2106  0.0255  0.1864
 4228TIP3    H112690   5.508   4.820   2.632  0.4365 -1.3560 -1.2667
 4228TIP3    H212691   5.609   4.835   2.520  1.0034  1.5651 -0.4557
 4229TIP3   OH212692   0.207   1.469   1.774  0.0382 -0.5134 -0.1395
 4229TIP3    H112693   0.144   1.539   1.795 -0.7166 -0.8760 -1.0921
 4229TIP3    H212694   0.277   1.479   1.838  0.2315  1.4933 -0.5955
 4230TIP3   OH212695   3.033   3.489   0.038 -0.2753 -0.5404 -0.6019
 4230TIP3    H112696   3.039   3.561   0.101 -1.7917  0.0175 -1.0626
 4230TIP3    H212697   3.025   3.532  -0.047  0.0446 -1.2811 -1.0218
 4231TIP3   OH212698   2.774   1.446   0.117  0.5916  0.3020 -0.1103
 4231TIP3    H112699   2.756   1.360   0.157  0.5339 -0.3978 -1.5913
 4231TIP3    H212700   2.701   1.501   0.147  0.7813 -0.0654  1.0926
 4232TIP3   OH212701   4.230   3.045   1.620 -0.6606 -0.0680  0.3062
 4232TIP3    H112702   4.274   3.024   1.537  0.0890 -0.9895  0.9212
 4232TIP3    H212703   4.165   3.112   1.596 -0.7083 -0.5767 -1.0839
 4233TIP3   OH212704   2.274   0.088   4.743  0.0565 -0.0715 -0.0089
 4233TIP3    H112705   2.246   0.124   4.659 -1.2072 -0.4084  0.2404
 4233TIP3    H212706   2.368   0.101   4.745 -0.0168  0.7552 -1.0873
 4234TIP3   OH212707   1.365   5.985   3.718 -0.8180 -0.4505  0.2278
 4234TIP3    H112708   1.283   6.020   3.683  0.7133  2.0867 -1.0740
 4234TIP3    H212709   1.397   5.925   3.650 -0.6358  0.1078 -0.1872
 4235TIP3   OH212710   5.966   5.595   3.104 -0.7053 -0.4780  0.2055
 4235TIP3    H112711   5.915   5.559   3.031 -1.3832  0.0718  0.4012
 4235TIP3    H212712   6.021   5.522   3.132  1.9014  0.1165 -2.8370
 4236TIP3   OH212713   6.050   4.404   1.599  0.1637  0.5688  0.2176
 4236TIP3    H112714   6.112   4.353   1.547 -1.2212 -3.3773  1.9752
 4236TIP3    H212715   5.985   4.435   1.536 -0.7724 -2.9650 -0.7935
 4237TIP3   OH212716   2.430   2.884   0.682 -0.8852  0.0680  0.5285
 4237TIP3    H112717   2.380   2.950   0.633  0.7194  1.6515  0.9308
 4237TIP3    H212718   2.465   2.825   0.615  1.5925  2.4074 -0.3978
 4238TIP3   OH212719   3.639   4.501   0.913 -0.2877 -0.3987  0.1452
 4238TIP3    H112720   3.652   4.432   0.849 -1.9038  0.5763 -1.3084
 4238TIP3    H212721   3.708   4.565   0.894 -0.3768 -0.4069 -0.2088
 4239TIP3   OH212722   1.860   4.314   4.700 -0.3593  0.1745 -0.2038
 4239TIP3    H112723   1.814   4.315   4.616 -0.0880 -0.0075 -0.3540
 4239TIP3    H212724   1.817   4.383   4.751 -0.8008  0.0046 -0.3431
 4240TIP3   OH212725   1.230   0.196   2.894 -0.1579 -0.5094  0.1460
 4240TIP3    H112726   1.215   0.207   2.800 -0.8097 -0.2686  0.2732
 4240TIP3    H212727   1.322   0.222   2.907 -0.5248  1.0949 -0.1763
 4241TIP3   OH212728   1.145   3.888   3.251 -0.2009  0.3756  0.3387
 4241TIP3    H112729   1.196   3.935   3.186 -0.3468  0.4111  0.2511
 4241TIP3    H212730   1.186   3.801   3.255 -0.2486  0.3433  0.1352
 4242TIP3   OH212731   4.076   1.565   2.506  0.1945  0.3341 -0.2070
 4242TIP3    H112732   4.105   1.634   2.566  0.6321  0.5381 -0.6381
 4242TIP3    H212733   4.119   1.486   2.538  1.0637  0.5872 -0.6923
 4243TIP3   OH212734   5.537   3.857   2.799  0.0702 -0.3938  0.8408
 4243TIP3    H112735   5.592   3.790   2.839  1.9866  1.3210  1.2649
 4243TIP3    H212736   5.484   3.809   2.735  2.1676 -2.1763  0.2967
 4244TIP3   OH212737   2.940   1.333   4.952  0.0814 -0.2159 -0.0062
 4244TIP3    H112738   2.882   1.290   4.889  0.9889 -2.1227  0.3750
 4244TIP3    H212739   2.914   1.297   5.037  0.7766  0.0764  0.3413
 4245TIP3   OH212740   3.334   1.376   4.278  0.7997  0.2371 -0.4134
 4245TIP3    H112741   3.364   1.459   4.314 -1.3067  0.6712  0.4431
 4245TIP3    H212742   3.323   1.319   4.354 -1.3131  0.3794 -0.5672
 4246TIP3   OH212743   1.023   5.609   4.021  0.1999 -0.2228  0.2814
 4246TIP3    H112744   1.064   5.676   3.967 -0.2616 -1.3299 -1.5093
 4246TIP3    H212745   1.091   5.583   4.083  0.2411  2.1772  1.3392
 4247TIP3   OH212746   1.784   4.690   4.093 -0.0678 -0.1244 -0.0364
 4247TIP3    H112747   1.836   4.610   4.095 -0.4439 -0.3951 -0.6323
 4247TIP3    H212748   1.701   4.664   4.053 -0.0609  0.6281 -0.5799
 4248TIP3   OH212749   1.048   1.066   1.423 -0.0403 -0.0598 -0.1094
 4248TIP3    H112750   0.964   1.026   1.446  0.2407 -2.0762 -2.1540
 4248TIP3    H212751   1.113   1.007   1.461  0.4236  0.1983 -0.4920
 4249TIP3   OH212752   5.237   0.986   0.922 -0.2324 -0.0815 -0.3035
 4249TIP3    H112753   5.287   1.066   0.932 -1.7150  0.7657  0.8808
 4249TIP3    H212754   5.287   0.933   0.861  2.0924  0.6726  0.8468
 4250TIP3   OH212755   0.749   4.639   2.829 -0.0906  0.8622 -0.0686
 4250TIP3    H112756   0.690   4.566   2.815  0.8121  0.2162 -0.6302
 4250TIP3    H212757   0.837   4.601   2.823  0.4039  2.0125 -0.5552
 4251TIP3   OH212758   0.800   2.324   2.289 -0.1831 -0.1016 -0.0412
 4251TIP3    H112759   0.837   2.236   2.283 -0.5891 -0.2765  0.0066
 4251TIP3    H212760   0.868   2.381   2.251  0.7200 -0.2456  1.2618
 4252TIP3   OH212761   3.288   3.710   0.406  0.3479  0.2948  0.1792
 4252TIP3    H112762   3.322   3.796   0.379  1.9152 -0.5652 -0.7831
 4252TIP3    H212763   3.352   3.679   0.470 -0.2064 -0.1518  0.5107
 4253TIP3   OH212764   1.212   5.332   3.045 -0.7827  0.0987 -0.3658
 4253TIP3    H112765   1.278   5.391   3.009  0.2715 -0.2157  0.9589
 4253TIP3    H212766   1.204   5.262   2.980  0.9815 -0.4008 -0.0942
 4254TIP3   OH212767   1.411   0.195   5.011  0.0144  0.2705 -0.3312
 4254TIP3    H112768   1.331   0.214   5.059  0.6409  1.0943  0.4289
 4254TIP3    H212769   1.481   0.212   5.074  0.7659 -2.3128 -0.3333
 4255TIP3   OH212770   2.567   2.398   1.151  0.3726 -0.3760  0.4727
 4255TIP3    H112771   2.605   2.473   1.197  1.4420 -0.8680  0.4091
 4255TIP3    H212772   2.481   2.386   1.193  0.5726  0.3175  1.1025
 4256TIP3   OH212773   0.890   5.588   1.989 -0.1528  0.2397  0.6290
 4256TIP3    H112774   0.861   5.563   1.902 -0.3716  0.6043  0.5966
 4256TIP3    H212775   0.822   5.648   2.021 -1.3360 -1.6670  1.9683
 4257TIP3   OH212776   4.234   0.020   2.190 -0.2810  0.1543 -0.1286
 4257TIP3    H112777   4.166   0.054   2.248 -0.5769  1.1705 -1.0474
 4257TIP3    H212778   4.219   0.065   2.107  0.8445 -0.4286 -0.6594
 4258TIP3   OH212779   2.505   3.496   3.166 -0.0366 -0.3323  0.6104
 4258TIP3    H112780   2.545   3.451   3.091 -0.7094 -1.0136  0.6522
 4258TIP3    H212781   2.579   3.530   3.215  0.4329 -0.2720 -0.1202
 4259TIP3   OH212782   0.092   3.339   1.490 -0.2258  0.1212  0.0380
 4259TIP3    H112783   0.024   3.281   1.455  1.5706 -1.6306 -0.7649
 4259TIP3    H212784   0.154   3.280   1.533  3.1398  0.9090 -3.1772
 4260TIP3   OH212785   6.317   3.156   3.431 -0.1151 -0.0918  0.1035
 4260TIP3    H112786   6.331   3.061   3.431 -1.5403 -0.3315  0.2569
 4260TIP3    H212787   6.285   3.175   3.519  0.3622  0.5701  0.1382
 4261TIP3   OH212788   0.051   3.606   4.629 -0.3364  0.0195  0.4230
 4261TIP3    H112789   0.054   3.518   4.665 -0.2206 -0.5846 -1.0120
 4261TIP3    H212790   0.142   3.637   4.636 -0.0536 -0.5686 -0.4476
 4262TIP3   OH212791   5.998   4.184   0.233 -0.0908  0.4251 -0.0954
 4262TIP3    H112792   6.015   4.248   0.302 -0.5085 -0.3445  0.7464
 4262TIP3    H212793   6.080   4.135   0.224 -0.6972 -1.0097  1.5366
 4263TIP3   OH212794   4.387   2.521   2.951  0.0508  0.4340 -0.0517
 4263TIP3    H112795   4.374   2.427   2.936 -0.2715  0.5313 -0.4081
 4263TIP3    H212796   4.299   2.556   2.965 -0.0538  0.9749 -1.7403
 4264TIP3   OH212797   4.278   3.951   1.713  0.3542  0.2704  0.3823
 4264TIP3    H112798   4.212   4.011   1.679  0.0541  0.3876  1.1311
 4264TIP3    H212799   4.271   3.960   1.808  0.4355 -0.8160  0.5024
 4265TIP3   OH212800   4.557   4.303   3.357 -0.3858  0.2595  0.3289
 4265TIP3    H112801   4.489   4.258   3.306  1.6680 -1.1012 -1.4415
 4265TIP3    H212802   4.621   4.234   3.376  0.1400  1.3029  2.6660
 4266TIP3   OH212803   1.691   5.723   3.686 -0.1247  0.0198 -0.0028
 4266TIP3    H112804   1.739   5.806   3.687  1.6161 -0.9083 -0.6351
 4266TIP3    H212805   1.639   5.724   3.765  1.5889  0.7872  1.1778
 4267TIP3   OH212806   5.067   4.498   3.928  0.1033  0.0817  0.1219
 4267TIP3    H112807   5.057   4.513   4.022  3.1933  0.5034  0.4713
 4267TIP3    H212808   5.001   4.554   3.888  0.1399  1.5542  1.9800
 4268TIP3   OH212809   5.332   4.131   2.082 -0.1382 -0.2328 -0.0289
 4268TIP3    H112810   5.371   4.187   2.149  0.6224  0.4068 -0.9567
 4268TIP3    H212811   5.255   4.179   2.053 -0.0394 -0.1314 -0.1292
 4269TIP3   OH212812   0.273   1.601   3.768 -0.0781 -0.3095  0.5835
 4269TIP3    H112813   0.301   1.651   3.844 -0.8497 -1.1664  1.4444
 4269TIP3    H212814   0.184   1.572   3.788 -0.2056 -0.7657 -0.5262
 4270TIP3   OH212815   2.039   3.887   1.496 -0.5222 -0.0114 -0.6014
 4270TIP3    H112816   1.957   3.937   1.505 -1.4201 -1.2197 -1.7413
 4270TIP3    H212817   2.077   3.887   1.584 -2.0787  0.0468  0.0961
 4271TIP3   OH212818  -0.007   2.192   4.414 -0.1229  0.1437 -0.2832
 4271TIP3    H112819   0.075   2.144   4.400  0.7932  1.4745  0.2517
 4271TIP3    H212820  -0.007   2.212   4.508 -2.0207 -1.4628  0.0983
 4272TIP3   OH212821   2.999   2.912   1.014 -0.0127  0.1285 -0.6028
 4272TIP3    H112822   3.058   2.945   0.946  0.0926  3.4705  0.9306
 4272TIP3    H212823   2.921   2.885   0.966  0.7940  0.5117 -2.2245
 4273TIP3   OH212824   3.207   0.316   4.504 -0.1375  0.1129 -0.3876
 4273TIP3    H112825   3.234   0.333   4.594  0.0786  0.1912 -0.4662
 4273TIP3    H212826   3.261   0.243   4.475  1.0549  1.2035 -1.0284
 4274TIP3   OH212827   1.721   4.940   3.561 -0.6914  0.0745  0.3569
 4274TIP3    H112828   1.662   4.869   3.537  0.1882 -0.2280 -0.9921
 4274TIP3    H212829   1.797   4.897   3.600  0.2849  0.1341 -1.3540
 4275TIP3   OH212830   3.670   0.850   3.380  0.2351  0.2352 -0.0614
 4275TIP3    H112831   3.706   0.808   3.459  0.3629 -0.8619 -0.6776
 4275TIP3    H212832   3.702   0.795   3.308 -0.3729  0.8800 -0.8345
 4276TIP3   OH212833   5.530   0.896   3.321  0.7929  0.0844  0.1845
 4276TIP3    H112834   5.544   0.985   3.289  0.4899 -0.1468 -0.6074
 4276TIP3    H212835   5.437   0.880   3.307  0.2975  0.5220  2.6260
 4277TIP3   OH212836   3.111   5.722   4.879 -0.0481 -0.2926 -0.0769
 4277TIP3    H112837   3.128   5.719   4.785  0.7015 -1.6094  0.0774
 4277TIP3    H212838   3.169   5.791   4.911 -1.7249  1.5456 -0.8134
 4278TIP3   OH212839   0.967   3.102   3.145 -0.1931  0.0023  0.4336
 4278TIP3    H112840   0.892   3.156   3.172  0.7282  0.8926  1.2859
 4278TIP3    H212841   0.956   3.092   3.050 -0.4229  1.6681  0.2478
 4279TIP3   OH212842   0.104   4.656   1.869  0.0413  0.2865 -0.5899
 4279TIP3    H112843   0.031   4.604   1.837 -0.4294  0.2578  0.5019
 4279TIP3    H212844   0.124   4.621   1.956 -0.4194  2.0137  0.2714
 4280TIP3   OH212845   1.647   0.453   4.584 -0.1702  0.2099 -0.2583
 4280TIP3    H112846   1.704   0.497   4.648 -0.3278  0.3323 -0.2011
 4280TIP3    H212847   1.603   0.384   4.635 -0.3992  0.3965 -0.2024
 4281TIP3   OH212848   2.105   4.027   2.677 -0.1397 -0.2213  0.2443
 4281TIP3    H112849   2.102   3.976   2.758 -2.5581 -0.4804  0.0643
 4281TIP3    H212850   2.154   4.106   2.700 -1.0752 -0.1281  2.0700
 4282TIP3   OH212851   4.064   4.996   2.754  0.8714  0.4992 -0.1367
 4282TIP3    H112852   4.125   4.923   2.761 -0.0558 -0.2186  0.7544
 4282TIP3    H212853   4.026   5.005   2.842 -0.3538  0.8783 -0.6764
 4283TIP3   OH212854   6.216   0.482   4.752  0.7025 -0.1946 -0.0217
 4283TIP3    H112855   6.235   0.488   4.845  1.2661  0.5043 -0.1699
 4283TIP3    H212856   6.185   0.570   4.728  2.9401  0.4300 -0.9722
 4284TIP3   OH212857   3.603   5.924   1.601  0.3608 -0.4563 -0.2298
 4284TIP3    H112858   3.676   5.963   1.649 -0.6172  1.6198 -0.3224
 4284TIP3    H212859   3.604   5.967   1.516 -1.5222  0.3854  0.1078
 4285TIP3   OH212860   0.527   3.994   1.980  0.4719  0.3721  0.3233
 4285TIP3    H112861   0.618   3.976   2.005  0.7798  1.3093 -0.1196
 4285TIP3    H212862   0.490   4.038   2.056  0.3761 -0.0015  0.5001
 4286TIP3   OH212863  -0.003   0.323   1.532 -0.2133 -0.1738 -0.0044
 4286TIP3    H112864  -0.026   0.414   1.515 -0.6478 -0.4056 -0.7217
 4286TIP3    H212865   0.033   0.323   1.620  3.0641  1.2895 -1.1703
 4287TIP3   OH212866   0.694   3.295   4.404 -0.2392 -0.0817 -0.1653
 4287TIP3    H112867   0.735   3.373   4.440  1.3201 -0.9208 -0.0297
 4287TIP3    H212868   0.633   3.328   4.338  0.9334  1.2204 -0.6507
 4288TIP3   OH212869   1.074   3.675   4.475 -0.2513  0.1599  0.4794
 4288TIP3    H112870   1.121   3.610   4.424 -1.3445  0.3201 -0.7890
 4288TIP3    H212871   1.142   3.727   4.517  0.6798 -0.1060 -0.6645
 4289TIP3   OH212872   2.695   5.790   1.787  0.0800  0.2514  0.7696
 4289TIP3    H112873   2.692   5.881   1.759 -2.4230 -0.5695 -2.1472
 4289TIP3    H212874   2.777   5.756   1.752 -0.5601  0.5881 -1.1260
 4290TIP3   OH212875   3.110   4.964   4.373 -0.5431 -0.4889 -0.2549
 4290TIP3    H112876   3.167   5.023   4.324  0.1598 -1.3595 -0.5056
 4290TIP3    H212877   3.106   4.884   4.319 -1.3983 -0.7134  0.1224
 4291TIP3   OH212878   2.931   0.696   3.688 -0.5776 -0.4085 -0.5478
 4291TIP3    H112879   2.949   0.726   3.599  0.5842 -0.2704 -0.2823
 4291TIP3    H212880   2.870   0.623   3.677  0.4085 -1.1114 -1.5364
 4292TIP3   OH212881   4.797   2.415   2.912 -0.2424  1.0682 -0.1871
 4292TIP3    H112882   4.760   2.347   2.855 -0.3285  0.8970  0.0731
 4292TIP3    H212883   4.740   2.491   2.900 -0.4908  0.9075 -0.0307
 4293TIP3   OH212884   5.401   4.489   2.920 -0.3977 -0.7166  0.6061
 4293TIP3    H112885   5.360   4.408   2.890 -1.0079  0.1250 -0.9644
 4293TIP3    H212886   5.430   4.470   3.009 -1.0991 -2.4441  0.5030
 4294TIP3   OH212887   1.492   2.828   3.873  0.1461  0.9062 -0.1723
 4294TIP3    H112888   1.443   2.812   3.793 -2.4032  1.9861  1.0452
 4294TIP3    H212889   1.558   2.894   3.849  1.5860 -1.0857 -2.0111
 4295TIP3   OH212890   0.859   2.986   3.466 -0.1613 -0.0234  0.1074
 4295TIP3    H112891   0.921   3.053   3.496  0.1234 -1.1387  2.1701
 4295TIP3    H212892   0.914   2.921   3.421 -0.1389  0.0596  0.0146
 4296TIP3   OH212893   1.565   4.723   3.493 -0.5645 -0.5209 -0.1366
 4296TIP3    H112894   1.640   4.670   3.465 -0.4449 -0.4200 -0.0082
 4296TIP3    H212895   1.503   4.659   3.527  0.0995 -0.4906  1.2100
 4297TIP3   OH212896   3.439   0.523   4.592  0.1709 -0.2329  0.3753
 4297TIP3    H112897   3.433   0.587   4.663  3.9808  1.0800 -0.2400
 4297TIP3    H212898   3.391   0.563   4.520  2.1261  1.8706  0.1314
 4298TIP3   OH212899   1.557   5.078   3.728  0.4073  0.3613  0.5549
 4298TIP3    H112900   1.617   5.051   3.659  0.7600  2.3084  0.0432
 4298TIP3    H212901   1.476   5.030   3.710  0.7426  0.2683 -0.7546
 4299TIP3   OH212902   1.656   4.820   3.821 -0.0533 -0.2226 -0.0082
 4299TIP3    H112903   1.618   4.905   3.803 -1.9244 -0.4130  2.4586
 4299TIP3    H212904   1.749   4.838   3.838 -0.3933  1.3210  0.3832
 4300TIP3   OH212905   4.360   5.716   2.492 -0.4388 -0.5792 -0.5242
 4300TIP3    H112906   4.435   5.755   2.448 -1.0421 -0.8120 -1.7872
 4300TIP3    H212907   4.304   5.790   2.516  0.3370 -0.3701  0.7676
 4301TIP3   OH212908   5.495   5.523   4.649 -0.2737  0.0990  0.5858
 4301TIP3    H112909   5.536   5.521   4.735  0.7099  1.7423  0.2004
 4301TIP3    H212910   5.434   5.597   4.654  1.4912  1.7301 -0.8130
 4302TIP3   OH212911   5.077   2.399   3.567  0.2489 -0.1944  0.3375
 4302TIP3    H112912   5.137   2.448   3.512 -1.1892 -0.5782 -1.6769
 4302TIP3    H212913   5.035   2.336   3.508 -1.8082 -0.2347  1.7214
 4303TIP3   OH212914   2.027   3.876   0.687 -0.3055 -0.4965  0.0507
 4303TIP3    H112915   2.075   3.958   0.700 -0.0577 -0.5883 -0.2836
 4303TIP3    H212916   1.959   3.897   0.623  0.0264 -0.6534 -0.3595
 4304TIP3   OH212917   3.814   5.922   0.530  0.4969 -0.0069 -0.0191
 4304TIP3    H112918   3.905   5.923   0.501  0.2099 -1.1903 -1.0081
 4304TIP3    H212919   3.783   5.834   0.511 -0.4668 -0.0603  1.5936
 4305TIP3   OH212920   0.876   0.100   0.931  0.1287 -0.3436 -0.2334
 4305TIP3    H112921   0.926   0.053   0.864  1.1462 -0.7586  0.7860
 4305TIP3    H212922   0.903   0.060   1.014 -1.0320  0.2252  0.4455
 4306TIP3   OH212923   4.782   4.772   0.275  0.0832  0.0047 -0.0941
 4306TIP3    H112924   4.787   4.831   0.200 -0.6460 -0.6437 -0.6614
 4306TIP3    H212925   4.713   4.810   0.330 -0.1708 -0.1522 -0.3056
 4307TIP3   OH212926   2.582   1.589   1.717  0.5147  0.2228 -0.1993
 4307TIP3    H112927   2.519   1.656   1.689  1.7575  1.4401 -0.2017
 4307TIP3    H212928   2.573   1.587   1.812 -1.7685 -1.9534 -0.3570
 4308TIP3   OH212929   4.205   5.955   2.038  0.2425  0.5350 -0.7916
 4308TIP3    H112930   4.110   5.964   2.027  0.4572  2.5111 -1.2488
 4308TIP3    H212931   4.226   6.009   2.114  1.2491  1.6842 -1.8588
 4309TIP3   OH212932   5.367   2.744   2.667  0.0252  0.4992 -0.4781
 4309TIP3    H112933   5.296   2.681   2.655 -0.9593  1.4539  0.1172
 4309TIP3    H212934   5.437   2.694   2.710 -0.9439 -0.0450  0.4974
 4310TIP3   OH212935   1.370   5.117   1.892  0.0259  0.3586  0.0951
 4310TIP3    H112936   1.366   5.040   1.835 -0.3607  1.9107 -2.1127
 4310TIP3    H212937   1.429   5.177   1.847 -1.8950  2.4815  0.2127
 4311TIP3   OH212938   5.540   3.958   0.213 -0.1699  0.6688 -0.6320
 4311TIP3    H112939   5.484   3.993   0.143 -1.9123  0.9543  0.8403
 4311TIP3    H212940   5.629   3.976   0.183 -0.7571 -0.4895 -3.4354
 4312TIP3   OH212941   1.972   1.995   0.749  0.6429  0.3464  0.2801
 4312TIP3    H112942   1.932   2.052   0.815 -0.8381  0.1668 -0.4248
 4312TIP3    H212943   1.902   1.978   0.686  2.1834  1.0922 -1.7559
 4313TIP3   OH212944   3.772   2.482   4.051 -1.0434  0.2880 -0.3128
 4313TIP3    H112945   3.854   2.436   4.036 -2.0052 -1.0213 -1.9782
 4313TIP3    H212946   3.742   2.507   3.963 -1.3351  2.8030  0.4237
 4314TIP3   OH212947   3.159   0.582   1.500 -0.2626 -0.4189 -0.2484
 4314TIP3    H112948   3.160   0.494   1.539 -0.8921 -0.9993 -1.4843
 4314TIP3    H212949   3.095   0.577   1.430 -0.1547  0.9849 -0.4821
 4315TIP3   OH212950   4.314   2.548   4.651 -0.1173  0.5913  0.7838
 4315TIP3    H112951   4.354   2.483   4.710 -0.0343  0.2641  0.3686
 4315TIP3    H212952   4.351   2.528   4.565 -1.5988 -0.1076  0.2680
 4316TIP3   OH212953   0.418   5.145   3.439 -0.4763  0.5718  0.2035
 4316TIP3    H112954   0.473   5.179   3.509 -0.1802 -2.8483  1.8424
 4316TIP3    H212955   0.330   5.140   3.476 -0.4264 -0.7572  0.1968
 4317TIP3   OH212956   5.642   5.051   4.619  0.3598 -0.2317  0.5729
 4317TIP3    H112957   5.647   4.984   4.550 -1.7875 -1.0774  1.1475
 4317TIP3    H212958   5.564   5.101   4.597  0.0942 -0.0110  1.9632
 4318TIP3   OH212959   6.329   1.391   4.719 -0.1013 -0.1851  0.3325
 4318TIP3    H112960   6.374   1.423   4.641  2.3366  0.3398  1.8529
 4318TIP3    H212961   6.252   1.447   4.726  0.5797  0.9359 -0.7140
 4319TIP3   OH212962   3.461   4.413   1.743  0.2037  0.9303  0.2054
 4319TIP3    H112963   3.415   4.358   1.679 -1.2648  3.9897 -1.5755
 4319TIP3    H212964   3.522   4.465   1.691  1.4871  1.1320  1.8114
 4320TIP3   OH212965   4.155   4.858   3.273  0.3000 -0.4875 -0.2356
 4320TIP3    H112966   4.133   4.887   3.362  2.3546 -2.4710  1.0304
 4320TIP3    H212967   4.109   4.775   3.262  1.4895 -1.1731 -0.2545
 4321TIP3   OH212968   3.286   3.430   0.197  0.5602 -0.4156 -0.1402
 4321TIP3    H112969   3.197   3.430   0.233  0.2002  1.0601 -0.9505
 4321TIP3    H212970   3.325   3.349   0.230 -0.8091 -0.6930  0.9002
 4322TIP3   OH212971   0.106   2.642   5.087  0.6158 -0.1625 -0.1321
 4322TIP3    H112972   0.013   2.649   5.063  0.8360  2.7181 -0.5547
 4322TIP3    H212973   0.114   2.694   5.167  2.0100  0.3941 -0.6062
 4323TIP3   OH212974   2.452   3.846   0.772  0.2546 -0.0777  0.8780
 4323TIP3    H112975   2.415   3.757   0.770 -0.6131  0.2181  2.4436
 4323TIP3    H212976   2.546   3.833   0.767  0.0832 -0.9453 -1.3464
 4324TIP3   OH212977   5.018   0.353   0.044  0.2611  0.0548 -0.3959
 4324TIP3    H112978   4.969   0.361   0.126  2.8094 -1.7681  1.4447
 4324TIP3    H212979   5.077   0.428   0.044  0.2878  0.0343 -0.5603
 4325TIP3   OH212980   6.329   5.832   1.579  0.0302 -0.3971  0.4343
 4325TIP3    H112981   6.377   5.914   1.566  0.1019 -0.7808 -2.2658
 4325TIP3    H212982   6.351   5.806   1.669  2.6584  0.8552  0.2724
 4326TIP3   OH212983   0.464   5.768   1.957  0.3389 -0.2761 -0.3846
 4326TIP3    H112984   0.423   5.744   1.874 -0.1715 -1.3192  0.1479
 4326TIP3    H212985   0.505   5.852   1.940  1.0151 -0.8858 -1.9585
 4327TIP3   OH212986   3.792   1.014   0.681  0.4290  0.2257 -0.7679
 4327TIP3    H112987   3.796   1.096   0.632 -0.7412 -0.2086 -1.6316
 4327TIP3    H212988   3.763   0.949   0.617  1.2153 -0.8579 -0.0707
 4328TIP3   OH212989   6.227   1.718   2.992  0.0066 -0.7300 -0.0593
 4328TIP3    H112990   6.204   1.631   2.961 -2.7648  0.0660 -0.5254
 4328TIP3    H212991   6.299   1.746   2.935  1.2823 -2.8562  0.4339
 4329TIP3   OH212992   2.795   4.887   1.841 -0.0165 -0.0295  0.7307
 4329TIP3    H112993   2.707   4.850   1.835 -0.7694  1.7369  0.4045
 4329TIP3    H212994   2.843   4.845   1.769 -0.9486 -0.1231  0.1447
 4330TIP3   OH212995   1.113   4.870   1.622  0.1769  0.7987 -0.2427
 4330TIP3    H112996   1.019   4.855   1.618  0.6292 -3.0216  0.0199
 4330TIP3    H212997   1.147   4.831   1.541  1.6237  1.4081  0.0346
 4331TIP3   OH212998   6.108   2.123   0.630 -0.4377  0.7208  0.1497
 4331TIP3    H112999   6.027   2.089   0.590  0.4023  2.3263 -3.3035
 4331TIP3    H213000   6.172   2.052   0.617 -0.4423  0.8182 -0.4523
 4332TIP3   OH213001   4.290   5.687   1.952 -0.2709 -0.2832  0.2597
 4332TIP3    H113002   4.353   5.675   2.023 -0.8895 -0.0524  0.8554
 4332TIP3    H213003   4.264   5.779   1.959  1.2986  0.3905 -1.6526
 4333TIP3   OH213004   0.498   5.238   0.514 -0.1800  0.4180 -0.1729
 4333TIP3    H113005   0.459   5.178   0.450 -1.6061  2.2338 -1.1180
 4333TIP3    H213006   0.516   5.184   0.591 -4.0821 -0.7394  0.1361
 4334TIP3   OH213007   2.190   2.876   1.965 -0.5916  0.1084  0.1647
 4334TIP3    H113008   2.131   2.949   1.949 -0.4754  0.3995  1.0179
 4334TIP3    H213009   2.143   2.821   2.028 -1.0894 -1.0584 -1.1769
 4335TIP3   OH213010   4.866   1.882   0.240  0.1045  0.1061  0.4664
 4335TIP3    H113011   4.890   1.916   0.154 -0.3851  0.4423  0.4586
 4335TIP3    H213012   4.846   1.790   0.224  1.8227 -0.3192  0.5573
 4336TIP3   OH213013   5.316   1.362   1.923  0.0819 -0.5412 -0.1534
 4336TIP3    H113014   5.338   1.423   1.853 -1.4736  0.2715  0.0239
 4336TIP3    H213015   5.314   1.276   1.881  0.0314 -0.1721 -0.9119
 4337TIP3   OH213016   5.220   2.500   4.727 -0.6378 -0.2238  0.0830
 4337TIP3    H113017   5.134   2.539   4.745 -0.2262  0.9602 -0.4330
 4337TIP3    H213018   5.221   2.486   4.633  0.4908  1.7124 -0.2431
 4338TIP3   OH213019   2.576   0.632   3.296 -0.1007 -0.2082  0.3809
 4338TIP3    H113020   2.538   0.559   3.344 -0.1445 -0.7977 -0.5363
 4338TIP3    H213021   2.671   0.621   3.308 -0.1350  0.1742  1.0786
 4339TIP3   OH213022   0.721   4.190   4.475 -0.6502  0.3580 -0.1946
 4339TIP3    H113023   0.796   4.224   4.427 -1.0182  1.4269 -0.0566
 4339TIP3    H213024   0.758   4.133   4.542  0.0478  0.9006 -0.1108
 4340TIP3   OH213025   0.652   0.865   0.612 -0.1215 -0.4124  0.1328
 4340TIP3    H113026   0.568   0.844   0.571 -0.1466  0.5491 -0.3243
 4340TIP3    H213027   0.634   0.937   0.671  0.1634 -0.9799  0.9307
 4341TIP3   OH213028   0.511   5.967   2.509 -0.1810  0.0665  0.1468
 4341TIP3    H113029   0.492   6.026   2.583  1.9540  0.8788  0.1084
 4341TIP3    H213030   0.606   5.970   2.500 -0.0476 -2.9597 -0.2715
 4342TIP3   OH213031   5.148   0.703   1.365  0.0052 -0.5057 -0.5502
 4342TIP3    H113032   5.173   0.722   1.274  0.1223  0.0255 -0.4129
 4342TIP3    H213033   5.142   0.790   1.406 -0.6807 -0.7065 -0.2192
 4343TIP3   OH213034   2.258   2.648   3.485  0.8301  0.5057  0.6974
 4343TIP3    H113035   2.335   2.598   3.457 -0.1558 -0.8421  0.2903
 4343TIP3    H213036   2.282   2.681   3.572  2.0349  0.4878  0.3833
 4344TIP3   OH213037   5.417   2.584   1.315  0.2201  0.2666 -0.3215
 4344TIP3    H113038   5.428   2.489   1.317  1.3019  0.3734 -0.8782
 4344TIP3    H213039   5.357   2.602   1.388 -1.1311 -0.9722 -1.0880
 4345TIP3   OH213040   1.706   2.451   1.942  0.1498 -0.1813  0.1966
 4345TIP3    H113041   1.620   2.491   1.953  0.0060 -0.5321  0.3557
 4345TIP3    H213042   1.695   2.361   1.973  0.3277 -0.5133 -0.6868
 4346TIP3   OH213043   1.529   0.569   1.523 -0.7096  0.1867 -0.4649
 4346TIP3    H113044   1.441   0.565   1.484  0.0774 -1.6459 -2.1740
 4346TIP3    H213045   1.587   0.592   1.450  0.6821 -2.4108 -0.2977
 4347TIP3   OH213046   0.982   2.140   2.050  0.0570  0.3954 -0.0731
 4347TIP3    H113047   0.903   2.100   2.014  0.5428  0.7620 -1.6289
 4347TIP3    H213048   0.977   2.232   2.023 -0.4086  1.1542  2.3444
 4348TIP3   OH213049   2.901   0.825   0.442  0.3171 -0.0289  0.0771
 4348TIP3    H113050   2.964   0.782   0.383  1.7362 -1.5841  2.5497
 4348TIP3    H213051   2.954   0.889   0.490 -0.3705 -0.1001  0.9514
 4349TIP3   OH213052   4.221   0.099   4.850  0.1895  0.1558  0.0784
 4349TIP3    H113053   4.247   0.011   4.878 -1.7947 -0.8422 -0.9787
 4349TIP3    H213054   4.250   0.105   4.759 -1.1633 -0.1220 -0.4022
 4350TIP3   OH213055   5.666   3.117   0.361  0.3249 -0.2831  0.1982
 4350TIP3    H113056   5.634   3.048   0.302 -1.5529  1.5967 -1.1253
 4350TIP3    H213057   5.705   3.182   0.303 -0.1305  0.8816  1.1441
 4351TIP3   OH213058   3.196   4.842   4.609 -0.3299 -0.2784 -0.0322
 4351TIP3    H113059   3.190   4.856   4.514  1.1746  0.4017 -0.0545
 4351TIP3    H213060   3.286   4.865   4.631 -1.2592  1.8604  1.9345
 4352TIP3   OH213061   0.893   3.104   1.985  0.0864  0.6311  0.3872
 4352TIP3    H113062   0.904   3.174   2.049  1.9527 -0.7157  1.6629
 4352TIP3    H213063   0.847   3.035   2.032 -0.6927  0.5398 -0.4855
 4353TIP3   OH213064   4.845   4.875   4.770 -0.0994  0.3986  0.5705
 4353TIP3    H113065   4.755   4.902   4.754  0.1298  0.3702 -0.8773
 4353TIP3    H213066   4.866   4.817   4.698  1.1420  0.5394  0.7931
 4354TIP3   OH213067   1.684   4.735   1.552  0.3849 -0.2524  0.5501
 4354TIP3    H113068   1.762   4.686   1.526  0.5729  0.3400 -0.0335
 4354TIP3    H213069   1.680   4.726   1.647  1.5433  0.2540  0.6590
 4355TIP3   OH213070   4.040   3.801   4.678 -0.1272 -0.0915  0.2863
 4355TIP3    H113071   3.989   3.720   4.675  0.7792 -0.7124  1.1452
 4355TIP3    H213072   3.975   3.869   4.695 -0.9502 -0.5788 -0.7518
 4356TIP3   OH213073   6.176   2.998   3.822 -0.1724 -0.3664 -0.5900
 4356TIP3    H113074   6.093   2.968   3.860 -0.0543  0.2481  0.1958
 4356TIP3    H213075   6.197   3.077   3.872  1.2717 -0.9404 -0.2439
 4357TIP3   OH213076   1.726   4.222   0.685  0.4385  0.2298  0.0230
 4357TIP3    H113077   1.756   4.131   0.683  0.5057  0.2589 -0.2977
 4357TIP3    H213078   1.706   4.239   0.777  0.2515 -0.1680  0.0573
 4358TIP3   OH213079   1.312   0.689   2.481  0.0372  0.6344 -0.2768
 4358TIP3    H113080   1.268   0.709   2.399 -0.3639 -0.0925 -0.2426
 4358TIP3    H213081   1.405   0.698   2.461 -0.0890  2.8659 -0.1790
 4359TIP3   OH213082   4.730   0.762   3.574 -0.3820 -0.0410  0.0507
 4359TIP3    H113083   4.687   0.816   3.640 -1.4094 -0.4033 -0.2901
 4359TIP3    H213084   4.691   0.675   3.586 -0.3299 -0.1910 -0.7935
 4360TIP3   OH213085   3.016   1.235   4.451 -0.1189  0.1955  0.2910
 4360TIP3    H113086   2.981   1.304   4.396  0.2570 -0.4059 -0.7275
 4360TIP3    H213087   3.108   1.227   4.425  0.0003 -0.2674  0.8293
 4361TIP3   OH213088   3.680   4.319   2.876 -0.2034 -0.3139 -0.3107
 4361TIP3    H113089   3.764   4.273   2.868 -0.8245 -1.7248  0.7284
 4361TIP3    H213090   3.638   4.278   2.952 -2.3396 -0.5268 -1.5176
 4362TIP3   OH213091   0.785   0.085   4.511  0.2958 -0.0840  0.3183
 4362TIP3    H113092   0.880   0.096   4.517  0.1969  0.3555  1.1903
 4362TIP3    H213093   0.749   0.167   4.544 -0.3987 -0.9700  1.8622
 4363TIP3   OH213094   5.766   0.453   0.700  0.0499 -0.1353 -0.3180
 4363TIP3    H113095   5.790   0.366   0.732  0.4071  0.5142  1.2623
 4363TIP3    H213096   5.693   0.437   0.640  3.2410 -2.0742 -4.2054
 4364TIP3   OH213097   6.250   4.035   0.206  0.2095 -0.7829  0.6782
 4364TIP3    H113098   6.261   3.942   0.225  2.2961 -0.3852  1.6434
 4364TIP3    H213099   6.339   4.070   0.199 -0.5085  1.0094 -0.4631
 4365TIP3   OH213100   5.176   4.412   2.565 -0.1946  0.4048 -0.0231
 4365TIP3    H113101   5.115   4.340   2.579 -1.7659  1.8885  1.2634
 4365TIP3    H213102   5.198   4.443   2.653  0.6831  1.2814 -0.5308
 4366TIP3   OH213103   0.193   1.106   0.879 -0.1802 -0.7280  0.1361
 4366TIP3    H113104   0.233   1.026   0.846 -0.2229 -0.5752 -0.2939
 4366TIP3    H213105   0.192   1.095   0.974  0.9733 -0.6919  0.1669
 4367TIP3   OH213106   4.866   4.284   4.221  0.1001 -0.2726  0.4368
 4367TIP3    H113107   4.930   4.349   4.250 -0.8312  0.6283  0.5060
 4367TIP3    H213108   4.795   4.289   4.285  0.0046 -1.3634  0.4424
 4368TIP3   OH213109   5.643   2.322   4.138 -0.2192  0.1684 -0.1816
 4368TIP3    H113110   5.599   2.346   4.056 -0.1266 -0.0929 -0.3080
 4368TIP3    H213111   5.610   2.235   4.158 -0.4702  0.3548  0.2197
 4369TIP3   OH213112   5.930   4.124   5.067 -0.1579  0.4210 -0.4174
 4369TIP3    H113113   6.021   4.097   5.081 -0.5931 -1.1738 -0.4459
 4369TIP3    H213114   5.934   4.219   5.059  1.6029  0.3185 -1.1960
 4370TIP3   OH213115   3.386   5.790   0.320 -0.1738  0.1706 -0.0219
 4370TIP3    H113116   3.302   5.750   0.298  0.4746 -1.3427  0.1719
 4370TIP3    H213117   3.377   5.881   0.292 -1.7248 -0.0702 -0.3856
 4371TIP3   OH213118   0.395   3.105   0.417 -0.2817 -0.3879  0.3790
 4371TIP3    H113119   0.393   3.010   0.404 -2.0311 -0.4496  0.8214
 4371TIP3    H213120   0.302   3.131   0.419  0.1236  1.1445  1.5164
 4372TIP3   OH213121   3.770   5.090   2.078 -0.2829  0.0195 -0.3130
 4372TIP3    H113122   3.782   5.109   1.985  0.7780  0.3171 -0.1303
 4372TIP3    H213123   3.677   5.069   2.086 -0.7350  1.4908 -1.1834
 4373TIP3   OH213124   1.692   0.801   2.932  0.4024  0.1477 -0.2008
 4373TIP3    H113125   1.781   0.832   2.952  0.1277  0.1182  1.2348
 4373TIP3    H213126   1.675   0.831   2.843  0.9932  2.2087  0.3195
 4374TIP3   OH213127   3.944   3.679   5.211 -0.1133 -0.3794  0.0268
 4374TIP3    H113128   3.976   3.668   5.122 -1.4798  0.6164 -0.6193
 4374TIP3    H213129   3.848   3.677   5.203 -0.2657 -0.1326  1.4453
 4375TIP3   OH213130   5.150   2.231   0.883 -0.0833  0.6418 -0.1218
 4375TIP3    H113131   5.140   2.327   0.880 -0.9428  0.5976  0.6994
 4375TIP3    H213132   5.232   2.217   0.929 -0.7462  0.9905  1.2085
 4376TIP3   OH213133   5.864   0.374   4.231 -0.1669 -0.1861 -0.8688
 4376TIP3    H113134   5.949   0.366   4.187 -0.3063  0.5688 -1.2997
 4376TIP3    H213135   5.850   0.469   4.238 -0.5132 -0.3005  0.1038
 4377TIP3   OH213136   2.615   2.749   2.850  0.2080 -0.0329 -0.3248
 4377TIP3    H113137   2.588   2.716   2.936  0.5765 -0.1190 -0.2414
 4377TIP3    H213138   2.593   2.678   2.790  1.8976 -0.8767 -0.0205
 4378TIP3   OH213139   0.134   4.279   0.107  0.0195  0.3651 -0.3706
 4378TIP3    H113140   0.118   4.232   0.025  0.7114  0.0493 -0.3326
 4378TIP3    H213141   0.227   4.299   0.105  0.0523  0.3132  0.3655
 4379TIP3   OH213142   1.252   3.888   4.368  0.4247  0.3992  0.8262
 4379TIP3    H113143   1.340   3.851   4.374  0.1751 -0.4746 -0.5109
 4379TIP3    H213144   1.247   3.924   4.280 -0.1397  1.6235  1.3216
 4380TIP3   OH213145   0.744   1.256   4.245 -0.6975  0.2175  0.1801
 4380TIP3    H113146   0.654   1.277   4.219 -0.5731 -1.4974 -1.8742
 4380TIP3    H213147   0.773   1.191   4.181  1.6326 -0.1171  1.4775
 4381TIP3   OH213148   0.957   4.011   0.306 -0.7213 -0.0790 -0.0498
 4381TIP3    H113149   0.953   4.107   0.310 -1.6291 -0.1421  1.2158
 4381TIP3    H213150   0.980   3.992   0.215 -0.3373  1.3426 -0.2788
 4382TIP3   OH213151   0.992   5.911   3.171 -0.3814 -0.1030  0.0813
 4382TIP3    H113152   0.968   5.894   3.262 -0.2462  0.1871  0.1724
 4382TIP3    H213153   0.970   6.003   3.157 -2.7042 -0.7398 -0.9219
 4383TIP3   OH213154   5.379   3.204   0.377 -0.0651 -0.2279  0.0474
 4383TIP3    H113155   5.474   3.206   0.364  0.1340  0.3093  1.3624
 4383TIP3    H213156   5.368   3.175   0.468 -1.2062 -1.3079 -0.4159
 4384TIP3   OH213157   1.250   3.276   1.839 -0.8351 -0.0533 -0.0924
 4384TIP3    H113158   1.297   3.196   1.864 -0.1177  0.5492  0.5703
 4384TIP3    H213159   1.254   3.278   1.744  0.3541 -0.1175 -0.0629
 4385TIP3   OH213160   4.696   4.166   3.981 -0.0398 -1.1987 -0.3682
 4385TIP3    H113161   4.671   4.104   3.912 -0.4144 -1.2110 -0.2242
 4385TIP3    H213162   4.791   4.172   3.975  0.1659 -2.8764  0.5239
 4386TIP3   OH213163   1.212   0.773   0.549 -0.2556 -0.1021 -0.0730
 4386TIP3    H113164   1.225   0.799   0.458 -0.5344 -0.9593 -0.3609
 4386TIP3    H213165   1.296   0.737   0.576  0.0648  0.8495  0.2610
 4387TIP3   OH213166   3.567   5.664   1.505  0.3550  0.7798 -0.2511
 4387TIP3    H113167   3.618   5.742   1.529  2.9979 -0.5888 -1.0169
 4387TIP3    H213168   3.520   5.641   1.584 -0.4543  3.0813  0.0239
 4388TIP3   OH213169   0.726   3.061   1.364  0.5699  0.1449 -0.1934
 4388TIP3    H113170   0.777   3.104   1.432 -0.9677 -0.8458  1.6963
 4388TIP3    H213171   0.757   2.971   1.364  0.3515  0.0673 -0.5833
 4389TIP3   OH213172   2.731   4.278   0.995 -0.4002  0.3954 -0.3895
 4389TIP3    H113173   2.799   4.334   0.960 -0.4406  0.9219  0.3467
 4389TIP3    H213174   2.682   4.248   0.918  0.6561 -0.0043 -0.9274
 4390TIP3   OH213175   4.500   4.672   3.559 -0.0247 -0.6938  1.1709
 4390TIP3    H113176   4.559   4.600   3.534  1.4376  1.6482 -3.0468
 4390TIP3    H213177   4.412   4.637   3.544  0.6441 -1.6668 -0.8596
 4391TIP3   OH213178   1.743   1.142   0.692 -0.4736  0.9808  0.6682
 4391TIP3    H113179   1.756   1.231   0.661 -0.2483  0.5981 -0.3716
 4391TIP3    H213180   1.811   1.091   0.648  0.5145  0.5653  2.5531
 4392TIP3   OH213181   5.306   4.191   2.452 -0.0573 -0.5300  0.1849
 4392TIP3    H113182   5.383   4.211   2.398 -1.8326 -0.1790 -2.4114
 4392TIP3    H213183   5.280   4.275   2.489 -0.5704 -0.1715 -0.9441
 4393TIP3   OH213184   2.468   0.449   2.792 -0.4179  0.0532  0.0830
 4393TIP3    H113185   2.417   0.453   2.872  0.1302  0.2896  0.4269
 4393TIP3    H213186   2.410   0.482   2.724 -2.0953 -3.1701 -0.2720
 4394TIP3   OH213187   3.227   3.287   2.826  0.1018 -0.0609 -0.2558
 4394TIP3    H113188   3.154   3.346   2.805  0.4686  0.4481 -0.1363
 4394TIP3    H213189   3.193   3.200   2.809 -1.7444 -0.1809  3.0267
 4395TIP3   OH213190   3.732   4.413   1.167 -0.2560  0.4993  0.4124
 4395TIP3    H113191   3.724   4.317   1.170 -1.8551  0.5938  0.1004
 4395TIP3    H213192   3.703   4.437   1.079 -0.2849  1.3109  0.6350
 4396TIP3   OH213193   0.849   3.618   2.422 -0.1863  0.4190 -0.1951
 4396TIP3    H113194   0.923   3.584   2.372 -0.9935 -1.3779 -0.2575
 4396TIP3    H213195   0.889   3.672   2.490  1.1890 -0.5471 -0.1959
 4397TIP3   OH213196   1.169   5.606   1.407 -0.0619 -0.4347 -0.1499
 4397TIP3    H113197   1.142   5.520   1.437 -0.3478 -0.3037 -0.0268
 4397TIP3    H213198   1.162   5.601   1.311 -3.0326  0.3651 -0.0901
 4398TIP3   OH213199   3.218   2.952   2.378  0.6234 -0.4350 -0.2651
 4398TIP3    H113200   3.260   2.900   2.309 -0.1614  1.5768 -2.4381
 4398TIP3    H213201   3.233   3.043   2.350  0.3624  0.4818  2.3433
 4399TIP3   OH213202   3.843   2.347   4.841  0.0841  0.0181  0.0231
 4399TIP3    H113203   3.928   2.360   4.800 -1.1563  2.0300 -2.2274
 4399TIP3    H213204   3.804   2.435   4.843 -1.8534 -0.7923  1.1687
 4400TIP3   OH213205   0.060   1.872   4.606  0.2048  0.5673 -0.4530
 4400TIP3    H113206   0.123   1.942   4.589  0.7380  0.0819 -0.5175
 4400TIP3    H213207  -0.015   1.916   4.644  0.9934  1.0351  0.6077
 4401TIP3   OH213208   1.880   4.735   3.631  0.3930 -0.3555 -0.0879
 4401TIP3    H113209   1.942   4.765   3.698  0.5942 -0.5287 -0.1951
 4401TIP3    H213210   1.926   4.749   3.549 -0.5223  1.5220 -0.3350
 4402TIP3   OH213211   3.619   1.723   0.050  0.4312 -0.2711  0.2735
 4402TIP3    H113212   3.708   1.732   0.016  1.1177 -1.3401  1.6839
 4402TIP3    H213213   3.572   1.800   0.015  2.2271  1.0065  0.5336
 4403TIP3   OH213214   2.543   1.823   1.208 -0.1862 -0.0673  0.2441
 4403TIP3    H113215   2.553   1.778   1.124 -0.5269  0.3501 -0.0215
 4403TIP3    H213216   2.450   1.813   1.230  0.1342 -1.2551  1.1870
 4404TIP3   OH213217   2.893   3.902   1.517  0.3570  0.1847 -0.0830
 4404TIP3    H113218   2.862   3.839   1.451 -1.4867  0.0346  0.8706
 4404TIP3    H213219   2.869   3.988   1.480 -0.7127  0.0991  0.3653
 4405TIP3   OH213220   6.327   4.678   3.146  0.2191 -0.2276  0.2350
 4405TIP3    H113221   6.413   4.654   3.181 -0.1299  0.1317  1.4025
 4405TIP3    H213222   6.279   4.711   3.223 -0.9912 -0.5220 -0.3767
 4406TIP3   OH213223   5.551   4.840   4.997  0.1023  0.0140 -1.1611
 4406TIP3    H113224   5.464   4.806   5.018  0.1514  0.3330 -0.4163
 4406TIP3    H213225   5.597   4.767   4.957 -0.0655 -0.5636 -0.3251
 4407TIP3   OH213226   3.913   4.889   1.120  0.2204 -0.1641  0.1624
 4407TIP3    H113227   4.007   4.908   1.130  0.3219 -0.3016 -0.4488
 4407TIP3    H213228   3.911   4.799   1.087 -0.0480  0.3414 -1.2912
 4408TIP3   OH213229   5.453   5.401   0.126 -0.2259  0.7976 -0.2397
 4408TIP3    H113230   5.415   5.470   0.179 -1.9422 -1.2851  1.4248
 4408TIP3    H213231   5.411   5.410   0.040 -1.4275  1.0192  0.3550
 4409TIP3   OH213232   1.526   2.998   0.114 -0.1997  0.1684 -0.6312
 4409TIP3    H113233   1.491   3.029   0.198  0.5515  0.3359 -0.3701
 4409TIP3    H213234   1.589   3.065   0.089 -0.8088  0.3889 -1.6090
 4410TIP3   OH213235   2.803   5.194   3.776  0.5438  0.2915 -0.2845
 4410TIP3    H113236   2.781   5.112   3.733 -1.4791 -0.2377  1.5676
 4410TIP3    H213237   2.725   5.216   3.828  1.5595  2.6308  0.4224
 4411TIP3   OH213238   3.579   3.800   4.257 -0.4892 -0.2748 -0.0008
 4411TIP3    H113239   3.587   3.888   4.220 -1.7357 -0.4494 -0.7146
 4411TIP3    H213240   3.585   3.741   4.182  2.6665 -1.0016  0.6608
 4412TIP3   OH213241   4.001   2.772   2.740 -0.0547 -0.2266  0.0166
 4412TIP3    H113242   3.913   2.738   2.725  0.1236 -0.0683 -1.5782
 4412TIP3    H213243   4.024   2.816   2.658  0.9183  1.0639  0.9341
 4413TIP3   OH213244   5.316   3.358   4.846 -0.0172  0.4385 -0.2620
 4413TIP3    H113245   5.375   3.304   4.794  0.6201  1.5843 -0.7756
 4413TIP3    H213246   5.370   3.432   4.875 -0.6745  0.4275  1.0374
 4414TIP3   OH213247   4.368   4.737   1.868  0.4020  0.2377 -0.3403
 4414TIP3    H113248   4.276   4.742   1.894  0.8180  0.7943  1.0804
 4414TIP3    H213249   4.368   4.759   1.775 -0.6891  2.2063  0.0766
 4415TIP3   OH213250   1.124   4.675   5.129 -0.7644 -0.0890 -0.3884
 4415TIP3    H113251   1.059   4.727   5.177  0.1201 -0.6026  1.4571
 4415TIP3    H213252   1.122   4.590   5.172  0.8242 -0.2467 -0.5925
 4416TIP3   OH213253   0.455   5.021   1.927  0.0073  0.4780  0.0181
 4416TIP3    H113254   0.472   4.927   1.915  0.2532  0.5387 -0.1291
 4416TIP3    H213255   0.422   5.028   2.016 -1.1523  0.0990 -0.3585
 4417TIP3   OH213256   3.175   0.710   4.564 -0.4122  0.3101 -0.2752
 4417TIP3    H113257   3.143   0.798   4.547 -0.3172  0.1797 -1.1693
 4417TIP3    H213258   3.235   0.720   4.638  0.9006  1.2860 -1.4190
 4418TIP3   OH213259   2.030   3.534   4.616  0.0437  0.0202  0.3939
 4418TIP3    H113260   2.027   3.518   4.711 -0.2749 -0.1053  0.3640
 4418TIP3    H213261   1.943   3.509   4.585  0.9511 -2.4923 -0.3583
 4419TIP3   OH213262   3.442   4.338   0.586 -0.5159 -0.3533  0.1874
 4419TIP3    H113263   3.413   4.377   0.669  1.4298  0.8763  0.3484
 4419TIP3    H213264   3.499   4.404   0.547  0.8021 -2.0145 -0.8180
 4420TIP3   OH213265   4.162   3.648   3.543 -0.2632  0.2176  0.1218
 4420TIP3    H113266   4.131   3.599   3.467 -0.6984 -0.5338  0.7698
 4420TIP3    H213267   4.251   3.617   3.557  0.5862  1.8619 -1.3110
 4421TIP3   OH213268   5.457   5.752   5.083 -0.1128  0.1655 -0.2654
 4421TIP3    H113269   5.414   5.836   5.096  0.8394  0.4428  1.2758
 4421TIP3    H213270   5.400   5.689   5.127  1.3854  0.6486  2.5690
 4422TIP3   OH213271   4.872   4.212   0.471  0.2830 -0.3141 -0.3082
 4422TIP3    H113272   4.931   4.157   0.419 -0.4421 -0.4711 -0.9758
 4422TIP3    H213273   4.917   4.297   0.476  0.2807 -0.2336 -1.3567
 4423TIP3   OH213274   2.509   5.490   4.610  0.0627  0.3593 -0.4130
 4423TIP3    H113275   2.555   5.523   4.687  2.1743  0.3123 -1.5758
 4423TIP3    H213276   2.468   5.567   4.571  0.5602  0.7191 -0.2395
 4424TIP3   OH213277   1.161   3.188   2.827 -0.4769  0.5094  0.5376
 4424TIP3    H113278   1.080   3.144   2.854 -0.4215 -1.3333 -1.8982
 4424TIP3    H213279   1.135   3.247   2.757  0.0973  1.0775  0.7884
 4425TIP3   OH213280   6.228   0.194   1.187  0.2475  0.3272  0.4673
 4425TIP3    H113281   6.273   0.278   1.192  1.5849 -0.3755  0.7257
 4425TIP3    H213282   6.277   0.144   1.121  0.1394 -0.6272  1.0905
 4426TIP3   OH213283   1.409   4.505   3.299 -0.3460 -0.2640  0.0927
 4426TIP3    H113284   1.429   4.412   3.298 -0.3300 -0.2666  0.4607
 4426TIP3    H213285   1.414   4.530   3.391  1.8048  0.5727 -0.1918
 4427TIP3   OH213286   2.300   1.876   0.289  0.6975  0.1192 -0.6710
 4427TIP3    H113287   2.260   1.935   0.353  1.6484 -0.7590  0.7910
 4427TIP3    H213288   2.393   1.899   0.289  0.7760 -0.1757 -1.4150
 4428TIP3   OH213289   2.992   3.856   0.712  0.1349 -0.1576  0.3008
 4428TIP3    H113290   2.997   3.823   0.623 -0.2702  0.8569 -0.1127
 4428TIP3    H213291   3.082   3.884   0.733 -0.1941  1.7612 -0.6652
 4429TIP3   OH213292   5.194   3.520   0.133 -0.5246 -0.6469  0.4112
 4429TIP3    H113293   5.189   3.565   0.217 -2.2573 -1.6371  0.9028
 4429TIP3    H213294   5.167   3.430   0.153 -0.3468 -1.0605 -1.0896
 4430TIP3   OH213295   2.718   1.186   3.872 -0.1370  0.5096  0.0827
 4430TIP3    H113296   2.648   1.160   3.812  0.6737 -1.3936 -0.1288
 4430TIP3    H213297   2.778   1.111   3.872  1.0863  1.4328  1.4761
 4431TIP3   OH213298   1.107   4.463   0.515  0.1851 -0.0891 -0.3191
 4431TIP3    H113299   1.150   4.517   0.583 -0.6445 -0.1526  0.2707
 4431TIP3    H213300   1.134   4.373   0.536 -0.1804 -0.1234  0.0170
 4432TIP3   OH213301   4.817   1.467   3.905  0.4118 -0.1729 -0.2988
 4432TIP3    H113302   4.870   1.399   3.863  0.3419 -0.5562  0.2287
 4432TIP3    H213303   4.881   1.534   3.931  0.3892  0.3958 -1.5929
 4433TIP3   OH213304   4.111   1.839   4.753 -0.5155 -0.0338 -0.5356
 4433TIP3    H113305   4.143   1.907   4.694  1.5875 -0.3312  0.1844
 4433TIP3    H213306   4.044   1.882   4.806 -1.2741  0.6648 -1.9894
 4434TIP3   OH213307   6.081   5.165   0.228  0.2318 -0.2011 -0.0049
 4434TIP3    H113308   6.108   5.093   0.170  0.0198  1.0851 -1.8020
 4434TIP3    H213309   5.986   5.171   0.215  0.0904 -0.2711  0.9589
 4435TIP3   OH213310   1.074   2.598   0.194  0.3513 -0.0815 -0.2675
 4435TIP3    H113311   1.055   2.654   0.269 -1.5360 -1.6437  0.4836
 4435TIP3    H213312   0.997   2.606   0.137  0.4208 -1.2527 -0.5486
 4436TIP3   OH213313  -0.015   1.441   3.651  0.3477 -0.5448 -0.3355
 4436TIP3    H113314  -0.054   1.520   3.689 -0.3223 -1.3594  0.7775
 4436TIP3    H213315   0.076   1.463   3.636  0.4008  0.1466  0.8782
 4437TIP3   OH213316   3.297   2.335   0.182  0.2785 -0.5155 -0.4438
 4437TIP3    H113317   3.391   2.319   0.187  0.4684  0.5810 -0.4557
 4437TIP3    H213318   3.259   2.264   0.234  0.9722 -2.1194 -2.0042
 4438TIP3   OH213319   1.877   2.801   1.594  0.5693 -0.3908  0.1971
 4438TIP3    H113320   1.810   2.818   1.528  0.4907 -1.4007  0.0031
 4438TIP3    H213321   1.880   2.882   1.645 -0.6593 -0.2525  0.0935
 4439TIP3   OH213322   4.165   2.359   0.080  0.0393 -0.2339  0.2692
 4439TIP3    H113323   4.077   2.352   0.116  0.6355  1.9152  2.3635
 4439TIP3    H213324   4.223   2.335   0.152  1.2739 -3.1344 -1.4920
 4440TIP3   OH213325   5.876   0.676   2.942 -0.0037  0.4458  0.0900
 4440TIP3    H113326   5.859   0.582   2.938  1.0817  0.1735  1.2897
 4440TIP3    H213327   5.866   0.698   3.034  1.7487  1.0837  0.1654
 4441TIP3   OH213328   2.485   0.169   5.088  0.4583  0.2849  0.1790
 4441TIP3    H113329   2.515   0.144   5.176  0.7953 -0.6213 -0.1843
 4441TIP3    H213330   2.563   0.160   5.033  0.0528  0.0419 -0.3612
 4442TIP3   OH213331   5.924   3.107   3.034  0.6256  0.1558 -0.4492
 4442TIP3    H113332   5.848   3.103   2.976  0.5310  0.3273 -0.3410
 4442TIP3    H213333   5.989   3.156   2.984  0.6568  0.0278 -0.5337
 4443TIP3   OH213334   4.049   3.175   2.668  0.2721 -0.0042 -0.1427
 4443TIP3    H113335   4.057   3.141   2.757 -0.3309  1.2022  0.3913
 4443TIP3    H213336   4.041   3.097   2.613  1.9556 -0.8154  0.6942
 4444TIP3   OH213337   2.035   3.137   1.932 -0.2708  0.4875 -0.1581
 4444TIP3    H113338   2.020   3.196   2.006  0.1612 -0.0535  0.3740
 4444TIP3    H213339   1.948   3.123   1.895 -0.8957 -1.2002  1.7902
 4445TIP3   OH213340   4.202   3.421   3.799 -0.2656  0.0612 -0.6813
 4445TIP3    H113341   4.272   3.475   3.761  0.6107 -1.0502 -0.6822
 4445TIP3    H213342   4.148   3.397   3.724 -0.1832  0.2483 -0.8028
 4446TIP3   OH213343   5.145   4.673   4.795 -0.3360  0.5150 -0.2440
 4446TIP3    H113344   5.118   4.605   4.733  1.2221  0.9557 -1.4892
 4446TIP3    H213345   5.085   4.745   4.779 -2.3330 -0.6677  1.4425
 4447TIP3   OH213346   4.334   5.002   5.054 -0.0886 -0.3619 -0.4728
 4447TIP3    H113347   4.404   5.044   5.103  0.0823 -0.4893 -0.6088
 4447TIP3    H213348   4.375   4.928   5.011 -0.5723 -1.2090  0.4783
 4448TIP3   OH213349   4.363   5.100   1.028 -0.1301 -0.2600  0.2800
 4448TIP3    H113350   4.405   5.029   1.076 -1.1062 -0.0276  1.5338
 4448TIP3    H213351   4.301   5.056   0.969 -0.0075 -0.4870  0.3213
 4449TIP3   OH213352   2.687   1.304   2.705  0.2335  0.7171 -0.7794
 4449TIP3    H113353   2.690   1.212   2.679  0.0821  0.6773 -0.6596
 4449TIP3    H213354   2.603   1.313   2.752 -0.4782  1.2723 -2.1160
 4450TIP3   OH213355   4.687   4.096   0.684 -0.5021  0.2060  0.6096
 4450TIP3    H113356   4.740   4.165   0.645  1.5276 -1.5999 -0.0482
 4450TIP3    H213357   4.730   4.078   0.768 -1.1186 -0.1281  0.8616
 4451TIP3   OH213358   5.291   2.703   5.079  0.1012  0.6139 -0.2867
 4451TIP3    H113359   5.210   2.722   5.031 -0.7947  0.9083  1.2629
 4451TIP3    H213360   5.263   2.642   5.148  1.3155  0.2910 -0.0668
 4452TIP3   OH213361   3.905   4.499   2.430 -0.0976 -0.3945 -0.0417
 4452TIP3    H113362   3.930   4.407   2.431  0.9072 -0.2015 -1.8983
 4452TIP3    H213363   3.810   4.498   2.438 -0.0877 -1.5869  0.0859
 4453TIP3   OH213364   0.569   5.149   1.409  0.3152 -0.0175 -0.5085
 4453TIP3    H113365   0.609   5.214   1.466  0.4943 -0.2723 -0.3401
 4453TIP3    H213366   0.572   5.188   1.322 -1.8059  1.2619 -0.0906
 4454TIP3   OH213367   1.340   1.936   1.842 -0.3708 -0.4317 -0.2154
 4454TIP3    H113368   1.310   1.897   1.924 -0.1338 -0.8983 -0.3517
 4454TIP3    H213369   1.262   1.981   1.808 -0.9008 -1.5113 -0.4913
 4455TIP3   OH213370   5.099   2.802   3.431 -0.2159 -0.3812  0.7136
 4455TIP3    H113371   5.173   2.742   3.423 -0.9431 -1.2907  0.5650
 4455TIP3    H213372   5.029   2.759   3.382 -1.3006 -0.2923  2.1224
 4456TIP3   OH213373   0.362   0.954   0.311 -0.0228 -0.0250  0.1869
 4456TIP3    H113374   0.416   1.030   0.286  1.8637 -0.7679  1.7116
 4456TIP3    H213375   0.351   0.905   0.229  2.4489 -0.2930 -0.0833
 4457TIP3   OH213376   3.636   3.091   2.230  0.1991 -0.2799 -0.1303
 4457TIP3    H113377   3.583   3.062   2.304  0.1203  0.8553  0.2766
 4457TIP3    H213378   3.642   3.014   2.173  2.4262 -2.0656  2.2225
 4458TIP3   OH213379   2.466   1.079   1.386  0.0761  0.2611  0.1150
 4458TIP3    H113380   2.492   0.988   1.374  1.6224  0.4983  1.2819
 4458TIP3    H213381   2.462   1.114   1.297  0.2862 -0.7415 -0.3055
 4459TIP3   OH213382   1.887   5.508   2.709  0.5994  0.2431 -0.7494
 4459TIP3    H113383   1.819   5.452   2.746  0.7292  0.6207  0.0974
 4459TIP3    H213384   1.969   5.471   2.741  0.6813  0.9495 -0.1080
 4460TIP3   OH213385   3.764   0.457   0.726 -0.0922 -0.5573 -0.6849
 4460TIP3    H113386   3.806   0.422   0.804 -0.8364 -0.3115 -0.1582
 4460TIP3    H213387   3.691   0.509   0.760 -0.1992 -0.1431 -1.5308
 4461TIP3   OH213388   5.791   5.291   4.668  0.0108 -0.2624  0.0073
 4461TIP3    H113389   5.827   5.296   4.756  0.9046 -1.5856 -0.2633
 4461TIP3    H213390   5.740   5.210   4.667 -1.0291  0.3800 -0.3313
 4462TIP3   OH213391   0.548   0.098   0.205  0.3312  0.0496  0.6423
 4462TIP3    H113392   0.560   0.189   0.179 -1.7680  0.4904  1.0434
 4462TIP3    H213393   0.455   0.080   0.189  0.3862 -1.5902  1.8476
 4463TIP3   OH213394   5.311   4.886   3.626  0.2291  0.2798 -0.4176
 4463TIP3    H113395   5.344   4.890   3.715  1.7279 -2.5096 -0.7315
 4463TIP3    H213396   5.227   4.840   3.633  0.5025 -0.2316 -0.4591
 4464TIP3   OH213397   4.284   2.483   1.284 -0.2988 -0.3365  0.3212
 4464TIP3    H113398   4.273   2.576   1.306 -0.8630 -0.0179 -1.2046
 4464TIP3    H213399   4.368   2.458   1.324 -0.2197  0.7719  0.8797
 4465TIP3   OH213400   0.314   3.356   3.359 -0.1141 -0.3459 -0.1219
 4465TIP3    H113401   0.349   3.277   3.401 -1.4999 -0.9547 -0.0606
 4465TIP3    H213402   0.353   3.356   3.271 -0.4867 -1.3878 -0.3009
 4466TIP3   OH213403   3.748   3.547   2.805 -0.5015 -0.0048 -0.7340
 4466TIP3    H113404   3.653   3.546   2.791 -0.5390  2.0300 -0.8898
 4466TIP3    H213405   3.780   3.468   2.760 -2.1711 -1.0701 -0.1236
 4467TIP3   OH213406   3.949   3.449   3.102 -0.3231 -0.1093 -0.0203
 4467TIP3    H113407   3.885   3.451   3.031  0.6976 -0.9677 -1.0043
 4467TIP3    H213408   4.021   3.504   3.071  0.9587 -1.9786 -0.5251
 4468TIP3   OH213409   4.666   5.482   0.875  0.3269 -0.0349 -0.3584
 4468TIP3    H113410   4.703   5.438   0.799 -1.8249 -0.0529 -1.4617
 4468TIP3    H213411   4.636   5.567   0.842 -1.5659 -0.4431  0.1626
 4469TIP3   OH213412   2.622   0.555   1.067  0.5149 -0.2519  0.2152
 4469TIP3    H113413   2.687   0.625   1.061  0.8250 -0.5617 -0.0345
 4469TIP3    H213414   2.665   0.486   1.117 -0.1828  0.1755  1.4685
 4470TIP3   OH213415   5.615   0.841   0.039  0.2471 -0.5139  0.2928
 4470TIP3    H113416   5.582   0.770  -0.015 -0.1266  0.7885 -1.2767
 4470TIP3    H213417   5.549   0.853   0.107 -0.5873 -0.5008 -0.5024
 4471TIP3   OH213418   4.450   1.201   1.677  0.2075  0.1492  0.4431
 4471TIP3    H113419   4.476   1.255   1.752  0.9370 -1.5616  1.4807
 4471TIP3    H213420   4.366   1.162   1.703 -0.2631  0.6624 -0.2551
 4472TIP3   OH213421   5.843   0.386   2.966 -0.5268 -0.5479 -0.5412
 4472TIP3    H113422   5.838   0.357   3.057 -1.0090  0.6932 -0.1431
 4472TIP3    H213423   5.915   0.335   2.928 -1.8165 -2.8093 -0.1425
 4473TIP3   OH213424   3.490   5.649   1.254 -0.1322 -0.0578  0.3449
 4473TIP3    H113425   3.523   5.736   1.232 -0.0553 -0.0088  0.6559
 4473TIP3    H213426   3.501   5.642   1.349 -0.4736 -0.2662  0.3702
 4474TIP3   OH213427   4.077   4.129   1.236  0.0187  0.2644 -0.1947
 4474TIP3    H113428   4.009   4.195   1.250  1.1285  1.2760  0.6334
 4474TIP3    H213429   4.149   4.177   1.195  1.1339 -0.2334  1.0973
 4475TIP3   OH213430   0.696   3.598   1.009 -0.1380 -0.2083  0.4149
 4475TIP3    H113431   0.734   3.611   0.922  0.2769 -0.8633  0.4902
 4475TIP3    H213432   0.638   3.522   0.998 -0.4307 -0.0086  0.6017
 4476TIP3   OH213433   3.698   1.624   3.579 -0.1196  0.6938  0.7700
 4476TIP3    H113434   3.722   1.623   3.486  0.5023  1.0128  0.9253
 4476TIP3    H213435   3.743   1.549   3.616 -1.6737 -0.4105  0.5048
 4477TIP3   OH213436   6.137   5.023   3.862 -0.0240 -0.6156 -0.4754
 4477TIP3    H113437   6.149   4.982   3.948  0.3835 -2.3171 -1.3000
 4477TIP3    H213438   6.226   5.047   3.834 -0.3625  2.5602  0.7138
 4478TIP3   OH213439   2.757   0.326   1.900  0.1063 -0.3310 -0.2372
 4478TIP3    H113440   2.787   0.416   1.916  0.3914 -0.3449 -0.6837
 4478TIP3    H213441   2.830   0.284   1.855  0.2914 -1.0202  0.6664
 4479TIP3   OH213442   3.672   4.575   0.220 -0.7968 -0.1086  0.7567
 4479TIP3    H113443   3.614   4.500   0.205 -1.4892  0.6796 -0.6955
 4479TIP3    H213444   3.758   4.545   0.192 -1.0421 -0.4081  0.3053
 4480TIP3   OH213445   4.877   3.564   3.615  0.1163  0.2984  0.0947
 4480TIP3    H113446   4.938   3.542   3.685 -0.6984  1.5662  1.2470
 4480TIP3    H213447   4.895   3.656   3.596 -3.3665  1.7181  2.6207
 4481TIP3   OH213448   1.031   5.981   3.835  0.1620 -0.4498 -0.5714
 4481TIP3    H113449   1.108   5.928   3.856  1.1528  0.9277 -0.5669
 4481TIP3    H213450   1.064   6.049   3.776 -0.9232  0.5255 -0.0984
 4482TIP3   OH213451   1.913   1.534   2.054  0.3305 -0.0095 -0.6807
 4482TIP3    H113452   1.965   1.612   2.033  0.9653  0.8509  3.2638
 4482TIP3    H213453   1.977   1.471   2.088 -0.6866 -0.3812  0.6490
 4483TIP3   OH213454   1.962   0.292   1.921  0.3043 -0.1758 -0.5315
 4483TIP3    H113455   1.967   0.376   1.876  1.9060 -0.7916 -1.6113
 4483TIP3    H213456   2.016   0.303   2.000  0.5683 -0.1939 -0.7067
 4484TIP3   OH213457   0.345   5.948   4.082 -0.3860 -0.0088 -0.1029
 4484TIP3    H113458   0.425   6.000   4.075 -0.3745  0.0004  0.0940
 4484TIP3    H213459   0.328   5.943   4.176  0.0576 -1.0297 -0.0643
 4485TIP3   OH213460   2.862   2.052   4.091  0.8968  0.5252  0.0337
 4485TIP3    H113461   2.892   1.982   4.149  1.1656  1.2646  0.8066
 4485TIP3    H213462   2.876   2.133   4.141  0.4061  1.1206 -0.7614
 4486TIP3   OH213463   5.272   2.080   2.508  0.1103 -0.4376 -0.0963
 4486TIP3    H113464   5.325   2.003   2.489  2.8703  1.4498 -0.7050
 4486TIP3    H213465   5.268   2.128   2.425  0.1745  1.0381  0.7150
 4487TIP3   OH213466   2.850   1.438   4.302 -0.0726  0.1435 -0.3850
 4487TIP3    H113467   2.928   1.452   4.248  0.9989 -1.1707  0.7569
 4487TIP3    H213468   2.793   1.385   4.247 -0.0621  0.8885 -1.1342
 4488TIP3   OH213469   4.711   5.523   4.620 -0.4321 -0.2645  0.2117
 4488TIP3    H113470   4.687   5.432   4.637 -0.2530 -0.5929 -1.1244
 4488TIP3    H213471   4.800   5.517   4.586 -0.0319  0.5238  1.1008
 4489TIP3   OH213472   3.131   2.211   1.607 -0.0934  0.2950  0.3138
 4489TIP3    H113473   3.119   2.264   1.687 -0.9611 -0.1137  0.4719
 4489TIP3    H213474   3.121   2.274   1.535 -1.7444  0.2857  0.4827
 4490TIP3   OH213475   2.713   5.093   2.558 -0.1108 -1.0517 -0.4512
 4490TIP3    H113476   2.787   5.033   2.557 -0.1233 -1.0695 -1.3521
 4490TIP3    H213477   2.638   5.039   2.583  0.2028 -0.9919  0.6610
 4491TIP3   OH213478   4.221   4.217   4.389  0.1189  0.1545 -0.0253
 4491TIP3    H113479   4.164   4.182   4.458  1.2141 -0.1514  0.7538
 4491TIP3    H213480   4.181   4.301   4.366  0.9299  1.4299  2.6669
 4492TIP3   OH213481   5.399   3.257   3.468  0.1227 -0.0115  0.0103
 4492TIP3    H113482   5.487   3.224   3.485 -0.4158 -1.0313  0.8988
 4492TIP3    H213483   5.363   3.198   3.402 -0.1135  0.0567  0.0770
 4493TIP3   OH213484   3.274   4.633   1.845  0.0114  0.0737  0.8350
 4493TIP3    H113485   3.259   4.669   1.757 -0.1560 -0.9441  0.4383
 4493TIP3    H213486   3.356   4.585   1.837 -1.1360 -1.9803  0.5775
 4494TIP3   OH213487   2.016   3.999   2.411 -0.0506  0.3621 -0.2546
 4494TIP3    H113488   2.038   3.910   2.383 -1.1928  0.2016 -0.6744
 4494TIP3    H213489   2.061   4.009   2.495  1.1587 -0.1294 -0.8270
 4495TIP3   OH213490   0.288   3.035   0.764  0.8908  0.0617 -0.0079
 4495TIP3    H113491   0.357   2.971   0.744  1.1304  0.6847 -1.3049
 4495TIP3    H213492   0.243   3.048   0.681 -1.2501 -0.7932  0.9394
 4496TIP3   OH213493   0.547   3.627   1.645  0.3494 -0.0635  0.4291
 4496TIP3    H113494   0.585   3.648   1.730 -0.5023  0.9790  0.5738
 4496TIP3    H213495   0.621   3.624   1.585  0.9577 -0.7849  1.1917
 4497TIP3   OH213496   5.539   2.896   4.892  0.0431  0.2834 -0.0424
 4497TIP3    H113497   5.603   2.863   4.955  1.4615  0.8881 -1.0872
 4497TIP3    H213498   5.577   2.875   4.807 -2.7461 -2.3276 -0.8099
 4498TIP3   OH213499   3.710   4.699   3.236  0.1663 -0.0733  0.2363
 4498TIP3    H113500   3.658   4.636   3.287  0.2820 -0.1185  0.2978
 4498TIP3    H213501   3.785   4.649   3.204  0.8577  0.3028  1.2241
 4499TIP3   OH213502   1.844   1.940   4.676 -0.7445 -0.3583  0.0118
 4499TIP3    H113503   1.861   1.912   4.586 -1.7947  2.5811 -1.2194
 4499TIP3    H213504   1.779   1.878   4.708 -2.2913 -0.0046 -2.2142
 4500TIP3   OH213505   2.445   1.653   5.024  0.1349 -0.6117 -0.1640
 4500TIP3    H113506   2.397   1.725   4.982  0.4922  0.2113  0.8006
 4500TIP3    H213507   2.395   1.634   5.103  0.0976 -1.3761 -0.3640
 4501TIP3   OH213508   0.656   4.671   3.139 -0.0145 -0.7848 -0.3707
 4501TIP3    H113509   0.682   4.763   3.149 -0.6950 -0.6796  0.6400
 4501TIP3    H213510   0.610   4.668   3.055  0.0721 -0.2207 -0.4429
 4502TIP3   OH213511   3.402   4.606   4.565  0.4479  0.1904  0.0911
 4502TIP3    H113512   3.321   4.613   4.514  0.8220 -0.3750 -0.5844
 4502TIP3    H213513   3.471   4.630   4.504  0.9017 -0.5014  0.3255
 4503TIP3   OH213514   4.610   1.954   0.347 -0.3974 -0.0601  0.3753
 4503TIP3    H113515   4.684   1.928   0.292 -0.1125  1.0527  0.2114
 4503TIP3    H213516   4.539   1.897   0.319  0.3416 -1.0197  0.4084
 4504TIP3   OH213517   4.875   2.793   0.434 -0.5087  0.1079 -0.1782
 4504TIP3    H113518   4.806   2.750   0.484 -0.1029 -0.1993  0.1146
 4504TIP3    H213519   4.879   2.744   0.352  1.7959 -2.2060  1.1775
 4505TIP3   OH213520   0.873   5.624   4.887  0.3585 -0.0881 -0.3453
 4505TIP3    H113521   0.842   5.555   4.828  0.2137 -0.0323 -0.3340
 4505TIP3    H213522   0.819   5.616   4.965 -1.8142  2.0032 -1.5198
 4506TIP3   OH213523   5.062   2.535   4.171  0.0613  0.4277 -0.4341
 4506TIP3    H113524   5.145   2.578   4.187  1.2965 -1.3931 -1.4960
 4506TIP3    H213525   4.996   2.598   4.198  1.7549  2.3690 -0.6003
 4507TIP3   OH213526   3.229   2.955   3.196  0.6238  0.0652 -0.0307
 4507TIP3    H113527   3.302   2.899   3.171 -0.5652 -0.3695 -2.9752
 4507TIP3    H213528   3.179   2.903   3.259  2.5938  0.2615  1.8092
 4508TIP3   OH213529   0.002   2.418   4.958  0.1684  0.2307  0.1938
 4508TIP3    H113530   0.064   2.490   4.945  0.3621  0.0106 -0.0892
 4508TIP3    H213531  -0.055   2.422   4.881  0.8115 -0.5580 -0.3415
 4509TIP3   OH213532   2.870   2.857   0.163  0.0141  0.7084  0.0724
 4509TIP3    H113533   2.789   2.811   0.187  0.6495 -0.3487  0.2465
 4509TIP3    H213534   2.842   2.922   0.098 -1.0167  0.5669  0.3478
 4510TIP3   OH213535   2.367   1.741   2.134 -0.2410 -0.4676  0.3067
 4510TIP3    H113536   2.376   1.667   2.195  2.4598  0.8820  1.7298
 4510TIP3    H213537   2.357   1.700   2.048  1.5525 -2.5402  0.9955
 4511TIP3   OH213538   1.685   2.526   2.582 -0.3193  0.5893 -0.1648
 4511TIP3    H113539   1.717   2.460   2.521 -0.4216  0.7458 -0.3917
 4511TIP3    H213540   1.738   2.604   2.563 -0.6012  0.7477 -0.3089
 4512TIP3   OH213541   3.291   2.698   1.239  0.3989 -0.7855  0.0193
 4512TIP3    H113542   3.242   2.779   1.253  1.8588 -0.1969  2.1468
 4512TIP3    H213543   3.232   2.644   1.186 -1.8506  0.5090  1.0535
 4513TIP3   OH213544   4.472   0.052   4.037 -0.4337 -0.3289  0.2276
 4513TIP3    H113545   4.498   0.118   4.102  1.2902 -0.9729  0.2550
 4513TIP3    H213546   4.503   0.088   3.953  0.4682 -1.0467  0.2382
 4514TIP3   OH213547   5.764   3.110   3.343 -0.3650  0.0778  0.0713
 4514TIP3    H113548   5.856   3.084   3.339  0.2359  2.1610 -0.8932
 4514TIP3    H213549   5.754   3.154   3.427  0.1531  1.8768 -0.7625
 4515TIP3   OH213550   4.839   0.155   3.183 -0.0429 -0.3568  0.2336
 4515TIP3    H113551   4.930   0.185   3.194 -0.1803 -0.8094  3.9827
 4515TIP3    H213552   4.791   0.233   3.154  1.2926  0.2025 -0.5876
 4516TIP3   OH213553   5.497   2.080   4.162 -0.2207  0.3216  0.3583
 4516TIP3    H113554   5.505   1.985   4.169  0.6116  0.2763 -0.9253
 4516TIP3    H213555   5.405   2.098   4.180 -0.9508 -0.9754 -1.7991
 4517TIP3   OH213556   0.423   5.313   1.159 -0.2196  0.5080 -0.0073
 4517TIP3    H113557   0.512   5.303   1.125  0.0116  0.8600  0.4881
 4517TIP3    H213558   0.375   5.353   1.086  0.6051  2.5457  0.5047
 4518TIP3   OH213559   0.670   2.397   3.244 -0.1988 -0.4964  0.1393
 4518TIP3    H113560   0.746   2.374   3.191 -0.3805 -0.0327 -0.3259
 4518TIP3    H213561   0.596   2.356   3.199 -0.5893  1.2993 -0.9438
 4519TIP3   OH213562   3.385   5.287   1.210 -0.0741  0.0043  0.0048
 4519TIP3    H113563   3.364   5.305   1.302  0.0957 -0.4399  0.1322
 4519TIP3    H213564   3.328   5.345   1.161  0.5271  0.9551  0.4100
 4520TIP3   OH213565   1.157   4.193   0.545 -0.1704 -0.3428 -0.5029
 4520TIP3    H113566   1.131   4.102   0.556  0.9212 -0.4731  1.4910
 4520TIP3    H213567   1.246   4.190   0.510  0.9287 -0.1821  2.0613
 4521TIP3   OH213568   0.818   0.025   0.241  0.4737 -0.1991 -0.0227
 4521TIP3    H113569   0.815  -0.069   0.228 -0.6258 -0.2607  0.5510
 4521TIP3    H213570   0.728   0.055   0.229  0.7179  0.7061  0.2523
 4522TIP3   OH213571   3.862   2.410   4.461  0.1278 -0.1791  0.2811
 4522TIP3    H113572   3.910   2.328   4.473  1.1787  0.2038 -0.9396
 4522TIP3    H213573   3.885   2.463   4.537  0.5709 -0.5020  0.3759
 4523TIP3   OH213574   5.659   2.189   3.110  0.0855  0.3733  0.1219
 4523TIP3    H113575   5.582   2.222   3.155  0.0731  1.1096 -0.4129
 4523TIP3    H213576   5.733   2.232   3.153 -0.0100  2.2655 -1.4847
 4524TIP3   OH213577   5.542   4.266   3.438  0.0262  0.3783  0.1472
 4524TIP3    H113578   5.633   4.266   3.408 -0.1735  0.9298 -0.4678
 4524TIP3    H213579   5.490   4.259   3.358 -0.4833  0.5900  0.4546
 4525TIP3   OH213580   1.765   2.124   3.723 -0.4163 -0.2106 -0.4138
 4525TIP3    H113581   1.836   2.061   3.736 -0.3776  0.0673  0.8854
 4525TIP3    H213582   1.807   2.201   3.685 -0.0576 -0.1609  0.0645
 4526TIP3   OH213583   4.858   3.112   4.554 -0.1821  0.1766 -0.8297
 4526TIP3    H113584   4.907   3.193   4.561 -0.7874  0.4481  0.8264
 4526TIP3    H213585   4.820   3.113   4.466 -0.4841  1.8699 -0.7113
 4527TIP3   OH213586   3.271   1.791   3.849  0.7990  0.6761 -0.0787
 4527TIP3    H113587   3.247   1.773   3.939  0.7773 -2.1697 -0.5855
 4527TIP3    H213588   3.188   1.804   3.804  0.7301  0.5291  0.0067
 4528TIP3   OH213589   4.714   4.612   4.877 -0.0622 -0.3146 -0.5539
 4528TIP3    H113590   4.770   4.638   4.804 -0.2659  0.4952 -0.4325
 4528TIP3    H213591   4.773   4.602   4.951  0.1851 -1.4185 -0.8855
 4529TIP3   OH213592   0.007   0.629   1.851  0.3584  0.0743  0.4213
 4529TIP3    H113593   0.094   0.670   1.848 -0.1326  1.1108 -1.1546
 4529TIP3    H213594  -0.007   0.599   1.761 -2.0664  2.4523 -0.0869
 4530TIP3   OH213595   1.073   2.728   3.714  0.1782 -0.2827  0.3596
 4530TIP3    H113596   1.112   2.689   3.792 -0.5470 -1.8502 -0.0295
 4530TIP3    H213597   1.136   2.710   3.645 -0.2820 -1.0312  0.1261
 4531TIP3   OH213598   0.812   2.606   2.410  0.0969  0.5630 -0.3707
 4531TIP3    H113599   0.839   2.514   2.406  1.1683  0.8819 -0.7594
 4531TIP3    H213600   0.750   2.615   2.338 -2.5425 -0.5982  1.5723
 4532TIP3   OH213601   1.571   1.431   3.299  0.1947 -0.5382  0.1645
 4532TIP3    H113602   1.480   1.434   3.331  0.2517 -1.1248  0.3843
 4532TIP3    H213603   1.600   1.522   3.304 -0.6683 -0.1906 -0.7488
 4533TIP3   OH213604   5.883   2.185   0.248 -0.1207 -0.2203  0.2297
 4533TIP3    H113605   5.951   2.234   0.293  0.5772  0.3993 -1.4116
 4533TIP3    H213606   5.814   2.249   0.231 -0.3389 -0.4268  0.3148
 4534TIP3   OH213607   3.333   5.988   0.585  1.1368 -0.2606  1.0143
 4534TIP3    H113608   3.290   5.906   0.607 -3.0939  1.1021 -1.0925
 4534TIP3    H213609   3.345   5.985   0.490 -0.5216  1.9939  0.6388
 4535TIP3   OH213610   5.416   1.212   0.924  0.4041 -0.0173  0.6770
 4535TIP3    H113611   5.368   1.262   0.858  1.6932  0.3895  0.0287
 4535TIP3    H213612   5.389   1.251   1.008 -0.1617  0.3976  0.3060
 4536TIP3   OH213613   2.877   2.262   5.048 -0.1662  0.7156  0.4945
 4536TIP3    H113614   2.820   2.305   5.112 -0.2425  0.7686  0.3897
 4536TIP3    H213615   2.819   2.204   5.000 -0.0971  0.6318  0.5118
 4537TIP3   OH213616   3.837   5.327   4.526 -0.1004  0.0906 -0.0425
 4537TIP3    H113617   3.795   5.412   4.542 -0.1908  0.1416 -0.5319
 4537TIP3    H213618   3.896   5.315   4.600  0.6104  1.0152 -0.4431
 4538TIP3   OH213619   3.995   1.172   2.515  0.2906  0.0718 -0.3259
 4538TIP3    H113620   3.905   1.163   2.547  0.7808 -1.2869  0.7892
 4538TIP3    H213621   4.035   1.086   2.532  1.5484  0.3601 -1.6151
 4539TIP3   OH213622   1.318   1.992   3.681 -0.2478  0.2789 -0.4806
 4539TIP3    H113623   1.281   1.905   3.690  0.5174 -0.1414 -1.3022
 4539TIP3    H213624   1.324   2.025   3.771 -0.0586 -0.7090 -0.1235
 4540TIP3   OH213625   4.010   2.793   2.005  0.3432 -0.5164 -0.0358
 4540TIP3    H113626   4.005   2.852   1.929  1.1534  0.4099  0.6042
 4540TIP3    H213627   4.083   2.735   1.986  0.2928 -0.5483 -0.1360
 4541TIP3   OH213628   5.792   5.602   1.749  0.1964  0.0273 -0.0224
 4541TIP3    H113629   5.735   5.669   1.788 -1.9815 -0.8692 -1.4493
 4541TIP3    H213630   5.810   5.635   1.661  1.3487 -0.0486  0.1698
 4542TIP3   OH213631   5.409   4.216   3.184  0.8451  0.1508 -0.1223
 4542TIP3    H113632   5.313   4.218   3.188  0.7946 -1.1315 -0.3835
 4542TIP3    H213633   5.429   4.146   3.123  1.9488  1.3756 -1.2330
 4543TIP3   OH213634   2.027   5.366   4.603 -0.6719  0.3790 -0.0752
 4543TIP3    H113635   2.080   5.444   4.620 -0.1660  0.7833 -2.9647
 4543TIP3    H213636   2.091   5.295   4.595 -0.5544  0.6803 -2.5324
 4544TIP3   OH213637   0.507   1.324   1.349 -0.5308 -0.1340  0.0867
 4544TIP3    H113638   0.469   1.305   1.435 -0.4949 -0.6791 -0.0116
 4544TIP3    H213639   0.569   1.395   1.366 -0.5887 -0.1739  0.4949
 4545TIP3   OH213640   3.122   0.698   3.914  0.0559 -0.0476 -0.6145
 4545TIP3    H113641   3.055   0.733   3.855 -0.4153  0.3061  0.1194
 4545TIP3    H213642   3.205   0.725   3.874 -0.2364 -0.2934 -1.4087
 4546TIP3   OH213643   5.346   1.454   0.085  0.0824 -0.4737 -0.4455
 4546TIP3    H113644   5.315   1.466   0.174  0.4309  0.5083 -0.4464
 4546TIP3    H213645   5.441   1.460   0.091  0.1487 -1.0692 -0.7900
 4547TIP3   OH213646   4.757   5.130   0.374  0.0651 -0.0839 -0.3909
 4547TIP3    H113647   4.685   5.158   0.318  0.0841  0.8401  0.0304
 4547TIP3    H213648   4.768   5.202   0.437  0.5290 -0.7734  0.3316
 4548TIP3   OH213649   4.427   3.532   3.629  0.0599  0.4442  0.0120
 4548TIP3    H113650   4.453   3.548   3.720 -1.0780 -0.0566  0.4435
 4548TIP3    H213651   4.480   3.457   3.602 -0.4681 -0.1844  0.6797
 4549TIP3   OH213652   3.920   4.637   1.071 -0.8076 -0.1808  0.0271
 4549TIP3    H113653   3.922   4.645   0.975  0.6875 -0.5943 -0.0056
 4549TIP3    H213654   4.005   4.598   1.093 -1.3548 -0.6016  1.4803
 4550TIP3   OH213655   0.525   3.177   0.803 -0.6857 -0.0056 -0.0667
 4550TIP3    H113656   0.553   3.140   0.719 -0.8365 -0.1396 -0.0585
 4550TIP3    H213657   0.430   3.184   0.796 -0.5767  1.2386 -0.4091
 4551TIP3   OH213658   2.748   4.017   2.419 -0.5055 -0.1768 -0.1510
 4551TIP3    H113659   2.766   3.970   2.501  1.1287  0.3976 -0.1425
 4551TIP3    H213660   2.820   3.992   2.361 -1.4631 -0.3156 -1.3152
 4552TIP3   OH213661   2.325   3.984   0.995  0.7889  0.3654 -0.0060
 4552TIP3    H113662   2.244   3.949   1.030  0.8762  0.6497  0.5016
 4552TIP3    H213663   2.346   3.928   0.921  0.5498 -0.2009  0.3476
 4553TIP3   OH213664   4.904   5.761   2.332  0.4609  0.0818  0.5801
 4553TIP3    H113665   4.878   5.680   2.288 -0.9576  0.8961 -0.1847
 4553TIP3    H213666   4.853   5.762   2.413 -0.3701  0.7011  0.0676
 4554TIP3   OH213667   5.529   4.421   0.945 -0.1407  0.6070  0.1754
 4554TIP3    H113668   5.516   4.413   0.851  1.2202  0.4413 -0.0194
 4554TIP3    H213669   5.441   4.437   0.980 -0.6233  0.9763 -1.1424
 4555TIP3   OH213670  -0.008   3.443   3.909  0.0705 -0.1049 -0.1976
 4555TIP3    H113671  -0.007   3.463   3.815 -1.5444  0.3611 -0.1383
 4555TIP3    H213672   0.017   3.525   3.951 -2.0825  0.5955 -0.1450
 4556TIP3   OH213673   3.137   0.040   1.596  0.0312 -0.0337 -0.6859
 4556TIP3    H113674   3.148   0.011   1.506  0.2523 -1.6203 -0.1907
 4556TIP3    H213675   3.043   0.056   1.605  0.1026  0.8319 -1.3732
 4557TIP3   OH213676   4.384   5.030   4.019 -0.5014  0.6249  0.4446
 4557TIP3    H113677   4.379   4.956   3.959  1.5402  0.2169  0.7023
 4557TIP3    H213678   4.379   5.107   3.963  3.7178  0.3025 -0.7445
 4558TIP3   OH213679   5.265   0.543   4.299  0.4314  0.0320  0.4740
 4558TIP3    H113680   5.243   0.630   4.264  1.2100 -0.0826 -0.3741
 4558TIP3    H213681   5.332   0.511   4.238  0.2750 -1.0889  0.8878
 4559TIP3   OH213682   4.290   2.442   3.518 -0.1476  0.5399 -0.4182
 4559TIP3    H113683   4.367   2.411   3.566 -0.1360 -1.6116 -1.6785
 4559TIP3    H213684   4.236   2.364   3.507 -1.2324  1.4372 -1.8795
 4560TIP3   OH213685   3.335   0.313   1.099  0.2497  0.3043 -0.0276
 4560TIP3    H113686   3.385   0.362   1.035 -0.6982  2.3404  0.7082
 4560TIP3    H213687   3.400   0.276   1.158  1.0094  0.3071 -0.8566
 4561TIP3   OH213688   5.175   3.233   2.316 -0.0407 -0.3788  0.1799
 4561TIP3    H113689   5.104   3.259   2.257  0.8450 -1.1915 -1.3077
 4561TIP3    H213690   5.132   3.184   2.386 -1.0072 -0.3710 -0.3994
 4562TIP3   OH213691   2.991   5.504   4.048  0.1735  0.4535 -0.7171
 4562TIP3    H113692   3.008   5.410   4.044 -0.2681  0.3530 -0.2885
 4562TIP3    H213693   3.049   5.542   3.981  1.4228  0.0409  0.1023
 4563TIP3   OH213694   3.081   0.575   1.807 -0.0440  0.6048 -0.2125
 4563TIP3    H113695   3.059   0.607   1.719  0.1278  0.9551 -0.1320
 4563TIP3    H213696   3.039   0.638   1.866 -0.4824  0.1487 -0.0400
 4564TIP3   OH213697   3.390   4.476   2.975  0.4911  0.3491 -0.1985
 4564TIP3    H113698   3.444   4.446   3.048 -0.2226  1.5514  0.8892
 4564TIP3    H213699   3.405   4.413   2.905  1.0985 -0.9248  1.0421
 4565TIP3   OH213700   2.284   0.295   0.886 -0.0335  0.2027 -0.0761
 4565TIP3    H113701   2.379   0.281   0.886 -0.0006  0.3055  1.0752
 4565TIP3    H213702   2.257   0.277   0.796  0.4524 -4.1561  0.4330
 4566TIP3   OH213703   0.499   0.056   1.573  0.0235  0.1936  0.1060
 4566TIP3    H113704   0.428   0.098   1.524 -0.3970 -1.3949 -0.7128
 4566TIP3    H213705   0.496  -0.036   1.546  1.3101 -0.2552  1.3511
 4567TIP3   OH213706   5.765   4.206   1.264  0.7298  0.6276  0.3008
 4567TIP3    H113707   5.750   4.164   1.349 -0.1392  0.8180  0.2498
 4567TIP3    H213708   5.682   4.199   1.218  1.0084  1.0796 -0.2991
 4568TIP3   OH213709   2.610   4.289   0.404  0.0274  0.3408 -0.3824
 4568TIP3    H113710   2.623   4.195   0.397  2.1969  0.6336 -1.5206
 4568TIP3    H213711   2.646   4.313   0.489 -2.5433 -0.0604  0.9048
 4569TIP3   OH213712   4.268   5.919   0.191 -0.1380  0.6498  0.3429
 4569TIP3    H113713   4.236   5.855   0.127  2.0234 -0.6316  0.4510
 4569TIP3    H213714   4.256   5.876   0.276 -0.1019  1.0378  0.5487
 4570TIP3   OH213715   1.797   2.965   3.397  0.4174 -0.1694  0.0725
 4570TIP3    H113716   1.826   2.874   3.402  1.1800  0.1298  1.6675
 4570TIP3    H213717   1.877   3.016   3.384  0.2360  0.4018  1.0556
 4571TIP3   OH213718   5.010   0.550   2.761 -0.3584 -0.2040 -0.3390
 4571TIP3    H113719   5.034   0.462   2.788 -2.4983 -1.2521 -1.5888
 4571TIP3    H213720   5.090   0.601   2.769  1.1057 -2.4107 -0.2456
 4572TIP3   OH213721   2.967   4.311   3.071  0.5471 -0.1025 -0.6365
 4572TIP3    H113722   3.024   4.270   3.136  0.3911  1.1575  0.3327
 4572TIP3    H213723   3.003   4.399   3.060  1.1977 -0.5972 -3.0727
 4573TIP3   OH213724   3.036   1.226   1.537  0.8838 -0.4304 -0.7606
 4573TIP3    H113725   2.945   1.202   1.522  0.7884  0.3764 -1.5443
 4573TIP3    H213726   3.087   1.165   1.484  0.7862 -0.6091 -0.6514
 4574TIP3   OH213727   5.986   1.161   0.070 -0.2656 -0.1933 -0.1252
 4574TIP3    H113728   6.076   1.183   0.094 -0.5391  0.8161  0.0510
 4574TIP3    H213729   5.985   1.163  -0.026  0.2191 -1.6262 -0.1777
 4575TIP3   OH213730   1.495   1.328   0.280 -0.0956  0.5170  0.4426
 4575TIP3    H113731   1.412   1.280   0.285  0.5547 -0.5455  1.6795
 4575TIP3    H213732   1.498   1.380   0.361  0.7802 -0.0696  0.8098
 4576TIP3   OH213733   0.456   4.633   2.945 -0.2931  0.3663 -0.3835
 4576TIP3    H113734   0.480   4.595   2.861  3.5838 -0.1545  0.7896
 4576TIP3    H213735   0.444   4.557   3.003  3.0119  0.6586  0.8679
 4577TIP3   OH213736   1.728   5.904   1.020 -0.3047  0.7125 -0.1462
 4577TIP3    H113737   1.746   5.873   0.931  0.7575 -2.7736  1.1429
 4577TIP3    H213738   1.814   5.916   1.060 -0.7496  2.8890  0.3208
 4578TIP3   OH213739   1.844   4.553   0.763 -0.4752 -1.0114 -0.1190
 4578TIP3    H113740   1.928   4.584   0.796 -0.0736 -0.6883 -1.3869
 4578TIP3    H213741   1.865   4.505   0.683 -1.4193 -1.7080  0.0308
 4579TIP3   OH213742   5.304   3.936   3.942 -0.3404  0.1514  0.2223
 4579TIP3    H113743   5.221   3.907   3.905  0.2646  0.7538 -1.7296
 4579TIP3    H213744   5.308   3.895   4.029 -2.5336 -0.0812  0.2503
 4580TIP3   OH213745   0.789   0.638   4.737 -0.5971  0.0780  0.4745
 4580TIP3    H113746   0.812   0.549   4.764  0.1228 -0.1650 -0.8700
 4580TIP3    H213747   0.706   0.628   4.690  0.0728 -0.0869 -0.7145
 4581TIP3   OH213748   5.261   1.729   1.180 -0.3012 -0.0745 -0.5480
 4581TIP3    H113749   5.329   1.702   1.241  0.4040 -0.5290 -1.5102
 4581TIP3    H213750   5.290   1.815   1.150 -1.0494  0.5012  0.3209
 4582TIP3   OH213751   1.816   5.640   1.946 -0.3418  0.6334 -0.3022
 4582TIP3    H113752   1.749   5.706   1.930  0.0609  1.1940  0.3152
 4582TIP3    H213753   1.899   5.688   1.943 -0.1450  0.5312  2.0069
 4583TIP3   OH213754   4.653   5.802   4.642  0.1799 -0.0984  0.5320
 4583TIP3    H113755   4.647   5.715   4.602  1.6902 -0.4340  0.9271
 4583TIP3    H213756   4.729   5.842   4.600  1.1749 -0.0610  2.2696
 4584TIP3   OH213757   1.777   0.238   1.115 -0.4588 -0.2969  0.3723
 4584TIP3    H113758   1.822   0.201   1.191  0.4235  1.2665  0.6501
 4584TIP3    H213759   1.834   0.216   1.041 -0.2738 -0.0498  0.4424
 4585TIP3   OH213760   5.207   0.328   4.020 -0.3408  0.6387  0.2540
 4585TIP3    H113761   5.121   0.305   3.986  0.0325 -1.3766  0.5897
 4585TIP3    H213762   5.189   0.395   4.086 -1.5797  0.6678 -0.0853
 4586TIP3   OH213763   5.464   5.232   4.494  0.2530 -0.4988 -0.5761
 4586TIP3    H113764   5.419   5.186   4.423 -1.4233  0.2094 -0.0145
 4586TIP3    H213765   5.479   5.320   4.459  0.2358 -0.4101 -0.3614
 4587TIP3   OH213766   2.925   1.050   2.059 -0.0102  0.0817 -0.5211
 4587TIP3    H113767   2.869   0.990   2.108 -0.1981 -0.3257 -1.2225
 4587TIP3    H213768   2.970   1.101   2.126 -0.7718  0.0066  0.0644
 4588TIP3   OH213769   4.481   2.981   3.862 -0.1986  0.4731 -0.2019
 4588TIP3    H113770   4.432   3.030   3.796  3.3276  2.2718 -1.7533
 4588TIP3    H213771   4.561   3.032   3.876  0.6393 -1.4585  3.2170
 4589TIP3   OH213772   1.293   5.793   2.129  0.3735 -0.1514  0.4698
 4589TIP3    H113773   1.240   5.852   2.075  2.2724  0.1192 -1.2425
 4589TIP3    H213774   1.239   5.714   2.139 -0.8935  0.6294  0.0207
 4590TIP3   OH213775   5.512   5.816   2.346  0.0877 -0.0402  0.4899
 4590TIP3    H113776   5.459   5.811   2.267 -1.5838 -0.2665  1.5702
 4590TIP3    H213777   5.592   5.768   2.325 -0.6110 -0.6770 -0.8241
 4591TIP3   OH213778   4.069   1.966   0.894  0.3865 -0.5823 -0.8619
 4591TIP3    H113779   4.083   1.965   0.988  0.8788  0.5008 -0.9077
 4591TIP3    H213780   3.974   1.962   0.884  0.1476  1.7084 -0.1968
 4592TIP3   OH213781   2.103   5.191   1.822  0.1721 -0.5362  0.2503
 4592TIP3    H113782   2.193   5.195   1.854  0.1648 -1.6111  0.4476
 4592TIP3    H213783   2.111   5.161   1.732  0.0543  0.2630 -0.0355
 4593TIP3   OH213784   2.496   3.039   1.501  0.2210 -0.0599 -0.2562
 4593TIP3    H113785   2.583   3.080   1.497 -0.2699  0.9403 -2.3704
 4593TIP3    H213786   2.478   3.013   1.410 -1.4048 -0.8906  0.2658
 4594TIP3   OH213787   1.954   0.662   4.527 -0.3656  0.4918 -0.2177
 4594TIP3    H113788   1.962   0.637   4.435 -0.7356  1.6302 -0.5686
 4594TIP3    H213789   1.876   0.716   4.531 -0.1005  0.8265  0.6840
 4595TIP3   OH213790   2.981   4.526   1.076 -0.0706  0.2707 -0.1896
 4595TIP3    H113791   2.983   4.613   1.037  2.2484  0.5750  0.4378
 4595TIP3    H213792   3.001   4.467   1.003 -0.1443  0.4040 -0.3192
 4596TIP3   OH213793   5.390   3.446   1.889  0.3102 -0.1338  0.2331
 4596TIP3    H113794   5.370   3.480   1.976 -0.0066 -1.3480  0.6520
 4596TIP3    H213795   5.482   3.421   1.893 -0.0215 -1.3916  0.6624
 4597TIP3   OH213796   6.145   0.780   1.796  0.0839 -0.3091  0.2314
 4597TIP3    H113797   6.186   0.860   1.764 -0.8840 -0.4052 -1.3898
 4597TIP3    H213798   6.217   0.718   1.807  0.4790 -0.3958 -2.2721
 4598TIP3   OH213799   4.835   1.462   0.608 -0.1652 -0.6274 -0.0684
 4598TIP3    H113800   4.866   1.530   0.667  0.9084 -1.2636  0.1168
 4598TIP3    H213801   4.778   1.408   0.663 -0.6843 -0.1352 -0.1108
 4599TIP3   OH213802   1.377   5.518   3.470  0.1651  0.1714 -0.0792
 4599TIP3    H113803   1.330   5.444   3.432  0.6206 -0.5213  0.6767
 4599TIP3    H213804   1.429   5.480   3.541 -0.5768  1.4073  1.1701
 4600TIP3   OH213805   5.525   3.571   4.030  0.5034 -0.4140  0.6371
 4600TIP3    H113806   5.517   3.615   3.946  1.5280 -0.2468  0.6113
 4600TIP3    H213807   5.460   3.501   4.027  1.0966 -0.9334 -0.6307
 4601TIP3   OH213808   3.836   5.679   4.877  0.3148 -0.5284  0.6706
 4601TIP3    H113809   3.909   5.707   4.932 -1.2150  0.4748  2.3111
 4601TIP3    H213810   3.824   5.751   4.815  1.5687 -1.3266 -0.5416
 4602TIP3   OH213811   5.702   2.093   2.242  0.5685  0.5945  0.0783
 4602TIP3    H113812   5.754   2.045   2.178 -0.2301 -1.2799  0.7894
 4602TIP3    H213813   5.765   2.123   2.307  0.8520 -1.3718  0.7555
 4603TIP3   OH213814   2.066   0.041   1.815 -0.8498 -0.8932 -0.2420
 4603TIP3    H113815   2.015  -0.023   1.865 -0.9315 -0.0467  0.7915
 4603TIP3    H213816   2.029   0.126   1.839 -0.6161 -0.4311 -1.4459
 4604TIP3   OH213817   1.498   5.793   1.664 -0.2274 -0.1322 -0.1037
 4604TIP3    H113818   1.535   5.843   1.737 -1.4205  0.7892 -0.1081
 4604TIP3    H213819   1.574   5.754   1.621  0.5453 -0.1904  1.2643
 4605TIP3   OH213820   0.447   1.654   3.047 -0.6830  0.3464  0.1874
 4605TIP3    H113821   0.462   1.627   2.957  0.5781  0.7815  0.2379
 4605TIP3    H213822   0.532   1.642   3.090 -1.3538 -0.1905  1.4074
 4606TIP3   OH213823   2.123   1.762   4.640  0.7226  0.7570 -0.3130
 4606TIP3    H113824   2.121   1.669   4.616 -0.4277  1.1276 -1.7840
 4606TIP3    H213825   2.035   1.793   4.622  0.2128  1.5095  2.9806
 4607TIP3   OH213826   1.980   3.853   4.886  0.5804 -0.0437  0.3013
 4607TIP3    H113827   1.904   3.803   4.914  0.4209  0.7189  1.2845
 4607TIP3    H213828   2.055   3.798   4.909  0.3609 -0.4198  0.1242
 4608TIP3   OH213829   1.114   1.449   4.610 -0.0377  0.1579 -0.0820
 4608TIP3    H113830   1.073   1.525   4.569 -0.4779  0.5477  1.0517
 4608TIP3    H213831   1.041   1.393   4.637  0.2455 -0.1170  0.1221
 4609TIP3   OH213832   3.399   1.347   0.363  0.2209  0.2440  0.1299
 4609TIP3    H113833   3.371   1.263   0.399  0.1397 -0.1405 -0.7895
 4609TIP3    H213834   3.326   1.406   0.379  0.6372  0.4030  1.6024
 4610TIP3   OH213835   4.848   0.797   1.172 -0.0311 -0.6550 -0.3492
 4610TIP3    H113836   4.889   0.876   1.136 -0.5739  0.4754  1.3741
 4610TIP3    H213837   4.913   0.728   1.158  1.3918  0.5526  0.0480
 4611TIP3   OH213838   5.089   4.847   0.566  0.4540  0.3025 -0.3498
 4611TIP3    H113839   5.088   4.796   0.484  1.8076  1.0468 -0.8459
 4611TIP3    H213840   5.098   4.938   0.538 -1.3639  0.8181  0.5574
 4612TIP3   OH213841   4.459   5.278   0.258 -0.1010  0.0699 -0.2346
 4612TIP3    H113842   4.473   5.229   0.177 -1.0642  0.2731 -0.5288
 4612TIP3    H213843   4.543   5.322   0.274 -0.1654  0.7402 -1.6111
 4613TIP3   OH213844   3.987   0.726   4.192  0.0393  0.0326  0.1042
 4613TIP3    H113845   4.030   0.669   4.129 -1.0000 -1.0521  0.3399
 4613TIP3    H213846   4.044   0.803   4.198  0.4564 -0.0891 -1.7131
 4614TIP3   OH213847   3.657   4.793   4.167  0.1628  0.1447 -0.2726
 4614TIP3    H113848   3.735   4.848   4.154  0.3086 -0.2283 -1.0535
 4614TIP3    H213849   3.603   4.811   4.090 -0.5365  0.4147  0.2745
 4615TIP3   OH213850   0.491   1.678   4.410 -0.0251  0.2853  0.0445
 4615TIP3    H113851   0.546   1.613   4.453  2.5187  2.5802  0.4819
 4615TIP3    H213852   0.407   1.671   4.455  0.6107 -1.6284  1.0716
 4616TIP3   OH213853   4.797   1.545   2.443 -0.2813 -0.3316  0.1067
 4616TIP3    H113854   4.730   1.500   2.391  0.8231 -1.3390 -0.4882
 4616TIP3    H213855   4.866   1.567   2.380  0.0986  0.4245  0.7587
 4617TIP3   OH213856   0.153   3.217   0.161  0.0226 -0.1322 -0.3698
 4617TIP3    H113857   0.248   3.213   0.161  0.0768  0.9374 -0.9965
 4617TIP3    H213858   0.131   3.294   0.213 -0.5442 -0.7898  0.4080
 4618TIP3   OH213859   5.240   2.678   0.854  0.1974 -0.5511 -0.0528
 4618TIP3    H113860   5.172   2.700   0.791 -0.9458 -0.4214  1.1902
 4618TIP3    H213861   5.317   2.728   0.825 -1.0436  1.5963  0.1100
 4619TIP3   OH213862   0.677   2.590   0.487  0.1965 -0.0299 -0.5083
 4619TIP3    H113863   0.752   2.537   0.459 -0.2800 -0.4072 -1.1245
 4619TIP3    H213864   0.712   2.677   0.502  1.1063 -0.6273  1.0318
 4620TIP3   OH213865   0.157   5.290   2.311 -0.7137 -0.3267 -0.1321
 4620TIP3    H113866   0.106   5.252   2.239 -0.3306 -1.4731  0.1850
 4620TIP3    H213867   0.157   5.384   2.293 -2.0044 -0.4253 -0.7319
 4621TIP3   OH213868   0.457   2.810   4.749 -0.0113  0.0344 -1.1650
 4621TIP3    H113869   0.365   2.814   4.775 -0.0141  0.8527 -1.2891
 4621TIP3    H213870   0.457   2.838   4.657  0.6384  2.4921 -0.4885
 4622TIP3   OH213871   1.343   4.716   0.476 -0.2110  0.1143  0.0103
 4622TIP3    H113872   1.380   4.630   0.491  0.5347  0.4136 -0.0787
 4622TIP3    H213873   1.384   4.772   0.541 -0.6643  0.4141  0.0472
 4623TIP3   OH213874   4.278   2.695   1.956  0.5577  0.3485 -0.4402
 4623TIP3    H113875   4.287   2.706   1.862 -1.5912 -1.6896 -0.9927
 4623TIP3    H213876   4.302   2.603   1.972 -1.3417 -0.0502  0.5419
 4624TIP3   OH213877   6.033   2.860   4.864 -0.1774  0.7708 -0.0177
 4624TIP3    H113878   5.963   2.795   4.860  1.1614 -0.6717 -2.3374
 4624TIP3    H213879   5.987   2.943   4.881 -2.0357 -0.5652  2.0394
 4625TIP3   OH213880   5.462   4.725   2.775  0.4218  0.5132  0.2182
 4625TIP3    H113881   5.392   4.779   2.812  2.9774  2.0502  3.2057
 4625TIP3    H213882   5.445   4.638   2.810  0.1238  0.9239  1.1238
 4626TIP3   OH213883   0.298   2.084   1.772  0.2435  0.2000  0.3605
 4626TIP3    H113884   0.219   2.042   1.806 -1.1956  2.1167 -0.4293
 4626TIP3    H213885   0.319   2.035   1.692 -1.3900  0.9278 -0.5492
 4627TIP3   OH213886   2.918   0.398   3.562 -0.3944 -0.5634 -0.2946
 4627TIP3    H113887   2.878   0.413   3.476  0.1602  2.1936 -0.1975
 4627TIP3    H213888   3.009   0.376   3.542  0.1251  1.5055 -0.5056
 4628TIP3   OH213889   3.257   5.627   3.914  0.3395 -0.0911 -0.5862
 4628TIP3    H113890   3.180   5.640   3.858 -1.4925 -0.0410  1.7835
 4628TIP3    H213891   3.265   5.531   3.920 -0.7086 -0.1342  0.5776
 4629TIP3   OH213892   5.315   1.849   2.782  0.2069 -0.1342  0.3746
 4629TIP3    H113893   5.289   1.762   2.751 -0.2129  0.2192 -0.2658
 4629TIP3    H213894   5.368   1.885   2.711  0.2888  0.1856  0.5966
 4630TIP3   OH213895   4.336   5.035   1.968  0.1672  0.1877  0.0742
 4630TIP3    H113896   4.390   4.959   1.987  1.9147  2.0551  3.5340
 4630TIP3    H213897   4.270   5.036   2.037  0.7131  2.1610  0.6393
 4631TIP3   OH213898   3.141   3.989   2.775  0.0295  0.4865 -0.3986
 4631TIP3    H113899   3.153   3.903   2.815  0.2992  0.5759 -0.2840
 4631TIP3    H213900   3.145   4.050   2.849 -0.8969  0.5414 -0.3879
 4632TIP3   OH213901   4.217   4.036   0.803 -0.4256  0.6143 -0.2736
 4632TIP3    H113902   4.240   4.104   0.739  1.0664  2.1509  1.7974
 4632TIP3    H213903   4.295   3.981   0.809 -0.7263  0.2016 -0.0407
 4633TIP3   OH213904   3.788   3.181   0.214 -0.1076 -0.3410  0.1133
 4633TIP3    H113905   3.699   3.214   0.225  0.2713  1.3364 -1.3921
 4633TIP3    H213906   3.807   3.196   0.121  1.4088 -1.5673  0.1983
 4634TIP3   OH213907   1.149   1.948   4.896 -0.2783  0.4296 -0.1544
 4634TIP3    H113908   1.089   1.876   4.917  1.0750 -0.6502  0.1514
 4634TIP3    H213909   1.121   1.978   4.810 -0.1237 -1.2754 -0.8275
 4635TIP3   OH213910   4.095   4.559   4.258  0.0883 -0.0530  0.1514
 4635TIP3    H113911   4.103   4.619   4.332 -0.6788  1.4340 -0.9121
 4635TIP3    H213912   4.035   4.491   4.288  2.3985 -1.3795  2.0148
 4636TIP3   OH213913   1.601   2.637   4.056 -0.6527 -0.6625 -0.4177
 4636TIP3    H113914   1.573   2.705   3.994 -0.0534 -0.4695 -0.4789
 4636TIP3    H213915   1.675   2.675   4.102 -0.7177 -1.0365 -0.0011
 4637TIP3   OH213916   5.234   0.858   3.590 -0.1948 -0.1157  0.7364
 4637TIP3    H113917   5.298   0.799   3.628 -0.7194 -0.7074  0.7241
 4637TIP3    H213918   5.149   0.819   3.613 -0.5677  1.0245  1.3580
 4638TIP3   OH213919   3.502   2.824   1.371  0.2094 -0.8444 -0.6854
 4638TIP3    H113920   3.508   2.749   1.430 -0.7934 -0.7241 -0.4238
 4638TIP3    H213921   3.430   2.803   1.312  0.6847 -0.6047 -1.3675
 4639TIP3   OH213922   4.003   0.118   0.404 -0.1336 -0.4280 -0.0752
 4639TIP3    H113923   4.071   0.167   0.451 -0.1104 -0.5371  0.0061
 4639TIP3    H213924   4.051   0.062   0.344 -0.0778 -1.5726  1.0051
 4640TIP3   OH213925   4.435   3.118   2.287 -0.2610 -0.5823 -0.6275
 4640TIP3    H113926   4.358   3.071   2.255  1.2556 -2.1764 -2.1765
 4640TIP3    H213927   4.486   3.136   2.208  1.7177 -1.0116  0.4828
 4641TIP3   OH213928   2.063   4.372   3.745  0.0804  0.0673  0.1039
 4641TIP3    H113929   2.043   4.372   3.652  0.7708 -0.5323 -0.0528
 4641TIP3    H213930   2.158   4.377   3.749  0.0089  1.1359  0.7979
 4642TIP3   OH213931   3.901   1.804   1.514 -0.2371  0.9791 -0.9346
 4642TIP3    H113932   3.846   1.789   1.591  1.2396 -1.4071 -0.2358
 4642TIP3    H213933   3.979   1.846   1.549  0.9378 -1.1462 -0.8508
 4643TIP3   OH213934   3.234   3.831   0.894 -0.2257 -0.2309  0.5390
 4643TIP3    H113935   3.217   3.738   0.876  1.1338 -0.7144  1.6306
 4643TIP3    H213936   3.328   3.836   0.907 -0.1125  1.5410 -0.6651
 4644TIP3   OH213937   1.303   5.835   1.474 -0.2884  0.2182 -0.6287
 4644TIP3    H113938   1.261   5.754   1.444 -2.4135  0.3668  1.5553
 4644TIP3    H213939   1.357   5.808   1.548  0.9530  0.5030 -1.4089
 4645TIP3   OH213940   0.061   5.214   1.089 -0.1665 -0.2504 -0.0727
 4645TIP3    H113941  -0.032   5.195   1.072 -0.4540  0.8629  0.1649
 4645TIP3    H213942   0.109   5.164   1.024 -0.9241 -1.0404 -0.0404
 4646TIP3   OH213943   5.034   1.427   1.256  0.3127  0.5463  0.3049
 4646TIP3    H113944   4.978   1.384   1.192 -1.2613 -1.3647  2.7838
 4646TIP3    H213945   4.997   1.515   1.266  0.3898  0.7681 -1.0673
 4647TIP3   OH213946   4.731   3.047   4.985 -0.0912  0.3650 -0.0286
 4647TIP3    H113947   4.717   3.049   4.890 -1.9011 -1.2629  0.1351
 4647TIP3    H213948   4.666   3.108   5.020  0.5147  0.8946  0.2081
 4648TIP3   OH213949   2.264   0.019   3.308  0.4247  0.0397  0.0819
 4648TIP3    H113950   2.286  -0.074   3.321  1.8669  0.5213  1.3158
 4648TIP3    H213951   2.346   0.066   3.325 -0.3256  1.5638 -0.3444
 4649TIP3   OH213952   4.350   2.879   4.095  0.3107 -0.1668  0.0137
 4649TIP3    H113953   4.265   2.865   4.054 -0.8047  3.1845  0.8082
 4649TIP3    H213954   4.403   2.921   4.027  0.1624  0.7467  0.4373
 4650TIP3   OH213955   4.794   2.796   3.841  0.1718  0.3036  0.2414
 4650TIP3    H113956   4.704   2.818   3.817 -0.1239  1.5090  2.2285
 4650TIP3    H213957   4.790   2.778   3.935  2.0052  0.3091  0.3572
 4651TIP3   OH213958   1.796   4.812   4.433 -0.2619 -0.4400  0.1846
 4651TIP3    H113959   1.790   4.855   4.348 -2.5873  2.4876  1.6495
 4651TIP3    H213960   1.730   4.743   4.430  0.1565 -0.8190 -0.5934
 4652TIP3   OH213961   5.635   1.207   5.031 -0.3969  0.2756  0.0114
 4652TIP3    H113962   5.591   1.289   5.007 -0.2955  0.2160 -0.3805
 4652TIP3    H213963   5.706   1.199   4.968 -1.3727 -0.9404 -0.9947
 4653TIP3   OH213964   3.665   1.920   4.306  0.7759 -0.0574 -0.2957
 4653TIP3    H113965   3.674   2.003   4.353  0.0727 -0.0405 -0.1836
 4653TIP3    H213966   3.571   1.904   4.303  0.8825 -0.6384 -0.6935
 4654TIP3   OH213967   0.672   5.981   1.153 -0.0136  0.1007 -0.4794
 4654TIP3    H113968   0.611   5.928   1.102  1.3949 -0.4395 -1.6875
 4654TIP3    H213969   0.668   5.945   1.241 -0.3078 -0.9371 -0.9029
 4655TIP3   OH213970   5.957   3.370   2.690  0.0156  0.2398  0.1762
 4655TIP3    H113971   5.961   3.315   2.612 -2.7361  0.0238  0.0969
 4655TIP3    H213972   5.974   3.309   2.763 -2.7798 -0.7889  0.0746
 4656TIP3   OH213973   0.676   5.212   1.907 -0.4397 -0.1011 -0.0310
 4656TIP3    H113974   0.614   5.140   1.899 -0.6565  0.2040 -1.3637
 4656TIP3    H213975   0.631   5.278   1.959 -1.6463  0.4984 -1.7342
 4657TIP3   OH213976   3.993   0.572   1.573  0.0167 -0.3409  0.5148
 4657TIP3    H113977   4.050   0.638   1.535 -0.1236  0.0570  0.9812
 4657TIP3    H213978   4.046   0.530   1.641 -0.4956  0.6010  1.5242
 4658TIP3   OH213979   5.958   3.925   4.537 -0.2774 -0.4212  0.4619
 4658TIP3    H113980   6.023   3.857   4.555 -0.1644 -0.7733 -1.1340
 4658TIP3    H213981   6.007   4.007   4.539 -0.2824 -0.4359  1.7276
 4659TIP3   OH213982   4.827   6.002   5.147  0.1524 -0.1893  0.0661
 4659TIP3    H113983   4.837   6.000   5.052 -1.3982 -1.5594 -0.1137
 4659TIP3    H213984   4.762   5.934   5.166 -2.6510  2.6383  1.6895
 4660TIP3   OH213985   1.055   5.785   2.682  0.0986 -0.3566 -0.8509
 4660TIP3    H113986   1.065   5.692   2.662  1.9091 -0.3352 -0.2462
 4660TIP3    H213987   1.079   5.792   2.774 -1.9681  0.4565 -0.3307
 4661TIP3   OH213988   3.039   2.599   1.885  0.1943  0.2250  0.2392
 4661TIP3    H113989   3.104   2.627   1.950  1.8950 -1.2002 -0.7242
 4661TIP3    H213990   3.057   2.505   1.874 -2.4783 -0.3636  0.3512
 4662TIP3   OH213991   0.934   1.821   3.369  0.3042  0.2469  0.4689
 4662TIP3    H113992   1.003   1.887   3.364  1.1342 -0.6776 -1.7460
 4662TIP3    H213993   0.970   1.745   3.322 -1.9805 -0.4853 -0.2260
 4663TIP3   OH213994   0.907   4.491   0.085 -0.4451  0.0064  0.3026
 4663TIP3    H113995   0.941   4.532   0.165 -0.6604 -1.3799  1.1508
 4663TIP3    H213996   0.982   4.446   0.047 -0.3431  0.6703 -0.2842
 4664TIP3   OH213997   5.677   2.655   0.452  0.0077 -0.4690  0.9741
 4664TIP3    H113998   5.733   2.645   0.375  0.2118 -0.8505  1.1708
 4664TIP3    H213999   5.707   2.737   0.492 -0.5425  0.0828  0.2894
 4665TIP3   OH214000   1.522   0.598   4.373 -0.3076 -0.2831  0.8159
 4665TIP3    H114001   1.574   0.550   4.438  0.2995 -0.9929 -0.1590
 4665TIP3    H214002   1.431   0.583   4.398 -0.0656  0.0086  1.8827
 4666TIP3   OH214003   4.135   0.619   3.983 -0.2685 -0.6161  0.3463
 4666TIP3    H114004   4.188   0.543   4.007 -0.2638 -0.5274  0.6299
 4666TIP3    H214005   4.148   0.629   3.889  1.1205  0.0686  0.5833
 4667TIP3   OH214006   2.019   2.981   4.937 -0.0421  0.5844 -0.9756
 4667TIP3    H114007   2.085   2.982   4.868  2.1503 -0.1552  0.9624
 4667TIP3    H214008   2.051   3.044   5.002 -0.5874 -0.6325  0.5493
 4668TIP3   OH214009   1.614   2.106   5.055 -0.0943  0.7391 -0.2834
 4668TIP3    H114010   1.608   2.173   4.988  1.0732  0.5142 -0.6369
 4668TIP3    H214011   1.707   2.085   5.061 -0.3709 -0.5168  0.1408
 4669TIP3   OH214012   5.330   2.979   1.324  0.0151  0.6307 -0.3075
 4669TIP3    H114013   5.371   2.962   1.408 -0.2664 -3.0962 -0.7746
 4669TIP3    H214014   5.238   2.995   1.344  0.1918  1.0943  0.1549
 4670TIP3   OH214015   4.469   1.256   0.346 -0.6792  0.5076 -0.4525
 4670TIP3    H114016   4.434   1.329   0.397 -0.0964 -0.1315  0.9156
 4670TIP3    H214017   4.494   1.191   0.412  2.0492  0.4743 -1.4094
 4671TIP3   OH214018   4.236   0.179   3.392  0.3626 -0.5355 -0.0166
 4671TIP3    H114019   4.161   0.202   3.337 -0.2268 -2.1053  0.0889
 4671TIP3    H214020   4.288   0.119   3.338  1.5457  0.4963 -0.0688
 4672TIP3   OH214021   0.744   4.091   2.340 -0.0589 -0.2999  0.2953
 4672TIP3    H114022   0.789   4.171   2.313 -2.3207  1.2632  0.7788
 4672TIP3    H214023   0.809   4.041   2.389  2.3466 -0.3281 -2.6529
 4673TIP3   OH214024   2.000   2.292   3.649  0.1430  0.2156  0.0124
 4673TIP3    H114025   2.067   2.225   3.633 -0.6886 -0.9370  1.1274
 4673TIP3    H214026   2.005   2.349   3.573  3.3120  1.0088  0.6467
 4674TIP3   OH214027   3.261   0.048   2.032  0.5837  0.3640 -0.0098
 4674TIP3    H114028   3.214   0.079   2.110 -0.5656  1.0938 -0.9438
 4674TIP3    H214029   3.293   0.128   1.990  1.1911 -0.0229 -0.2953
 4675TIP3   OH214030   3.843   3.742   3.273  0.1532  0.0252 -0.4718
 4675TIP3    H114031   3.748   3.750   3.260 -0.2081 -0.2678  1.6350
 4675TIP3    H214032   3.852   3.716   3.364  2.2975  0.3960 -0.5392
 4676TIP3   OH214033   5.266   5.869   4.333  0.0340  0.2421  0.8242
 4676TIP3    H114034   5.341   5.901   4.283 -0.8691  0.5401 -0.3900
 4676TIP3    H214035   5.243   5.942   4.391  1.0880 -0.1093  1.7370
 4677TIP3   OH214036   2.020   2.481   3.464 -0.2098  0.3147  0.4002
 4677TIP3    H114037   1.977   2.542   3.404 -1.2869 -1.8554 -1.1976
 4677TIP3    H214038   2.107   2.519   3.478 -1.1766  2.7253  0.4081
 4678TIP3   OH214039   6.088   2.317   4.280 -0.1063  0.1127  0.1165
 4678TIP3    H114040   6.167   2.336   4.331  0.9309 -3.4046  0.1202
 4678TIP3    H214041   6.025   2.288   4.346 -1.1779  2.0237  0.0047
 4679TIP3   OH214042   2.616   5.339   5.115 -0.6154 -0.2658 -0.2062
 4679TIP3    H114043   2.533   5.307   5.152  1.3207 -1.3540  3.7294
 4679TIP3    H214044   2.668   5.260   5.101  1.0475  0.5468  1.0276
 4680TIP3   OH214045   5.120   2.986   4.461  0.1006 -0.2859 -0.2408
 4680TIP3    H114046   5.182   3.020   4.526  1.2198 -3.8017  0.7650
 4680TIP3    H214047   5.050   2.946   4.512 -0.0245 -1.3858 -1.2195
 4681TIP3   OH214048   3.973   2.491   1.187 -0.4635 -0.0148  0.3005
 4681TIP3    H114049   3.889   2.510   1.146 -0.2992 -1.8507 -1.0065
 4681TIP3    H214050   3.950   2.441   1.265 -0.6057  0.2343  0.4219
 4682TIP3   OH214051   0.986   4.838   4.171  0.4838 -0.2891 -0.3223
 4682TIP3    H114052   0.982   4.779   4.095 -0.7145  0.0458 -0.5402
 4682TIP3    H214053   0.987   4.926   4.132 -0.7157 -0.1012  0.0483
 4683TIP3   OH214054   1.200   5.218   1.125  0.5357  0.3797  0.4094
 4683TIP3    H114055   1.138   5.234   1.196  1.6771 -0.5382  1.6754
 4683TIP3    H214056   1.285   5.243   1.162  1.1039  0.3295 -0.8084
 4684TIP3   OH214057   3.287   1.214   2.096 -0.1884  0.1060 -0.5527
 4684TIP3    H114058   3.335   1.294   2.076 -0.1944  0.1425 -0.4201
 4684TIP3    H214059   3.234   1.198   2.018 -0.7562  0.6399 -0.2798
 4685TIP3   OH214060   5.937   1.678   3.239  0.6533  0.1927  0.0362
 4685TIP3    H114061   5.898   1.723   3.164 -1.1922  1.6510  1.7769
 4685TIP3    H214062   6.021   1.721   3.252  0.2049  1.1278 -0.1339
 4686TIP3   OH214063   2.886   3.842   2.580 -0.0209  0.0433 -0.0401
 4686TIP3    H114064   2.860   3.750   2.569  0.1740  0.0526 -0.6039
 4686TIP3    H214065   2.926   3.845   2.667 -3.2825  0.3453  1.6050
 4687TIP3   OH214066   5.696   3.479   1.186  0.1299 -0.0697 -0.2908
 4687TIP3    H114067   5.729   3.391   1.167  0.2094 -0.2596  0.6907
 4687TIP3    H214068   5.718   3.530   1.108  0.1666 -0.8918 -0.8373
 4688TIP3   OH214069   0.876   5.100   3.645  0.2574  0.2648  0.4383
 4688TIP3    H114070   0.809   5.039   3.614 -0.3517 -0.2988  2.6898
 4688TIP3    H214071   0.887   5.162   3.573 -0.1729 -1.5950 -1.3494
 4689TIP3   OH214072   5.473   5.666   1.602 -0.1011 -0.4595 -0.4878
 4689TIP3    H114073   5.404   5.732   1.606 -0.2116 -0.6047  0.1508
 4689TIP3    H214074   5.528   5.692   1.528 -1.6426 -1.1618 -1.9362
 4690TIP3   OH214075   2.874   3.792   0.094  0.1075  0.5225 -0.1464
 4690TIP3    H114076   2.950   3.789   0.036  0.4256  0.7755  0.2532
 4690TIP3    H214077   2.806   3.744   0.047 -0.0816  1.9002 -1.3726
 4691TIP3   OH214078   0.117   1.760   2.878  0.2921  0.3939  0.0899
 4691TIP3    H114079   0.187   1.721   2.826  1.7951  1.8683  0.9271
 4691TIP3    H214080   0.130   1.854   2.869  0.7678  0.7240  3.2477
 4692TIP3   OH214081   1.143   4.224   4.817  0.1557  0.1024  0.3517
 4692TIP3    H114082   1.185   4.166   4.753 -1.4251 -1.7709  0.9165
 4692TIP3    H214083   1.216   4.265   4.864  1.3295 -0.7462 -0.6753
 4693TIP3   OH214084   5.755   5.566   4.566 -0.3556  0.4617  0.2294
 4693TIP3    H114085   5.809   5.487   4.573  1.2678  1.6088  1.3588
 4693TIP3    H214086   5.667   5.536   4.589  0.1921 -1.0487  0.5027
 4694TIP3   OH214087   0.677   0.312   5.132 -0.2525  0.5982  0.0258
 4694TIP3    H114088   0.666   0.227   5.089 -0.6257  0.4637  0.3881
 4694TIP3    H214089   0.759   0.303   5.181 -0.5022  0.3055  0.3926
 4695TIP3   OH214090   5.590   2.554   1.869 -1.1880 -0.5689  0.1183
 4695TIP3    H114091   5.665   2.502   1.897 -0.9162 -0.2520 -0.0202
 4695TIP3    H214092   5.628   2.634   1.832 -1.5603 -0.7851 -0.7544
 4696TIP3   OH214093   1.147   5.608   3.208 -0.0221  0.4951 -0.4892
 4696TIP3    H114094   1.203   5.545   3.163 -1.1606 -0.5598 -0.4490
 4696TIP3    H214095   1.105   5.559   3.278 -0.5159  1.4251 -0.1059
 4697TIP3   OH214096   2.251   4.948   2.615  0.3443 -0.7396 -0.2611
 4697TIP3    H114097   2.315   4.922   2.548  0.1537 -1.2159 -0.2606
 4697TIP3    H214098   2.304   4.965   2.693  0.4997 -0.8902 -0.3322
 4698TIP3   OH214099   1.479   2.626   2.842  0.1214 -0.2070  0.2507
 4698TIP3    H114100   1.441   2.564   2.781  1.1283  1.3844 -2.1213
 4698TIP3    H214101   1.572   2.604   2.843  0.2907  0.4827  0.3275
 4699TIP3   OH214102   5.670   4.294   4.888 -0.0004  0.0140  0.0730
 4699TIP3    H114103   5.653   4.222   4.948  0.2930  0.5041  0.7544
 4699TIP3    H214104   5.599   4.356   4.903  0.3155  0.3412  0.2310
 4700TIP3   OH214105   0.659   4.682   2.439 -0.1796 -0.0058 -0.5885
 4700TIP3    H114106   0.749   4.715   2.443 -0.7799  1.8442 -1.4841
 4700TIP3    H214107   0.669   4.589   2.416  1.5708 -0.5464  1.9279
 4701TIP3   OH214108   4.220   1.707   1.364 -0.3575  0.1724 -0.5019
 4701TIP3    H114109   4.231   1.616   1.392 -1.1798  0.1011 -0.4085
 4701TIP3    H214110   4.194   1.754   1.443 -1.7787  0.1410 -0.9341
 4702TIP3   OH214111   1.058   1.078   4.634 -0.1566 -0.3400  0.2589
 4702TIP3    H114112   0.982   1.134   4.651  0.0354 -0.3128  1.0630
 4702TIP3    H214113   1.052   1.058   4.540 -1.2506 -0.4907  0.3434
 4703TIP3   OH214114   0.140   5.353   0.588  0.1978  0.2840  0.4463
 4703TIP3    H114115   0.179   5.381   0.506  0.9212 -2.0939 -0.1037
 4703TIP3    H214116   0.214   5.332   0.644 -0.2763 -0.3635  0.8479
 4704TIP3   OH214117   5.234   1.137   4.619 -0.2316 -0.1224  0.2445
 4704TIP3    H114118   5.237   1.213   4.561 -2.9681 -0.4553 -0.4913
 4704TIP3    H214119   5.308   1.082   4.591 -0.0115  0.8840 -1.2420
 4705TIP3   OH214120   2.923   3.460   4.810  0.3789 -0.6206 -0.0789
 4705TIP3    H114121   2.971   3.380   4.830  1.0384 -0.3822 -0.6440
 4705TIP3    H214122   2.868   3.476   4.887 -0.3698 -2.0470 -0.2839
 4706TIP3   OH214123   0.896   5.120   1.195  0.0656 -0.6886 -0.7966
 4706TIP3    H114124   0.914   5.102   1.288  0.6315 -2.7087 -1.2356
 4706TIP3    H214125   0.828   5.187   1.196  2.3783  1.8291  1.0145
 4707TIP3   OH214126   3.244   3.246   4.081  0.2840  0.0336 -0.1189
 4707TIP3    H114127   3.191   3.300   4.140  0.5658 -1.0193  1.1527
 4707TIP3    H214128   3.179   3.191   4.036  0.1776 -0.5284  0.6792
 4708TIP3   OH214129   3.917   2.119   2.801 -0.6907 -0.1050 -0.0333
 4708TIP3    H114130   3.839   2.063   2.796  0.1559 -1.1953 -2.4266
 4708TIP3    H214131   3.949   2.124   2.711  0.6680  2.3228  0.4815
 4709TIP3   OH214132   5.775   5.872   0.402 -0.2928 -0.0465  0.7499
 4709TIP3    H114133   5.801   5.930   0.474 -0.9205 -0.2174  1.1232
 4709TIP3    H214134   5.710   5.813   0.441  0.9988 -1.6080  0.6133
 4710TIP3   OH214135   1.723   4.249   1.360  0.0470  0.1619  0.0775
 4710TIP3    H114136   1.717   4.299   1.442  1.4095 -0.0495  0.3230
 4710TIP3    H214137   1.632   4.225   1.341 -0.1926 -0.9548  2.2718
 4711TIP3   OH214138   5.995   1.531   4.968  0.0331  0.1952  0.2126
 4711TIP3    H114139   6.077   1.572   4.996  1.6819 -1.0172 -2.3891
 4711TIP3    H214140   6.008   1.438   4.985 -2.0381  0.2181  2.3812
 4712TIP3   OH214141   0.171   0.172   3.052 -0.1360  0.3059 -0.0725
 4712TIP3    H114142   0.127   0.250   3.017 -1.5472  0.0710  1.0819
 4712TIP3    H214143   0.260   0.178   3.018 -0.5924  1.6870 -1.1482
 4713TIP3   OH214144   5.862   1.399   2.859 -0.0659 -0.4090  0.0370
 4713TIP3    H114145   5.854   1.318   2.909 -0.4521  0.0795  0.7883
 4713TIP3    H214146   5.955   1.421   2.863  0.1904 -1.2570 -0.9002
 4714TIP3   OH214147   4.527   5.951   2.631  0.7156  0.3687 -0.3001
 4714TIP3    H114148   4.527   6.046   2.646 -0.9660  0.4581 -0.7336
 4714TIP3    H214149   4.446   5.920   2.671  0.1492 -0.5556 -2.0750
 4715TIP3   OH214150   2.505   2.138   3.385 -0.0759 -0.4229 -0.1245
 4715TIP3    H114151   2.513   2.114   3.293  2.5734 -0.8125  0.1086
 4715TIP3    H214152   2.423   2.098   3.413 -1.2962  0.2785 -2.4286
 4716TIP3   OH214153   5.168   5.200   3.052  0.0479  0.7224 -0.6934
 4716TIP3    H114154   5.228   5.212   3.126  0.0845  0.7906 -0.7340
 4716TIP3    H214155   5.195   5.267   2.989  0.2009  0.4732 -0.8903
 4717TIP3   OH214156   1.781   5.749   2.267 -0.2846  0.6437  0.5600
 4717TIP3    H114157   1.770   5.817   2.200  0.0889 -1.1402 -1.4046
 4717TIP3    H214158   1.715   5.683   2.246  1.2737 -0.9879  0.5188
 4718TIP3   OH214159   3.347   0.769   4.788  0.4498 -0.3446  0.0095
 4718TIP3    H114160   3.365   0.760   4.881  1.8068 -2.2337 -0.3748
 4718TIP3    H214161   3.394   0.847   4.761  0.4829 -0.0907  0.7984
 4719TIP3   OH214162   1.213   1.587   2.694 -0.2316  0.6145 -0.2782
 4719TIP3    H114163   1.144   1.625   2.748 -0.9477 -0.6212 -0.2991
 4719TIP3    H214164   1.175   1.582   2.606  0.0201  0.2751 -0.3702
 4720TIP3   OH214165   6.107   5.005   1.660  0.0019  0.4496  0.6094
 4720TIP3    H114166   6.146   5.038   1.579  0.1542 -0.0866  0.4635
 4720TIP3    H214167   6.181   4.976   1.713 -0.2176 -1.0646  0.1147
 4721TIP3   OH214168   3.731   0.437   0.258  0.0822  0.2343  0.6757
 4721TIP3    H114169   3.640   0.453   0.285 -0.5495  0.3283 -1.3198
 4721TIP3    H214170   3.767   0.381   0.327 -2.2141 -1.7374  0.4134
 4722TIP3   OH214171   0.374   2.001   3.724  0.1044  0.0992 -0.1078
 4722TIP3    H114172   0.385   2.058   3.648 -2.2203  0.4688 -0.2475
 4722TIP3    H214173   0.349   2.061   3.795  0.3736 -0.4509  0.4586
 4723TIP3   OH214174   6.307   1.175   3.702  0.3219 -0.3276  0.0601
 4723TIP3    H114175   6.292   1.269   3.714 -0.5341 -0.4006 -0.3161
 4723TIP3    H214176   6.402   1.165   3.705  0.4075  0.4945  0.4805
 4724TIP3   OH214177   4.816   4.886   1.005 -0.7748  0.0020  0.0960
 4724TIP3    H114178   4.740   4.827   0.998 -0.4784 -0.3836  0.0886
 4724TIP3    H214179   4.834   4.912   0.915 -1.4254  0.7796  0.1781
 4725TIP3   OH214180   1.055   4.716   4.403  0.3823  0.4517 -0.3529
 4725TIP3    H114181   1.029   4.759   4.321 -0.0295  1.4747  0.3006
 4725TIP3    H214182   1.026   4.776   4.472  1.3456 -0.0702  0.5277
 4726TIP3   OH214183   5.485   1.880   2.266  0.1187  0.7536 -0.3520
 4726TIP3    H114184   5.525   1.820   2.204 -1.4120  0.1327 -0.7603
 4726TIP3    H214185   5.544   1.956   2.266  2.1351 -0.7083  0.2313
 4727TIP3   OH214186   4.158   5.322   1.693 -0.7643  0.0641 -0.0870
 4727TIP3    H114187   4.173   5.228   1.700 -0.5026  0.1794  1.0698
 4727TIP3    H214188   4.209   5.349   1.616  2.0434 -0.1911  1.5448
 4728TIP3   OH214189   2.744   5.888   1.441  0.1741  0.0064  0.5261
 4728TIP3    H114190   2.735   5.794   1.450  0.4474  0.0887  1.9856
 4728TIP3    H214191   2.719   5.907   1.350  0.7074 -1.5236  0.0337
 4729TIP3   OH214192   4.988   3.895   2.159  0.2188 -0.0505  0.2753
 4729TIP3    H114193   4.953   3.913   2.246 -1.9401  0.7736 -0.6954
 4729TIP3    H214194   4.965   3.803   2.143 -1.0470  0.3165 -0.1174
 4730TIP3   OH214195   2.691   0.443   5.156 -0.2622  0.3875 -0.4283
 4730TIP3    H114196   2.747   0.368   5.137  0.2908  0.7536 -0.2658
 4730TIP3    H214197   2.652   0.466   5.072 -1.9218 -1.2343 -0.1709
 4731TIP3   OH214198   2.503   1.993   2.017  0.2112 -0.2777 -0.1341
 4731TIP3    H114199   2.559   1.926   2.057  0.7356 -1.3366 -2.4639
 4731TIP3    H214200   2.555   2.028   1.944 -0.8316  1.2550 -0.2022
 4732TIP3   OH214201   0.293   5.705   2.197 -0.6018  0.2687  0.2269
 4732TIP3    H114202   0.231   5.768   2.161 -1.0607 -1.4521 -2.2076
 4732TIP3    H214203   0.361   5.697   2.130 -0.2346 -1.3448  0.7610
 4733TIP3   OH214204   4.737   1.779   2.114  0.2797  0.9233 -0.2891
 4733TIP3    H114205   4.645   1.751   2.121  0.3978  0.6923  0.4923
 4733TIP3    H214206   4.782   1.703   2.077  0.3458  0.5913  0.4403
 4734TIP3   OH214207   5.963   1.086   3.537  0.0084 -0.8842  0.7980
 4734TIP3    H114208   5.882   1.042   3.513  0.4233 -0.8372 -0.8285
 4734TIP3    H214209   5.960   1.169   3.489  1.1020 -0.9712  0.5576
 4735TIP3   OH214210   2.361   1.300   5.122  0.0414  0.0738  0.5194
 4735TIP3    H114211   2.291   1.355   5.158 -0.1442 -1.3470  2.4943
 4735TIP3    H214212   2.314   1.226   5.082  0.2945  1.1453 -1.8940
 4736TIP3   OH214213   5.843   2.646   0.242 -0.6575 -0.0119  0.6622
 4736TIP3    H114214   5.889   2.716   0.197  0.8903 -0.4913  1.4309
 4736TIP3    H214215   5.827   2.580   0.174  1.0275 -0.4177  0.6158
 4737TIP3   OH214216   1.449   2.974   3.191  0.3921  0.1645  0.2465
 4737TIP3    H114217   1.367   2.976   3.240 -1.1916  2.6350 -2.2287
 4737TIP3    H214218   1.496   3.053   3.219  1.7657 -0.9619  1.2650
 4738TIP3   OH214219   5.830   3.532   1.547 -0.2949  0.4833 -0.4019
 4738TIP3    H114220   5.764   3.588   1.588 -1.0695  0.4819 -1.5741
 4738TIP3    H214221   5.781   3.453   1.523  0.3089  0.1756 -0.6163
 4739TIP3   OH214222   5.620   2.828   2.914  0.1395 -0.7004 -0.2126
 4739TIP3    H114223   5.633   2.890   2.985 -0.5236 -0.4244 -0.3269
 4739TIP3    H214224   5.612   2.882   2.835  0.2440 -0.9671 -0.4097
 4740TIP3   OH214225   2.013   3.864   2.027 -0.0928 -0.8191 -0.1480
 4740TIP3    H114226   1.976   3.781   1.997 -0.7625 -1.2521  1.7328
 4740TIP3    H214227   2.080   3.839   2.091  1.3547  0.0526 -1.2599
 4741TIP3   OH214228   4.739   4.555   0.604 -0.7725 -0.0232 -0.6305
 4741TIP3    H114229   4.678   4.616   0.646 -1.4003 -0.2660 -1.1740
 4741TIP3    H214230   4.790   4.518   0.676 -0.3257  1.1948 -0.2908
 4742TIP3   OH214231   1.828   4.956   4.668 -0.5070 -0.1669  0.1019
 4742TIP3    H114232   1.815   4.953   4.574  0.9053 -1.2089 -0.0946
 4742TIP3    H214233   1.746   4.923   4.705 -0.9137 -0.1642 -0.7781
 4743TIP3   OH214234   4.499   0.576   3.621 -0.2131 -0.7163 -0.2382
 4743TIP3    H114235   4.408   0.551   3.604 -0.1899 -0.8043 -0.2348
 4743TIP3    H214236   4.550   0.526   3.557 -0.3682  1.4356 -2.2198
 4744TIP3   OH214237   5.126   4.718   3.356 -0.6691 -0.2077  0.7526
 4744TIP3    H114238   5.042   4.764   3.352 -1.8134 -2.2051  0.4248
 4744TIP3    H214239   5.163   4.729   3.269 -0.3321  1.0829  1.0360
 4745TIP3   OH214240   5.000   2.541   1.211 -0.5786 -0.1479  0.2631
 4745TIP3    H114241   5.045   2.614   1.167 -1.2451 -0.5972 -1.2388
 4745TIP3    H214242   5.059   2.467   1.199 -0.5882 -0.1919  0.4864
 4746TIP3   OH214243   0.068   5.747   1.834 -0.0337  0.1320  0.0805
 4746TIP3    H114244   0.070   5.792   1.918 -2.8110 -1.3104  1.0286
 4746TIP3    H214245   0.007   5.675   1.846 -1.6763  0.6836 -3.5417
 4747TIP3   OH214246   3.850   1.871   2.525 -0.0854 -0.0357 -0.1586
 4747TIP3    H114247   3.934   1.914   2.541 -0.7003  1.4180 -0.6061
 4747TIP3    H214248   3.872   1.791   2.478  0.9509  1.3093 -2.1085
 4748TIP3   OH214249   0.059   2.616   3.683 -0.6134 -0.0936 -0.4922
 4748TIP3    H114250   0.137   2.601   3.736 -1.4935 -1.2869  0.5473
 4748TIP3    H214251  -0.011   2.628   3.747 -1.6275 -1.1112 -1.3536
 4749TIP3   OH214252   5.464   2.092   3.440 -0.6595 -0.1790  0.0650
 4749TIP3    H114253   5.373   2.088   3.412 -1.0115 -1.1210  1.2806
 4749TIP3    H214254   5.465   2.051   3.527  0.9668 -0.4234 -0.0353
 4750TIP3   OH214255   2.249   2.954   3.062  0.4536  0.0797  0.2929
 4750TIP3    H114256   2.172   2.917   3.105 -0.0272 -0.2640 -0.8182
 4750TIP3    H214257   2.280   2.884   3.004  1.6214  0.2076  0.7237
 4751TIP3   OH214258   6.125   1.714   2.208  0.9764 -0.8395 -0.0152
 4751TIP3    H114259   6.095   1.714   2.299 -1.1339  1.5883 -0.5982
 4751TIP3    H214260   6.087   1.635   2.170 -0.2820 -0.5689  0.6180
 4752TIP3   OH214261   1.685   3.017   0.984 -0.4069 -0.3910 -0.8256
 4752TIP3    H114262   1.768   3.040   0.944 -0.1519 -1.2332 -0.8052
 4752TIP3    H214263   1.625   3.006   0.909 -0.5151  0.2389 -0.8381
 4753TIP3   OH214264   0.625   5.443   0.769  0.9644 -0.0458 -0.0465
 4753TIP3    H114265   0.666   5.371   0.818  2.6509 -0.2764 -1.6756
 4753TIP3    H214266   0.691   5.468   0.704 -0.0463  2.2089 -0.3002
 4754TIP3   OH214267   1.754   1.692   5.042 -0.4421 -0.0516  0.3775
 4754TIP3    H114268   1.849   1.685   5.031 -0.4128 -0.5722  0.9147
 4754TIP3    H214269   1.742   1.715   5.134 -0.7407  2.7511 -0.2665
 4755TIP3   OH214270   2.884   1.772   0.134 -0.4993 -0.0522 -0.2078
 4755TIP3    H114271   2.969   1.815   0.132 -0.8461  0.7683  1.1371
 4755TIP3    H214272   2.904   1.680   0.152  0.1257  0.0297 -0.4621
 4756TIP3   OH214273   3.653   2.483   0.138  0.5172  0.4831  0.2992
 4756TIP3    H114274   3.595   2.409   0.119 -2.1713  1.7360  2.7252
 4756TIP3    H214275   3.711   2.452   0.207 -1.8291  0.9753  2.6530
 4757TIP3   OH214276   0.514   3.145   5.069 -0.8987  0.1520  0.2431
 4757TIP3    H114277   0.602   3.107   5.063 -0.7852  0.3924  0.3475
 4757TIP3    H214278   0.458   3.086   5.019 -1.0095 -1.0089  1.6879
 4758TIP3   OH214279   4.831   5.170   4.611  0.0333 -0.2295  0.2171
 4758TIP3    H114280   4.838   5.122   4.693 -1.8623  1.4532  1.4687
 4758TIP3    H214281   4.888   5.246   4.624 -2.2167  1.4263  1.1614
 4759TIP3   OH214282   3.131   5.714   0.239 -0.9150  0.0510 -0.2000
 4759TIP3    H114283   3.073   5.638   0.243  0.2047 -0.8112 -0.0542
 4759TIP3    H214284   3.080   5.784   0.280 -1.3820 -0.9916  1.1018
 4760TIP3   OH214285   1.627   3.651   0.472 -0.1367  0.0489  0.1162
 4760TIP3    H114286   1.581   3.731   0.496  1.5339  1.1208 -0.1017
 4760TIP3    H214287   1.612   3.591   0.546 -0.9400  0.7519  0.5375
 4761TIP3   OH214288   5.068   0.260   1.176 -0.0815  0.3959  0.2909
 4761TIP3    H114289   4.977   0.242   1.202 -0.2303  2.2329  1.2009
 4761TIP3    H214290   5.119   0.193   1.221 -0.9890 -1.0069 -0.6666
 4762TIP3   OH214291   0.298   5.637   1.152 -0.3484  0.4782  0.0373
 4762TIP3    H114292   0.269   5.614   1.064  0.8189 -1.9323  0.2112
 4762TIP3    H214293   0.393   5.644   1.145 -0.2652  0.4983  1.0471
 4763TIP3   OH214294   2.231   0.977   2.152  0.5269  0.2675 -0.0044
 4763TIP3    H114295   2.326   0.976   2.154  0.5191 -0.2947  1.3218
 4763TIP3    H214296   2.205   0.907   2.212 -0.6991  1.4792  0.9653
 4764TIP3   OH214297   5.691   5.388   0.261 -0.0171  0.5908  0.8340
 4764TIP3    H114298   5.624   5.389   0.192  0.0084 -1.7031  0.7147
 4764TIP3    H214299   5.641   5.385   0.343 -0.0416  3.0286  0.9931
 4765TIP3   OH214300   2.718   3.251   3.284  0.4489 -0.1234 -0.0486
 4765TIP3    H114301   2.721   3.280   3.193 -1.5196 -2.1079 -0.8180
 4765TIP3    H214302   2.768   3.169   3.285 -0.6657 -0.8137  0.3513
 4766TIP3   OH214303   0.726   4.126   4.996 -0.1854  0.8523  0.2876
 4766TIP3    H114304   0.785   4.085   5.060 -1.2850  2.3831  2.4246
 4766TIP3    H214305   0.778   4.195   4.955  0.1706  0.6957  0.4744
 4767TIP3   OH214306   0.672   3.519   4.753 -0.3339 -0.3835 -0.3518
 4767TIP3    H114307   0.736   3.449   4.765 -0.1294 -0.5665 -2.1960
 4767TIP3    H214308   0.593   3.475   4.724 -0.2125  0.1118 -1.4985
 4768TIP3   OH214309   4.003   4.613   3.167  0.0095 -0.0431 -0.9167
 4768TIP3    H114310   3.995   4.570   3.082  1.6112 -0.1629 -1.0360
 4768TIP3    H214311   4.005   4.541   3.230 -0.8526  0.0318 -0.7923
 4769TIP3   OH214312   5.538   2.812   3.694  0.8503 -0.2272 -0.1419
 4769TIP3    H114313   5.586   2.892   3.712  0.6834 -0.2492  0.4360
 4769TIP3    H214314   5.578   2.746   3.752 -1.6513  0.3965  2.5292
 4770TIP3   OH214315   0.825   5.403   3.653  0.6329  0.4104  0.3644
 4770TIP3    H114316   0.864   5.319   3.679  1.5356  1.0578  1.1515
 4770TIP3    H214317   0.840   5.408   3.559  0.5275 -0.3354  0.3001
 4771TIP3   OH214318   0.245   3.103   2.274 -0.4247 -0.1867  0.0903
 4771TIP3    H114319   0.184   3.058   2.334 -0.5617  1.2477  1.0719
 4771TIP3    H214320   0.299   3.157   2.332  0.4445  0.0989 -0.9644
 4772TIP3   OH214321   3.779   4.474   3.659 -0.8183  0.0411 -0.0176
 4772TIP3    H114322   3.695   4.519   3.659  0.0557  1.7267  0.1381
 4772TIP3    H214323   3.791   4.446   3.750 -0.6814  0.8448  0.2166
 4773TIP3   OH214324   4.325   4.776   1.011 -0.0525 -0.8786 -0.2386
 4773TIP3    H114325   4.281   4.838   0.953  0.6741  0.4449  0.5944
 4773TIP3    H214326   4.262   4.704   1.021 -0.9389 -0.2605 -1.1535
 4774TIP3   OH214327   1.346   1.645   5.006  0.0175 -0.2179  0.3595
 4774TIP3    H114328   1.425   1.595   4.988 -0.3823 -1.1307  1.0526
 4774TIP3    H214329   1.377   1.726   5.045  0.7611  0.7558 -2.0630
 4775TIP3   OH214330   1.444   4.475   1.456 -0.3414 -0.1813 -0.6659
 4775TIP3    H114331   1.520   4.440   1.502  0.0910  1.4875 -0.0086
 4775TIP3    H214332   1.372   4.466   1.519 -0.6321 -1.4276 -1.1520
 4776TIP3   OH214333   3.353   0.071   4.440 -0.1671  0.5856 -0.7987
 4776TIP3    H114334   3.446   0.073   4.463  0.0898  0.9041 -1.8173
 4776TIP3    H214335   3.351   0.041   4.350 -1.0941  0.1592 -0.6477
 4777TIP3   OH214336   0.401   0.287   3.652  0.0127  0.0193  0.2203
 4777TIP3    H114337   0.339   0.221   3.685 -0.4043  0.7342  0.9166
 4777TIP3    H214338   0.462   0.238   3.597 -0.1474 -0.9891  0.9128
 4778TIP3   OH214339   3.631   4.383   4.413  0.0499 -0.2402 -0.3490
 4778TIP3    H114340   3.634   4.476   4.388  2.4434 -0.1169  0.1743
 4778TIP3    H214341   3.611   4.337   4.332  2.4585  0.5201 -1.4519
 4779TIP3   OH214342   1.560   5.089   2.343 -0.5709  0.4216  0.0616
 4779TIP3    H114343   1.527   5.141   2.270 -0.6569 -0.1423 -0.3057
 4779TIP3    H214344   1.641   5.133   2.369 -0.8226  0.9428 -0.0074
 4780TIP3   OH214345   5.430   3.306   1.533 -0.3672 -0.0121  0.1068
 4780TIP3    H114346   5.416   3.353   1.451  0.9516 -0.3859 -0.3547
 4780TIP3    H214347   5.369   3.347   1.594 -2.4565 -0.6911 -1.3939
 4781TIP3   OH214348   1.152   0.301   3.580 -0.8083 -0.0245 -0.1616
 4781TIP3    H114349   1.246   0.305   3.565  0.5847 -0.0510  5.8381
 4781TIP3    H214350   1.127   0.391   3.604 -1.6877 -0.4472  0.6002
 4782TIP3   OH214351   0.992   0.228   1.963 -0.4996 -0.0506  0.2404
 4782TIP3    H114352   1.064   0.215   1.900 -0.3680 -1.4814  0.6587
 4782TIP3    H214353   1.024   0.189   2.044 -0.4246  2.3013  1.4198
 4783TIP3   OH214354   3.239   5.738   2.079  0.1495 -0.4503 -0.0741
 4783TIP3    H114355   3.285   5.711   2.000  1.1009 -1.3793  0.7846
 4783TIP3    H214356   3.146   5.740   2.054  0.4336 -0.8478 -1.1638
 4784TIP3   OH214357   0.209   5.439   3.150 -0.0017 -0.1009 -0.1557
 4784TIP3    H114358   0.261   5.488   3.086  0.2637 -0.1481  0.0225
 4784TIP3    H214359   0.129   5.490   3.160  1.0773  1.3892  1.4945
 4785TIP3   OH214360   1.943   0.785   3.375 -0.3750 -0.3643  0.1430
 4785TIP3    H114361   1.907   0.862   3.418 -1.2752  0.8845 -2.6097
 4785TIP3    H214362   2.013   0.819   3.319  0.0633 -1.7410 -0.1896
 4786TIP3   OH214363   0.312   2.710   2.170  0.3842  0.0013  0.2542
 4786TIP3    H114364   0.342   2.717   2.261  1.8744 -0.6616 -0.1514
 4786TIP3    H214365   0.367   2.641   2.133 -0.1911  0.2846 -1.1631
 4787TIP3   OH214366   5.310   4.997   1.598  0.0037 -0.5893 -0.1098
 4787TIP3    H114367   5.351   4.982   1.683  0.4572  1.3674  0.0698
 4787TIP3    H214368   5.366   4.950   1.536 -0.7075 -2.5922  0.6996
 4788TIP3   OH214369   3.363   3.235   2.531 -0.3220 -0.1639 -0.6498
 4788TIP3    H114370   3.276   3.217   2.495  0.1086 -0.4654 -1.5759
 4788TIP3    H214371   3.367   3.331   2.536 -0.4399 -0.1196 -1.3133
 4789TIP3   OH214372   2.434   5.648   2.512  0.5030 -0.0092  0.3091
 4789TIP3    H114373   2.514   5.616   2.469  1.6006 -0.4923  2.5762
 4789TIP3    H214374   2.363   5.612   2.458  1.7790 -1.8653 -0.2616
 4790TIP3   OH214375   2.542   3.967   0.147  0.1048  0.3712 -0.1762
 4790TIP3    H114376   2.592   3.922   0.216 -0.0397  3.6179  2.3172
 4790TIP3    H214377   2.608   4.015   0.098 -0.1403  3.2247  1.9904
 4791TIP3   OH214378   0.902   2.482   3.929  0.1434 -0.8184  1.2472
 4791TIP3    H114379   0.895   2.558   3.987  1.0618 -0.2505  0.6455
 4791TIP3    H214380   0.893   2.407   3.987  2.5274 -0.2964  2.4078
 4792TIP3   OH214381   4.634   3.166   2.957  0.1027 -0.0962  0.7678
 4792TIP3    H114382   4.694   3.139   2.887 -0.2582  0.1699  0.3556
 4792TIP3    H214383   4.563   3.211   2.912  0.1045  0.4973  1.3511
 4793TIP3   OH214384   1.764   2.239   4.672  0.4207 -0.1883  0.2338
 4793TIP3    H114385   1.707   2.232   4.748 -0.6808  1.7321 -0.3384
 4793TIP3    H214386   1.780   2.148   4.646 -0.9017 -0.8342  1.4895
 4794TIP3   OH214387   5.703   2.121   1.081  0.2442  0.5778  0.5929
 4794TIP3    H114388   5.764   2.127   1.008 -0.4004 -0.4436 -0.0520
 4794TIP3    H214389   5.702   2.209   1.119 -0.1273  1.4144 -1.2202
 4795TIP3   OH214390   4.027   5.267   2.667  0.0909  0.3439 -0.2076
 4795TIP3    H114391   4.119   5.252   2.690  0.4628  3.1958  0.6036
 4795TIP3    H214392   3.978   5.204   2.719  1.4922  0.4992  1.3796
 4796TIP3   OH214393   3.087   3.552   1.369  0.4827  0.1206 -0.3176
 4796TIP3    H114394   3.001   3.555   1.411  0.9165 -0.7718  0.6869
 4796TIP3    H214395   3.080   3.612   1.296 -0.5307  1.2064  0.6286
 4797TIP3   OH214396   4.382   0.738   3.781  0.0836 -0.2988 -0.4105
 4797TIP3    H114397   4.437   0.682   3.725  1.4468  0.7529 -0.1621
 4797TIP3    H214398   4.425   0.823   3.780 -0.0825 -0.1322  1.9309
 4798TIP3   OH214399   1.346   5.722   0.270  0.7444 -0.0690 -0.6455
 4798TIP3    H114400   1.314   5.638   0.237  0.0556 -0.3433  0.6404
 4798TIP3    H214401   1.307   5.787   0.211  0.1362 -0.5815 -0.8205
 4799TIP3   OH214402   0.170   2.921   3.312  0.0174 -0.3185 -0.0483
 4799TIP3    H114403   0.239   2.977   3.277  0.4918 -0.3071  0.8533
 4799TIP3    H214404   0.181   2.926   3.407 -0.4435 -1.3021  0.0747
 4800TIP3   OH214405   0.718   3.987   3.836 -0.0960 -0.0592  0.2270
 4800TIP3    H114406   0.758   4.048   3.774  0.7256 -1.9599 -1.2318
 4800TIP3    H214407   0.638   4.030   3.864  0.7041  1.8960 -0.3198
 4801TIP3   OH214408   2.789   0.442   3.332  0.1517 -0.1029 -0.0112
 4801TIP3    H114409   2.748   0.412   3.251 -0.5642  0.5423  0.0950
 4801TIP3    H214410   2.877   0.470   3.306  0.8647 -2.2694 -0.1004
 4802TIP3   OH214411   3.510   2.810   4.092  0.2108  0.1892 -0.2601
 4802TIP3    H114412   3.498   2.904   4.084  0.6178  0.2436 -0.2611
 4802TIP3    H214413   3.477   2.774   4.010  0.8441  0.4088 -0.6160
 4803TIP3   OH214414   6.226   2.685   1.024  0.1485  0.3266  0.5017
 4803TIP3    H114415   6.267   2.719   1.103  0.3747 -0.5506  0.7810
 4803TIP3    H214416   6.231   2.756   0.960  0.8953  0.6848  0.9560
 4804TIP3   OH214417   1.116   4.051   3.747 -0.5594 -0.0345 -0.0002
 4804TIP3    H114418   1.092   4.051   3.655  1.8668  1.5432 -0.7323
 4804TIP3    H214419   1.086   3.966   3.780 -0.7397 -0.9933 -2.4341
 4805TIP3   OH214420   4.212   5.733   0.434  0.1035  0.6806  0.3989
 4805TIP3    H114421   4.173   5.735   0.522 -0.8163  0.5838  0.0034
 4805TIP3    H214422   4.290   5.678   0.444  0.9898  2.0586  1.5237
 4806TIP3   OH214423   4.982   4.248   2.667 -0.1190  0.0052 -0.5371
 4806TIP3    H114424   4.887   4.242   2.662 -0.1268 -0.5528  0.1105
 4806TIP3    H214425   5.010   4.162   2.700  0.5887  0.2488 -0.4773
 4807TIP3   OH214426   3.314   2.856   3.516  0.4177  0.0639  0.2538
 4807TIP3    H114427   3.360   2.939   3.504  0.5393  0.3764  2.4614
 4807TIP3    H214428   3.383   2.790   3.514  0.5026  0.1607 -0.0401
 4808TIP3   OH214429   2.830   5.646   1.079  0.2112  0.0440 -0.3311
 4808TIP3    H114430   2.883   5.633   1.157  1.3883 -0.3768 -1.1718
 4808TIP3    H214431   2.879   5.708   1.025 -0.5336  0.2643 -0.7789
 4809TIP3   OH214432   0.828   1.126   0.611  0.2611 -0.5177 -0.8373
 4809TIP3    H114433   0.819   1.058   0.544  0.6166 -1.9578  0.5155
 4809TIP3    H214434   0.765   1.102   0.678 -1.0520  1.6738 -1.2223
 4810TIP3   OH214435   5.517   3.411   2.620  0.0959 -0.4966  0.1563
 4810TIP3    H114436   5.466   3.373   2.548  0.2074 -2.5119  1.0709
 4810TIP3    H214437   5.464   3.396   2.698 -0.7003  2.9387  0.4404
 4811TIP3   OH214438   4.137   3.153   2.274 -0.3780  0.4885 -0.2611
 4811TIP3    H114439   4.062   3.209   2.294  1.1638  2.6618 -0.2962
 4811TIP3    H214440   4.134   3.143   2.179 -0.9733 -0.0201 -0.2021
 4812TIP3   OH214441   2.898   2.388   1.270  0.1434  0.3199  0.1293
 4812TIP3    H114442   2.841   2.316   1.243 -0.1161 -0.2265  2.0043
 4812TIP3    H214443   2.871   2.461   1.215 -1.3734 -0.3177 -0.0261
 4813TIP3   OH214444   1.406   3.960   2.839  0.5759 -0.2136  0.1350
 4813TIP3    H114445   1.416   4.047   2.877 -0.2316  0.8744 -1.9807
 4813TIP3    H214446   1.347   3.914   2.898  1.1638  0.5778  1.3760
 4814TIP3   OH214447   4.794   3.518   0.624 -0.0156 -0.3063  0.2501
 4814TIP3    H114448   4.808   3.425   0.641  1.9725 -0.0940 -0.0365
 4814TIP3    H214449   4.824   3.562   0.704  0.7566  0.1700 -0.2870
 4815TIP3   OH214450   2.475   0.228   1.440  0.3720  0.2752 -0.2383
 4815TIP3    H114451   2.517   0.272   1.366  1.3958  0.0195  0.1665
 4815TIP3    H214452   2.475   0.294   1.510 -2.9912  1.4492 -1.1670
 4816TIP3   OH214453   5.416   1.257   1.552 -0.3831  0.3999  0.7137
 4816TIP3    H114454   5.497   1.294   1.587 -0.7360  0.3701  1.5644
 4816TIP3    H214455   5.396   1.313   1.476  0.6986  0.0890  0.1718
 4817TIP3   OH214456   1.608   5.658   4.382 -0.1543 -0.7973  0.7551
 4817TIP3    H114457   1.648   5.623   4.303 -0.8253 -0.1144  0.0957
 4817TIP3    H214458   1.558   5.734   4.353 -0.9427 -0.9121  1.7291
 4818TIP3   OH214459   5.387   0.997   1.529  0.5351  0.2445 -0.3706
 4818TIP3    H114460   5.444   0.973   1.456 -1.9967  0.4301 -2.5744
 4818TIP3    H214461   5.398   1.092   1.538  0.9308  0.2061 -0.4167
 4819TIP3   OH214462   3.246   1.738   0.514 -0.2813 -0.7072  0.1452
 4819TIP3    H114463   3.262   1.794   0.590  0.3749 -3.0474  1.8382
 4819TIP3    H214464   3.324   1.747   0.461 -0.0734 -0.2273  0.5201
 4820TIP3   OH214465   0.621   2.822   3.583 -0.0513  0.2638  0.0467
 4820TIP3    H114466   0.611   2.862   3.497 -0.0295  0.5574  0.1793
 4820TIP3    H214467   0.678   2.747   3.569 -1.4385 -0.7352 -0.5210
 4821TIP3   OH214468   2.613   3.525   0.156 -0.0898 -0.1445  0.2781
 4821TIP3    H114469   2.645   3.538   0.067 -0.3854 -0.5530  0.1085
 4821TIP3    H214470   2.518   3.538   0.149 -0.0130  0.6619  0.6976
 4822TIP3   OH214471   0.255   4.365   1.744  0.2913  0.1319  0.2766
 4822TIP3    H114472   0.192   4.313   1.694  1.8999 -2.0750  0.3825
 4822TIP3    H214473   0.228   4.353   1.836 -0.0288  0.4784  0.2305
 4823TIP3   OH214474   3.821   4.076   0.131 -0.9408  0.2650 -0.5259
 4823TIP3    H114475   3.774   4.155   0.105 -1.6052 -0.0073 -0.1915
 4823TIP3    H214476   3.913   4.096   0.117 -1.0684  1.2658  0.0420
 4824TIP3   OH214477   3.782   4.393   1.991  0.3573 -0.4446 -0.3275
 4824TIP3    H114478   3.799   4.458   2.059  0.2709 -0.2292 -0.5082
 4824TIP3    H214479   3.688   4.373   2.000  0.5145 -1.0006  0.1224
 4825TIP3   OH214480   5.989   5.138   1.344  0.0255 -0.4248  0.5235
 4825TIP3    H114481   6.018   5.047   1.347 -1.5768 -1.1609 -2.1214
 4825TIP3    H214482   6.012   5.167   1.255 -0.4346  1.4012  0.9677
 4826TIP3   OH214483   4.662   3.359   0.329  0.1114  0.1778  0.0427
 4826TIP3    H114484   4.574   3.364   0.290 -1.0080  1.2235  2.5117
 4826TIP3    H214485   4.679   3.448   0.361  0.0709 -0.9273  3.5643
 4827TIP3   OH214486   1.300   5.996   4.792 -0.6407 -0.0760 -0.3059
 4827TIP3    H114487   1.335   5.907   4.793  1.1285  0.5903  0.7448
 4827TIP3    H214488   1.353   6.041   4.727 -1.8979  0.1112 -1.2410
 4828TIP3   OH214489   0.685   0.176   0.726 -0.5277  0.5856 -0.0024
 4828TIP3    H114490   0.770   0.185   0.769 -0.7372  0.4670  0.4510
 4828TIP3    H214491   0.704   0.185   0.633 -0.0852  1.0211  0.1251
 4829TIP3   OH214492   2.710   5.626   3.503  0.0199 -0.2654 -0.2080
 4829TIP3    H114493   2.752   5.620   3.418  1.9893 -2.4122  0.8145
 4829TIP3    H214494   2.638   5.563   3.499  1.4044 -1.9552  0.3218
 4830TIP3   OH214495   0.377   0.839   2.746  0.0797  0.4206 -0.0121
 4830TIP3    H114496   0.388   0.774   2.815  0.4747 -0.9025 -1.2742
 4830TIP3    H214497   0.284   0.834   2.723  0.2966 -0.4265 -0.7661
 4831TIP3   OH214498   2.574   4.786   3.135  0.4546  0.0087  0.3350
 4831TIP3    H114499   2.517   4.758   3.063  0.8939  0.8263 -0.3337
 4831TIP3    H214500   2.523   4.766   3.214  0.5280 -2.2032 -0.1151
 4832TIP3   OH214501   3.646   4.506   0.512 -0.6339 -0.3007 -0.0602
 4832TIP3    H114502   3.693   4.587   0.491 -2.7963  0.6418 -1.7568
 4832TIP3    H214503   3.683   4.440   0.453  0.9554 -0.5232  1.1408
 4833TIP3   OH214504   5.685   4.154   3.665 -0.3115  0.0208  0.1915
 4833TIP3    H114505   5.646   4.093   3.729  1.1506 -0.8957  0.2471
 4833TIP3    H214506   5.616   4.167   3.600 -1.2187 -0.4077  1.0367
 4834TIP3   OH214507   4.707   1.424   2.202 -0.3818 -0.1161  0.3540
 4834TIP3    H114508   4.776   1.480   2.164  1.3384 -1.4697  1.3570
 4834TIP3    H214509   4.728   1.336   2.170 -0.7160 -0.7890  1.9374
 4835TIP3   OH214510   4.141   0.689   2.009 -0.6817  0.2996 -0.0120
 4835TIP3    H114511   4.071   0.738   1.965  0.4624  0.0498 -2.2270
 4835TIP3    H214512   4.222   0.730   1.978  0.2032 -0.0274  1.7561
 4836TIP3   OH214513   3.288   1.276   2.845 -0.2418  0.1990  0.1706
 4836TIP3    H114514   3.247   1.359   2.871  0.0477  0.6535 -0.7791
 4836TIP3    H214515   3.216   1.224   2.809 -0.1684  0.6341 -0.6301
 4837TIP3   OH214516   1.444   3.639   2.099 -0.5046 -0.5577 -0.1230
 4837TIP3    H114517   1.506   3.711   2.089 -0.8113 -0.1855  0.5769
 4837TIP3    H214518   1.385   3.648   2.023 -0.6082  0.0033  0.0196
 4838TIP3   OH214519   0.457   4.925   0.034 -0.0215 -0.5175 -0.3055
 4838TIP3    H114520   0.438   4.976   0.112  1.4210 -2.5346  1.5000
 4838TIP3    H214521   0.374   4.883   0.012 -0.0648 -1.3199  1.2796
 4839TIP3   OH214522   0.791   3.352   2.540  0.2054  0.1109 -0.3528
 4839TIP3    H114523   0.878   3.344   2.581  0.1057 -0.0216 -0.1633
 4839TIP3    H214524   0.790   3.439   2.501 -0.0264  0.5936  0.7067
 4840TIP3   OH214525   3.089   5.081   4.659 -0.1975  0.2951  0.3048
 4840TIP3    H114526   3.147   5.141   4.612 -0.3551  0.9982  0.9874
 4840TIP3    H214527   3.106   4.996   4.620  3.0105  0.0185  1.9969
 4841TIP3   OH214528   4.111   4.668   0.187 -0.1582 -0.1748  0.1019
 4841TIP3    H114529   4.038   4.606   0.181 -1.6528  1.4241  1.2180
 4841TIP3    H214530   4.122   4.699   0.097  0.7486 -2.1280 -0.5267
 4842TIP3   OH214531   2.566   0.537   4.910  0.4922 -0.2190  0.6988
 4842TIP3    H114532   2.492   0.586   4.945 -1.0252 -1.4336 -0.6898
 4842TIP3    H214533   2.608   0.599   4.850 -0.3837 -0.0375  0.2555
 4843TIP3   OH214534   1.838   4.160   4.994 -1.0935 -0.2452 -0.4068
 4843TIP3    H114535   1.812   4.083   4.943  0.1561 -0.6286 -0.4936
 4843TIP3    H214536   1.804   4.234   4.944 -1.3133 -0.6880 -0.9240
 4844TIP3   OH214537   1.199   3.807   2.972  0.3121  0.2897  0.1764
 4844TIP3    H114538   1.117   3.832   2.931  0.1940 -2.8789 -1.9150
 4844TIP3    H214539   1.177   3.731   3.027  1.8564 -1.1364 -1.0606
 4845TIP3   OH214540   4.970   3.301   5.104  0.1589  0.3191 -0.0890
 4845TIP3    H114541   4.945   3.210   5.114 -1.4037  0.6244 -0.8813
 4845TIP3    H214542   5.034   3.317   5.174  1.7035 -1.7813 -0.9209
 4846TIP3   OH214543   1.823   1.629   4.057 -0.0146 -0.2951 -0.4610
 4846TIP3    H114544   1.890   1.649   3.991 -0.1664 -0.5120 -0.6807
 4846TIP3    H214545   1.873   1.602   4.134  0.1691  0.1520 -0.4204
 4847TIP3   OH214546   6.255   5.449   0.678  0.0065 -0.0140 -0.0929
 4847TIP3    H114547   6.326   5.397   0.641  0.3628  1.7627 -2.1484
 4847TIP3    H214548   6.299   5.527   0.712 -0.5904 -0.6078  2.2072
 4848TIP3   OH214549   5.248   5.474   3.212 -0.2886  0.4484 -0.1447
 4848TIP3    H114550   5.186   5.544   3.231 -1.6685 -0.7294 -0.1247
 4848TIP3    H214551   5.216   5.399   3.264  0.4790 -0.5228 -1.0267
 4849TIP3   OH214552   0.408   3.879   5.018  0.0996  0.0536  0.1547
 4849TIP3    H114553   0.502   3.879   5.000  0.0329  1.2812 -0.2358
 4849TIP3    H214554   0.397   3.945   5.086 -0.3314 -0.9944  1.1462
 4850TIP3   OH214555   3.992   0.879   3.425  0.6009 -1.1188  0.5502
 4850TIP3    H114556   3.949   0.893   3.510  1.5378 -2.2556  1.2380
 4850TIP3    H214557   4.029   0.791   3.430  2.2372 -0.5357 -0.3378
 4851TIP3   OH214558   0.963   2.739   3.329  0.0347 -0.5306 -0.0902
 4851TIP3    H114559   0.922   2.747   3.243  1.1443  0.9624 -0.5270
 4851TIP3    H214560   1.041   2.686   3.313  0.8433  0.6757 -0.2563
 4852TIP3   OH214561   4.971   3.306   2.138  0.1285  0.0598  0.3370
 4852TIP3    H114562   4.975   3.264   2.052  1.6591 -0.6177  0.7145
 4852TIP3    H214563   4.885   3.282   2.172  0.1914 -1.1320 -0.2861
 4853TIP3   OH214564   3.161   2.643   3.670 -0.2998  0.4528  0.1094
 4853TIP3    H114565   3.150   2.738   3.670 -0.5319  0.4307  0.8070
 4853TIP3    H214566   3.172   2.620   3.762 -1.6172 -0.3367  0.0994
 4854TIP3   OH214567   0.466   0.813   4.347 -0.2487 -0.0472 -0.0785
 4854TIP3    H114568   0.389   0.838   4.296  0.3689  0.3128 -0.8446
 4854TIP3    H214569   0.492   0.728   4.312 -0.2027 -0.0989  0.0781
 4855TIP3   OH214570   2.083   2.709   0.164 -0.0957 -0.6876  0.3013
 4855TIP3    H114571   2.070   2.624   0.205  1.1331 -0.7487  0.6160
 4855TIP3    H214572   2.020   2.767   0.206  0.7534 -0.8755  1.9109
 4856TIP3   OH214573   5.533   5.513   2.539  0.4036 -0.0316 -0.3010
 4856TIP3    H114574   5.626   5.516   2.561  0.6406 -0.5651 -1.1803
 4856TIP3    H214575   5.503   5.603   2.551  1.1489  0.2496 -0.4891
 4857TIP3   OH214576   3.803   1.876   0.987  0.2460 -0.3294 -0.1694
 4857TIP3    H114577   3.739   1.805   0.990 -0.5799  0.4273  0.6718
 4857TIP3    H214578   3.772   1.939   1.051  0.9901  0.7796 -0.8654
 4858TIP3   OH214579   1.845   1.790   1.913  0.0039  0.2212  0.4522
 4858TIP3    H114580   1.789   1.859   1.878 -0.2602 -0.7448 -1.1403
 4858TIP3    H214581   1.873   1.741   1.835 -0.1936 -1.7383  1.5749
 4859TIP3   OH214582   2.593   0.217   0.927  0.2650 -0.6063  0.5219
 4859TIP3    H114583   2.688   0.211   0.933  0.5867 -0.5452 -2.5560
 4859TIP3    H214584   2.561   0.129   0.949  1.0659 -0.7411  1.1581
 4860TIP3   OH214585   6.114   5.748   2.482 -0.0114  0.4387 -0.1324
 4860TIP3    H114586   6.177   5.815   2.507 -0.6902  0.3898  1.8887
 4860TIP3    H214587   6.040   5.796   2.446 -0.9311  0.9608  2.2420
 4861TIP3   OH214588   6.101   2.167   3.917  0.3599  0.1095 -0.6116
 4861TIP3    H114589   6.163   2.175   3.990  0.4718  1.7812 -0.8524
 4861TIP3    H214590   6.015   2.161   3.959  0.5167 -0.1743 -0.3243
 4862TIP3   OH214591   6.137   4.442   0.662  0.2495  0.2868  0.6400
 4862TIP3    H114592   6.156   4.416   0.752 -0.5795 -2.3184  0.1438
 4862TIP3    H214593   6.044   4.465   0.662  0.0398 -0.5221  0.3118
 4863TIP3   OH214594   4.734   3.391   4.098  0.4203 -0.4181 -0.2649
 4863TIP3    H114595   4.687   3.396   4.181 -0.1743 -0.9139 -0.5624
 4863TIP3    H214596   4.684   3.328   4.046  0.4332  0.3270 -1.2130
 4864TIP3   OH214597   2.769   3.653   4.986 -0.2137  0.2606 -0.3963
 4864TIP3    H114598   2.777   3.703   5.068 -0.6105  1.0260 -0.8174
 4864TIP3    H214599   2.676   3.658   4.964 -0.3356 -1.0159 -0.2377
 4865TIP3   OH214600   2.623   3.791   4.118  0.1107 -0.1706 -0.5681
 4865TIP3    H114601   2.609   3.849   4.192  1.0631  0.6732 -1.0110
 4865TIP3    H214602   2.718   3.775   4.117  0.1611  0.0859 -1.7664
 4866TIP3   OH214603   0.213   1.106   3.971 -0.0280 -0.2542  0.6764
 4866TIP3    H114604   0.219   1.085   3.877  0.5227  0.4314  0.5473
 4866TIP3    H214605   0.133   1.157   3.979 -0.2132 -0.5326  0.6266
 4867TIP3   OH214606   1.136   3.118   0.607  0.1060 -0.6004  0.3994
 4867TIP3    H114607   1.066   3.151   0.663  0.2208 -0.8361  0.6908
 4867TIP3    H214608   1.203   3.088   0.669  0.5679 -0.1502  0.1189
 4868TIP3   OH214609   2.696   3.819   1.031 -0.0432  0.0021 -0.5197
 4868TIP3    H114610   2.773   3.862   1.070  0.4698  0.1175 -1.6344
 4868TIP3    H214611   2.622   3.852   1.082  0.4875  1.0895 -0.4346
 4869TIP3   OH214612   6.187   1.120   2.513 -0.3171 -0.6076 -0.1859
 4869TIP3    H114613   6.250   1.054   2.483 -0.7517 -0.3255 -1.8202
 4869TIP3    H214614   6.217   1.202   2.474 -0.7051 -0.1445  0.4742
 4870TIP3   OH214615   3.671   0.421   4.757  0.6069  0.0093  0.1952
 4870TIP3    H114616   3.700   0.509   4.736  0.6723  0.3667  1.6700
 4870TIP3    H214617   3.577   0.422   4.740  0.7490  0.0850 -0.6264
 4871TIP3   OH214618   6.285   4.108   2.469  0.1719 -0.0334  0.5521
 4871TIP3    H114619   6.226   4.034   2.452 -0.4994  0.6248 -0.0536
 4871TIP3    H214620   6.259   4.174   2.405  2.5529 -0.2577 -0.7729
 4872TIP3   OH214621   3.476   2.387   2.356  0.1446  0.4879 -0.0824
 4872TIP3    H114622   3.462   2.309   2.301 -2.0484  0.1664  0.8255
 4872TIP3    H214623   3.408   2.448   2.328 -1.0391  0.3077  2.2076
 4873TIP3   OH214624   1.601   2.257   2.178  0.5117  0.1455 -0.8966
 4873TIP3    H114625   1.535   2.210   2.228  2.6268 -1.1447  0.8754
 4873TIP3    H214626   1.621   2.199   2.104 -0.9842  1.0184 -2.0553
 4874TIP3   OH214627   0.004   4.877   1.720 -0.3885  0.1659  0.0577
 4874TIP3    H114628   0.087   4.925   1.719 -0.3159  0.0788 -1.9410
 4874TIP3    H214629   0.024   4.796   1.766  0.4933  0.3846  0.0805
 4875TIP3   OH214630   0.472   5.426   4.664  0.5690 -0.2985 -0.0959
 4875TIP3    H114631   0.395   5.416   4.720  0.4103  0.1188 -0.2373
 4875TIP3    H214632   0.492   5.337   4.635 -0.0023 -0.3830 -0.2403
 4876TIP3   OH214633   1.884   1.771   3.134 -0.2763 -0.7395  0.6744
 4876TIP3    H114634   1.835   1.756   3.054 -0.9201 -0.5388  1.0264
 4876TIP3    H214635   1.961   1.820   3.106  0.0865 -1.6364  0.0205
 4877TIP3   OH214636   0.614   4.220   2.598 -0.4048 -0.3168  0.9791
 4877TIP3    H114637   0.538   4.162   2.605  0.4090 -1.3932  1.1008
 4877TIP3    H214638   0.683   4.175   2.647  0.3892  0.5311  0.6674
 4878TIP3   OH214639   1.302   3.537   3.732  0.3981 -0.6349  0.1491
 4878TIP3    H114640   1.214   3.575   3.741  0.1775 -0.6410 -1.5636
 4878TIP3    H214641   1.346   3.559   3.814 -1.5618 -1.6697  1.5849
 4879TIP3   OH214642   1.884   4.603   0.249  0.7341 -0.2051  0.0814
 4879TIP3    H114643   1.876   4.578   0.341  0.3601 -1.9069 -0.3961
 4879TIP3    H214644   1.803   4.651   0.230  0.1460 -1.1208  0.2539
 4880TIP3   OH214645   5.018   1.966   2.206  0.3570  0.9047  0.5800
 4880TIP3    H114646   5.030   1.929   2.119  2.6868 -1.5533  1.8012
 4880TIP3    H214647   4.952   1.910   2.247  1.9107 -0.3357  1.5229
 4881TIP3   OH214648   2.796   1.837   3.287 -0.2247  0.3689  0.0831
 4881TIP3    H114649   2.707   1.817   3.259  0.0046 -0.1711 -0.2821
 4881TIP3    H214650   2.786   1.900   3.358 -0.9134  0.0753  0.2489
 4882TIP3   OH214651   1.345   2.856   2.453 -0.3800 -0.4414  0.3845
 4882TIP3    H114652   1.353   2.913   2.529  0.3037 -2.5120  1.9608
 4882TIP3    H214653   1.263   2.808   2.467 -1.8426  1.2403 -1.7712
 4883TIP3   OH214654   1.551   2.033   4.758  0.1611 -0.0346 -0.1312
 4883TIP3    H114655   1.501   2.024   4.677 -0.5725 -0.3439  0.3441
 4883TIP3    H214656   1.607   1.956   4.761  0.3426  0.0837 -0.4450
 4884TIP3   OH214657   2.514   2.093   3.114 -0.2023 -0.2861  0.2282
 4884TIP3    H114658   2.517   2.002   3.082 -0.0162  0.1786 -1.1303
 4884TIP3    H214659   2.584   2.137   3.066 -0.7839  0.7537  0.3136
 4885TIP3   OH214660   6.368   2.061   3.106  0.0492 -0.1401 -0.4865
 4885TIP3    H114661   6.343   2.151   3.084 -0.9537  0.1431  1.5715
 4885TIP3    H214662   6.292   2.024   3.150  0.1038 -2.3488 -2.0603
 4886TIP3   OH214663   4.696   2.052   2.163 -0.2029  0.0048  0.2417
 4886TIP3    H114664   4.716   1.960   2.143 -0.6952 -0.0345 -0.0702
 4886TIP3    H214665   4.776   2.085   2.204  0.6995 -0.0141 -1.4357
 4887TIP3   OH214666   3.850   0.661   0.909 -0.7378 -0.0535 -0.4679
 4887TIP3    H114667   3.780   0.706   0.862 -2.1103 -3.2888 -1.7929
 4887TIP3    H214668   3.805   0.610   0.976  0.6555 -0.1016  0.4849
 4888TIP3   OH214669   4.067   3.655   2.996 -0.0201  0.7159 -0.1950
 4888TIP3    H114670   4.077   3.743   2.960  2.2583  0.1520 -1.0886
 4888TIP3    H214671   4.149   3.611   2.976 -0.6283 -1.2532  1.3074
 4889TIP3   OH214672   1.694   1.149   0.967  0.4612 -0.2658  0.0405
 4889TIP3    H114673   1.695   1.148   0.871  1.5353 -0.1585  0.0317
 4889TIP3    H214674   1.702   1.056   0.991  1.5529 -0.2072 -0.0067
 4890TIP3   OH214675   5.720   4.280   3.908  0.0904 -0.0661 -0.0003
 4890TIP3    H114676   5.782   4.223   3.955  0.1535 -0.5182 -0.6183
 4890TIP3    H214677   5.717   4.243   3.820  0.1135  0.8829 -0.4058
 4891TIP3   OH214678   6.176   0.325   0.396 -0.3842 -0.0271 -0.2248
 4891TIP3    H114679   6.094   0.350   0.439  0.0799  0.8556  0.1729
 4891TIP3    H214680   6.217   0.408   0.372  0.5035 -0.4509 -0.2129
 4892TIP3   OH214681   1.231   2.731   1.987  0.3767 -0.0529  0.0935
 4892TIP3    H114682   1.289   2.774   2.051  1.1278 -0.2817 -0.4172
 4892TIP3    H214683   1.165   2.688   2.040  0.6560  0.2496  0.6974
 4893TIP3   OH214684   0.996   4.085   4.250  0.3702  0.0002  0.0862
 4893TIP3    H114685   1.022   4.027   4.322  1.6212 -0.2084 -0.4919
 4893TIP3    H214686   1.072   4.085   4.192 -1.1610 -1.0990 -2.0528
 4894TIP3   OH214687   5.710   2.922   3.901 -0.4321  0.0946 -0.2860
 4894TIP3    H114688   5.627   2.907   3.947  0.2502 -0.0924  0.9397
 4894TIP3    H214689   5.758   2.840   3.911  0.0465  0.3238 -0.6614
 4895TIP3   OH214690   2.441   2.470   4.785  0.5410 -0.8413  0.3269
 4895TIP3    H114691   2.363   2.426   4.750 -0.5243  1.6761 -0.7450
 4895TIP3    H214692   2.459   2.540   4.722  1.9168  0.4656  2.0774
 4896TIP3   OH214693   4.922   5.043   4.335  0.0177 -0.0101 -0.0718
 4896TIP3    H114694   4.994   5.081   4.284 -0.1181  0.6469  0.2177
 4896TIP3    H214695   4.961   4.967   4.378  0.9148  1.0627  1.1056
 4897TIP3   OH214696   1.921   2.446   4.609 -0.0335 -0.4195  0.1389
 4897TIP3    H114697   1.997   2.458   4.665  0.7545 -1.8440 -0.5916
 4897TIP3    H214698   1.877   2.368   4.643 -1.9493  1.0910  1.3579
 4898TIP3   OH214699   0.348   3.163   2.721  0.2799 -0.7488 -0.5158
 4898TIP3    H114700   0.432   3.207   2.709 -0.3692  0.4221 -0.9283
 4898TIP3    H214701   0.310   3.204   2.798 -0.4354 -0.4022 -1.0406
 4899TIP3   OH214702   5.017   3.469   3.824 -0.4342  0.2538 -0.2612
 4899TIP3    H114703   5.010   3.449   3.917 -1.7548 -1.2684 -0.6250
 4899TIP3    H214704   5.111   3.471   3.806 -0.1728  0.2637  1.0381
 4900TIP3   OH214705   6.282   0.415   2.757 -0.4382 -0.6336 -0.1579
 4900TIP3    H114706   6.190   0.396   2.742 -0.5727 -1.2416  1.3030
 4900TIP3    H214707   6.290   0.427   2.852  0.6305  1.3950 -0.4346
 4901TIP3   OH214708   5.877   2.719   3.977 -0.2012  0.4200  0.0056
 4901TIP3    H114709   5.906   2.638   3.936 -1.0002  0.2111 -0.1500
 4901TIP3    H214710   5.898   2.708   4.070 -0.7931 -0.1827  0.0696
 4902TIP3   OH214711   3.596   4.696   1.900  0.1209 -0.2706  0.4161
 4902TIP3    H114712   3.546   4.765   1.856 -0.7789 -1.7567 -0.9984
 4902TIP3    H214713   3.608   4.629   1.833  1.4387 -1.2721  1.5945
 4903TIP3   OH214714   1.696   1.501   3.592 -0.3365  0.1974 -0.0339
 4903TIP3    H114715   1.604   1.478   3.598 -0.3255 -1.0436 -2.9014
 4903TIP3    H214716   1.699   1.571   3.526  0.7697  0.1183 -0.0892
 4904TIP3   OH214717   4.685   4.477   3.571  0.0574  0.4256  0.0371
 4904TIP3    H114718   4.648   4.438   3.650  0.6663  0.3401  0.2914
 4904TIP3    H214719   4.651   4.423   3.499 -1.3115  1.1168  0.1321
 4905TIP3   OH214720   0.199   2.558   4.441  0.6195 -0.0567 -0.3352
 4905TIP3    H114721   0.289   2.590   4.438  0.9093 -0.9048 -2.4693
 4905TIP3    H214722   0.206   2.464   4.424 -0.7282  0.1532 -2.5059
 4906TIP3   OH214723   1.601   0.417   0.989  0.2710  0.0115  0.6763
 4906TIP3    H114724   1.580   0.475   1.062 -1.1602 -0.7538  0.9069
 4906TIP3    H214725   1.647   0.343   1.028 -0.6405 -0.4780  0.8552
 4907TIP3   OH214726   2.624   0.559   3.616 -0.1203  0.2934 -0.2391
 4907TIP3    H114727   2.693   0.553   3.550 -0.1905  0.5151 -0.3311
 4907TIP3    H214728   2.546   0.525   3.572 -0.0986  0.1489 -0.1699
 4908TIP3   OH214729   5.280   3.742   2.996  0.5717 -0.0783 -0.1172
 4908TIP3    H114730   5.322   3.672   3.047 -0.5933  0.5429  1.7861
 4908TIP3    H214731   5.222   3.696   2.935  0.1324 -0.8085  0.8229
 4909TIP3   OH214732   3.185   3.859   4.436 -0.0898 -0.2907 -0.1488
 4909TIP3    H114733   3.244   3.934   4.442  0.3275 -0.6756  0.7040
 4909TIP3    H214734   3.220   3.808   4.362  0.4045 -0.3038  0.0877
 4910TIP3   OH214735   3.609   0.143   0.686  0.3787 -0.4091  0.0283
 4910TIP3    H114736   3.537   0.081   0.698 -0.7672  0.8576 -0.1352
 4910TIP3    H214737   3.626   0.177   0.774 -1.8725  2.1195 -0.3875
 4911TIP3   OH214738   1.449   0.885   4.266  0.2569 -0.4102  0.0793
 4911TIP3    H114739   1.358   0.910   4.252 -0.1002 -0.9153  1.3057
 4911TIP3    H214740   1.475   0.934   4.344  0.4432 -1.6380  0.8145
 4912TIP3   OH214741   2.292   5.550   3.815  0.2611 -0.0385 -0.1780
 4912TIP3    H114742   2.237   5.499   3.755 -0.1142 -0.1261  0.2311
 4912TIP3    H214743   2.380   5.515   3.803  0.3463  0.5402 -1.3147
 4913TIP3   OH214744   5.050   5.044   0.343 -0.0037 -0.2043  0.3749
 4913TIP3    H114745   4.962   5.026   0.310  0.2671  2.7973 -2.4697
 4913TIP3    H214746   5.044   5.132   0.380  1.8260  0.2036 -0.1978
 4914TIP3   OH214747   1.331   0.152   4.425 -0.0694 -0.2614 -0.2946
 4914TIP3    H114748   1.374   0.208   4.489 -0.1986 -0.0801 -0.3665
 4914TIP3    H214749   1.401   0.099   4.388  0.4183  1.3357 -1.7880
 4915TIP3   OH214750   0.144   2.700   1.914  0.5722  0.5547  0.3551
 4915TIP3    H114751   0.166   2.751   1.837 -1.5447  0.2375 -0.5112
 4915TIP3    H214752   0.070   2.745   1.953  0.4182 -0.3317  1.1394
 4916TIP3   OH214753   1.313   1.376   2.455  0.1268  0.2150 -0.7083
 4916TIP3    H114754   1.356   1.458   2.427 -0.2025  0.8308  0.5379
 4916TIP3    H214755   1.247   1.404   2.518  0.3112 -1.0696  0.0726
 4917TIP3   OH214756   3.361   4.974   3.062 -0.1271  0.0708  0.4213
 4917TIP3    H114757   3.286   4.916   3.074  0.5790 -0.8290  0.6636
 4917TIP3    H214758   3.437   4.915   3.063  0.4713  0.6732 -1.7953
 4918TIP3   OH214759   1.087   5.919   0.470 -0.4040 -0.8548  0.4759
 4918TIP3    H114760   1.182   5.921   0.457 -0.2133 -1.1314  1.6851
 4918TIP3    H214761   1.059   5.838   0.427  0.3864 -2.4547  2.7724
 4919TIP3   OH214762   3.563   0.429   1.705  0.3407  0.5724  0.2036
 4919TIP3    H114763   3.616   0.494   1.659 -0.0366  0.1360 -0.8897
 4919TIP3    H214764   3.495   0.480   1.749  1.6889  1.1511  1.7416
 4920TIP3   OH214765   5.823   2.725   2.733  0.3824  0.1473 -0.4174
 4920TIP3    H114766   5.896   2.692   2.785  0.5479  2.1097  0.6674
 4920TIP3    H214767   5.749   2.729   2.794  0.2437  1.2824 -0.6396
 4921TIP3   OH214768   1.286   2.276   1.706 -0.2076 -0.5015  0.0681
 4921TIP3    H114769   1.275   2.308   1.795  1.6286  0.0410  0.1298
 4921TIP3    H214770   1.221   2.206   1.698 -1.5891  0.5613  1.2386
 4922TIP3   OH214771   6.312   5.079   1.442 -0.1572  0.8502  0.4259
 4922TIP3    H114772   6.276   5.166   1.423  0.7609  1.1659  0.0696
 4922TIP3    H214773   6.405   5.094   1.457  0.1114 -0.1408 -0.1479
 4923TIP3   OH214774   4.468   5.130   3.567  0.5908 -0.2920 -0.4698
 4923TIP3    H114775   4.457   5.212   3.519  0.8150 -0.6110 -1.0664
 4923TIP3    H214776   4.450   5.062   3.503  1.5686 -0.7376 -0.2839
 4924TIP3   OH214777   1.038   5.666   0.843  0.7851  0.2579 -0.1970
 4924TIP3    H114778   1.092   5.741   0.870  0.9731  0.3918 -0.9099
 4924TIP3    H214779   1.098   5.610   0.795  0.9120 -0.9223  1.2909
 4925TIP3   OH214780   4.540   4.541   3.218 -0.5158  0.0644 -0.6350
 4925TIP3    H114781   4.603   4.588   3.272 -1.5834  1.8880 -0.8962
 4925TIP3    H214782   4.530   4.456   3.261  1.3050  0.1185 -0.0124
 4926TIP3   OH214783   4.758   0.665   1.389 -0.4184 -0.3574 -0.3144
 4926TIP3    H114784   4.795   0.715   1.461  2.7200 -2.0324 -0.6001
 4926TIP3    H214785   4.751   0.728   1.317  0.5308  0.3769  0.2127
 4927TIP3   OH214786   3.420   4.964   0.394  0.2063 -0.1894  0.4450
 4927TIP3    H114787   3.443   4.938   0.305 -0.0518 -1.4663  0.7397
 4927TIP3    H214788   3.490   5.024   0.420  1.3211 -1.2678  0.0536
 4928TIP3   OH214789   0.737   4.186   0.102 -0.5690 -0.6244  0.1837
 4928TIP3    H114790   0.709   4.261   0.049  0.9779 -0.8345 -1.0211
 4928TIP3    H214791   0.701   4.203   0.189 -1.2118  0.9304 -0.3470
 4929TIP3   OH214792   4.133   0.808   1.499  0.1876  0.0167 -0.3548
 4929TIP3    H114793   4.091   0.888   1.468  0.5349  0.3820  0.0990
 4929TIP3    H214794   4.217   0.837   1.535  0.1234 -0.4898  0.2199
 4930TIP3   OH214795   2.450   2.407   0.891  0.2073 -0.1877  0.6544
 4930TIP3    H114796   2.489   2.406   0.978 -0.2400  0.8231  0.8781
 4930TIP3    H214797   2.362   2.370   0.903 -0.0509  0.4427  0.7384
 4931TIP3   OH214798   0.463   2.224   0.308 -0.4225  0.3843 -0.4394
 4931TIP3    H114799   0.445   2.243   0.401  1.1129 -0.4192  0.0528
 4931TIP3    H214800   0.531   2.287   0.284  1.7113 -1.6134  0.0251
 4932TIP3   OH214801   5.063   4.214   3.526 -0.5077  0.3674  0.6557
 4932TIP3    H114802   4.990   4.155   3.547  0.0226  0.1988  2.1505
 4932TIP3    H214803   5.059   4.280   3.595  0.3933  0.6963  0.3935
 4933TIP3   OH214804   5.527   4.580   4.220  0.4813 -0.2217 -0.4433
 4933TIP3    H114805   5.511   4.570   4.314  2.2110  0.3192 -0.0532
 4933TIP3    H214806   5.456   4.531   4.178  0.2091 -1.2778  1.1540
 4934TIP3   OH214807   5.393   0.847   2.517  0.7901  0.7359 -0.0143
 4934TIP3    H114808   5.307   0.818   2.485  0.7125  1.1450 -0.1868
 4934TIP3    H214809   5.420   0.779   2.579 -0.5685  1.5732  1.5853
 4935TIP3   OH214810   2.001   0.184   0.965  0.2593 -0.4218 -0.1840
 4935TIP3    H114811   2.026   0.125   1.035  0.0362 -0.8502 -0.4585
 4935TIP3    H214812   2.073   0.247   0.959 -0.8391  1.2056  2.1176
 4936TIP3   OH214813   0.168   1.086   5.200  0.1758 -0.3864  0.0296
 4936TIP3    H114814   0.182   1.110   5.108  0.7056  0.9351  0.4355
 4936TIP3    H214815   0.247   1.035   5.223 -0.2441 -1.2590 -0.4015
 4937TIP3   OH214816   0.653   2.476   2.912  0.5014  0.2912  0.0250
 4937TIP3    H114817   0.646   2.500   2.819 -1.4720  0.4532  0.1600
 4937TIP3    H214818   0.564   2.486   2.945  1.4626  1.8969  2.3664
 4938TIP3   OH214819   1.423   0.193   2.192  0.3048  0.3533 -0.4945
 4938TIP3    H114820   1.447   0.275   2.236  1.0387  0.1979 -0.5894
 4938TIP3    H214821   1.450   0.207   2.101 -1.4170  0.7653 -0.9681
 4939TIP3   OH214822   0.716   3.763   4.882  0.8082  0.2932 -0.8225
 4939TIP3    H114823   0.730   3.741   4.974 -1.2197  1.1574 -0.2331
 4939TIP3    H214824   0.719   3.679   4.836 -0.4575 -0.4797  0.4101
 4940TIP3   OH214825   2.540   2.433   1.588 -0.0391  0.0168 -0.2933
 4940TIP3    H114826   2.547   2.353   1.537  2.0607 -0.5809  0.8248
 4940TIP3    H214827   2.623   2.478   1.573 -1.3178  2.2400 -1.2295
 4941TIP3   OH214828   6.146   3.276   0.126 -0.3175  0.4929 -0.2144
 4941TIP3    H114829   6.134   3.368   0.148 -1.3722  0.5215 -0.8435
 4941TIP3    H214830   6.095   3.228   0.191  0.5781  0.3206  0.3730
 4942TIP3   OH214831   5.620   3.878   4.291 -0.3327  0.5533  0.5196
 4942TIP3    H114832   5.700   3.920   4.260 -0.6776  0.2011 -0.9047
 4942TIP3    H214833   5.638   3.857   4.383  1.0196  0.9310  0.3585
 4943TIP3   OH214834   2.064   1.662   5.050  0.4683 -0.6603  0.1902
 4943TIP3    H114835   2.041   1.572   5.071  0.0458 -0.9098 -1.2249
 4943TIP3    H214836   2.116   1.655   4.970 -0.1193  0.3901 -0.3029
 4944TIP3   OH214837   0.307   3.348   0.824  0.2494  0.1922  0.2645
 4944TIP3    H114838   0.254   3.423   0.853  0.1630  0.7755 -1.2861
 4944TIP3    H214839   0.330   3.369   0.734  0.5707 -1.4816 -0.0742
 4945TIP3   OH214840   4.878   4.575   0.110  0.2811 -0.4000 -0.0592
 4945TIP3    H114841   4.847   4.640   0.172  1.7266 -0.0482  0.3424
 4945TIP3    H214842   4.867   4.615   0.024  0.1717 -0.0619  0.1133
 4946TIP3   OH214843   4.312   5.701   5.115 -0.0823 -0.0930  0.2525
 4946TIP3    H114844   4.405   5.680   5.125 -0.3144 -2.5147 -1.6999
 4946TIP3    H214845   4.274   5.680   5.200  0.8222 -1.4032  0.3652
 4947TIP3   OH214846   2.024   0.425   2.627  0.0894  0.3735  0.1845
 4947TIP3    H114847   1.947   0.478   2.607 -0.1334  0.4116  1.1169
 4947TIP3    H214848   1.990   0.336   2.639  0.4169  0.0658 -1.0279
 4948TIP3   OH214849   0.141   2.027   2.833  0.4017  0.1221  0.2595
 4948TIP3    H114850   0.128   2.109   2.786  1.1848  0.4299  0.5659
 4948TIP3    H214851   0.090   2.036   2.913 -0.2868 -0.0841 -0.1456
 4949TIP3   OH214852   1.701   0.363   0.179  0.2869  0.5183 -0.3197
 4949TIP3    H114853   1.752   0.442   0.163  0.7724  0.3424  0.3371
 4949TIP3    H214854   1.752   0.313   0.243  0.0537 -0.3922 -0.8311
 4950TIP3   OH214855   2.107   1.244   4.204  0.0581  0.5248 -0.0718
 4950TIP3    H114856   2.162   1.269   4.130 -0.8325  1.7117 -0.3613
 4950TIP3    H214857   2.055   1.322   4.223 -1.8606 -0.6654 -0.1385
 4951TIP3   OH214858   1.762   5.704   0.393 -0.1649  0.2959 -0.1020
 4951TIP3    H114859   1.754   5.730   0.301 -1.0436  0.1802 -0.0609
 4951TIP3    H214860   1.703   5.630   0.403 -0.3642  0.5455  0.6526
 4952TIP3   OH214861   5.221   0.477   2.457 -0.0145  0.0428  0.6874
 4952TIP3    H114862   5.255   0.531   2.386  0.9052 -1.0510  0.2494
 4952TIP3    H214863   5.280   0.494   2.531 -0.3879  0.4508  0.8970
 4953TIP3   OH214864   5.911   3.174   1.921 -0.2788  0.1960  0.3444
 4953TIP3    H114865   5.883   3.129   1.841 -1.3973 -0.5891  1.1429
 4953TIP3    H214866   5.921   3.265   1.896 -1.8966  0.1942 -0.4114
 4954TIP3   OH214867   3.780   5.431   1.889  0.1915  0.3480  0.2728
 4954TIP3    H114868   3.709   5.411   1.828  0.7847 -1.3257  0.0787
 4954TIP3    H214869   3.737   5.474   1.963 -1.0743 -0.8125  0.2422
 4955TIP3   OH214870   1.984   5.776   3.995  0.0639  0.1705 -0.0880
 4955TIP3    H114871   1.949   5.764   4.083 -1.2305  0.4348 -0.5341
 4955TIP3    H214872   1.933   5.849   3.958  0.5169  0.0121 -1.0782
 4956TIP3   OH214873   1.845   1.495   4.595 -0.0508  0.1186 -0.0109
 4956TIP3    H114874   1.839   1.583   4.560  1.3042  0.3663  0.3419
 4956TIP3    H214875   1.818   1.438   4.523 -1.5175  0.8253 -0.0532
 4957TIP3   OH214876   4.960   5.570   3.349 -1.0560  0.2478  0.7512
 4957TIP3    H114877   4.996   5.481   3.344  1.7985  1.2062  2.2901
 4957TIP3    H214878   4.873   5.558   3.387 -0.9644 -1.9207  0.4258
 4958TIP3   OH214879   3.740   4.018   0.378  0.0730  0.4551 -0.6856
 4958TIP3    H114880   3.761   4.023   0.284 -0.4309 -0.4265 -0.8500
 4958TIP3    H214881   3.748   3.925   0.400  0.0284  0.6341  0.1126
 4959TIP3   OH214882   4.596   5.026   4.777  0.1388  0.5884 -0.4899
 4959TIP3    H114883   4.644   5.094   4.730 -0.0458  1.6459  0.7940
 4959TIP3    H214884   4.557   5.071   4.851  0.1228 -0.9531  0.4870
 4960TIP3   OH214885   1.874   3.272   3.618  0.0609  0.0703 -0.2694
 4960TIP3    H114886   1.912   3.318   3.543  1.3485  0.0441  0.3370
 4960TIP3    H214887   1.783   3.299   3.619  0.3493  1.1490 -1.0361
 4961TIP3   OH214888   2.252   3.093   1.597  0.2076  0.3522 -0.2427
 4961TIP3    H114889   2.274   3.039   1.672  0.7897  1.9544  0.7845
 4961TIP3    H214890   2.334   3.099   1.547  0.4335  1.1301  0.2096
 4962TIP3   OH214891   1.505   4.601   3.778 -0.4624  0.3198  0.0817
 4962TIP3    H114892   1.457   4.597   3.695 -0.2272  1.3001 -0.1136
 4962TIP3    H214893   1.537   4.691   3.782  0.4900 -0.0408  0.7032
 4963TIP3   OH214894   0.939   4.162   1.890 -0.7081  0.6253 -0.0290
 4963TIP3    H114895   1.018   4.215   1.876 -1.5677  1.3004 -3.4782
 4963TIP3    H214896   0.965   4.095   1.953  2.6636  0.7856 -1.0665
 4964TIP3   OH214897   1.677   2.785   5.128 -0.3892 -0.1932  0.8022
 4964TIP3    H114898   1.628   2.794   5.210 -3.4534  1.0083 -0.9874
 4964TIP3    H214899   1.711   2.873   5.111  0.2923 -0.4545  0.7884
 4965TIP3   OH214900   4.324   5.996   0.660  0.1738  0.7449  0.0947
 4965TIP3    H114901   4.372   5.914   0.653  3.1193  2.3119  0.4843
 4965TIP3    H214902   4.263   5.995   0.586  1.4108 -1.0112 -0.9665
 4966TIP3   OH214903   3.778   5.115   3.353  0.5084 -0.4711 -0.5153
 4966TIP3    H114904   3.785   5.042   3.292 -1.1789 -1.9885  0.9519
 4966TIP3    H214905   3.783   5.074   3.440 -0.2956  1.1599  0.3551
 4967TIP3   OH214906   1.717   4.654   4.818 -0.0462  0.3058 -0.1624
 4967TIP3    H114907   1.708   4.683   4.909  0.1159 -0.9845  0.2892
 4967TIP3    H214908   1.629   4.659   4.782  0.0139  1.5202 -0.1644
 4968TIP3   OH214909   0.353   3.262   2.460  0.8316 -0.0263  0.2514
 4968TIP3    H114910   0.365   3.221   2.546 -2.0902  0.0826  0.8075
 4968TIP3    H214911   0.347   3.355   2.478  1.2575  0.1016 -0.2304
 4969TIP3   OH214912   2.280   0.932   1.127 -0.3883 -0.2106 -0.2165
 4969TIP3    H114913   2.197   0.968   1.157 -1.0269 -0.0715 -2.0143
 4969TIP3    H214914   2.266   0.915   1.034  0.9987 -1.9295 -0.1604
 4970TIP3   OH214915   4.804   2.448   3.757  0.4946 -0.1224  0.0396
 4970TIP3    H114916   4.805   2.397   3.676 -1.4471 -0.7271  0.3473
 4970TIP3    H214917   4.888   2.494   3.757  1.4263 -1.7050 -1.2704
 4971TIP3   OH214918   5.708   3.430   4.553  0.5438 -0.4734  0.4543
 4971TIP3    H114919   5.750   3.477   4.481 -0.9614  1.0248  0.4909
 4971TIP3    H214920   5.734   3.478   4.632 -0.0936 -0.3507  0.6011
 4972TIP3   OH214921   1.965   3.680   3.216  0.2116  0.0317 -0.2727
 4972TIP3    H114922   1.944   3.588   3.232  0.4673  0.5152  3.9617
 4972TIP3    H214923   2.059   3.687   3.234  0.1059  1.1775 -0.1144
 4973TIP3   OH214924   1.199   1.730   3.701  0.3918 -0.3623 -0.6303
 4973TIP3    H114925   1.110   1.764   3.690  0.8439  1.3836  0.7475
 4973TIP3    H214926   1.204   1.705   3.794  1.3155 -0.5241 -0.7125
 4974TIP3   OH214927   0.853   4.572   4.920  0.3965  0.3410  0.0466
 4974TIP3    H114928   0.768   4.614   4.911  0.1151 -0.3989 -0.9365
 4974TIP3    H214929   0.857   4.546   5.011 -1.2943 -1.3522 -0.2975
 4975TIP3   OH214930   3.449   1.736   1.895  0.3610  0.0172 -0.1459
 4975TIP3    H114931   3.404   1.652   1.900 -1.4278  0.6711 -3.1330
 4975TIP3    H214932   3.379   1.801   1.898  1.6843  1.4710  1.6816
 4976TIP3   OH214933   5.515   5.485   0.980 -0.2912  0.0126 -0.4621
 4976TIP3    H114934   5.486   5.567   1.020 -1.6057 -0.3616 -0.5990
 4976TIP3    H214935   5.524   5.505   0.887  1.3816  0.5126 -0.2188
 4977TIP3   OH214936   2.327   4.522   0.879 -0.3686  0.0361  0.1594
 4977TIP3    H114937   2.407   4.531   0.827 -1.1304  0.8297 -0.9204
 4977TIP3    H214938   2.331   4.432   0.913  0.6339 -0.1632 -0.4336
 4978TIP3   OH214939   4.926   3.119   3.533 -0.9036  0.1725  0.6854
 4978TIP3    H114940   4.884   3.142   3.450 -0.1472 -0.3323  0.1473
 4978TIP3    H214941   4.965   3.201   3.563 -1.6063  0.4703  0.7995
 4979TIP3   OH214942   3.764   5.108   1.471  0.6429 -0.2345  0.1964
 4979TIP3    H114943   3.698   5.047   1.438  0.0880 -0.3282  1.4270
 4979TIP3    H214944   3.813   5.134   1.393 -0.7440 -0.2808 -0.7295
 4980TIP3   OH214945   4.683   3.166   3.930 -0.1012 -0.0363 -0.4686
 4980TIP3    H114946   4.776   3.145   3.931 -0.1445 -0.2395  0.1892
 4980TIP3    H214947   4.676   3.245   3.876  0.3964 -0.2448 -0.8497
 4981TIP3   OH214948   3.170   4.439   4.933  0.2894 -0.4236 -0.0067
 4981TIP3    H114949   3.173   4.395   4.848 -3.1822  0.0073 -0.4811
 4981TIP3    H214950   3.226   4.515   4.922 -0.0840 -0.3659 -1.9352
 4982TIP3   OH214951   4.345   1.174   3.527  0.1029 -0.0043  0.0058
 4982TIP3    H114952   4.386   1.088   3.534 -1.2416 -0.6014  0.7072
 4982TIP3    H214953   4.254   1.156   3.506 -0.2233  1.2510  0.2780
 4983TIP3   OH214954   3.064   3.389   0.673 -0.3330  0.4148  0.4129
 4983TIP3    H114955   3.135   3.325   0.674  0.7270  1.4479 -1.8620
 4983TIP3    H214956   3.109   3.474   0.678 -1.2760  1.1267 -1.9624
 4984TIP3   OH214957   5.770   0.955   4.152 -0.1928  0.1472  0.7319
 4984TIP3    H114958   5.700   0.898   4.185 -0.2218  0.7208  1.6860
 4984TIP3    H214959   5.835   0.956   4.221  0.5240  0.0637  0.0773
 4985TIP3   OH214960   1.342   2.863   0.353  0.5810  0.2853  1.0656
 4985TIP3    H114961   1.383   2.919   0.419  1.6759 -0.1323  0.7765
 4985TIP3    H214962   1.263   2.910   0.326  0.1942  0.5246  2.5591
 4986TIP3   OH214963   5.689   1.224   1.819 -0.8119 -0.1641 -0.3194
 4986TIP3    H114964   5.712   1.299   1.875 -0.8782 -1.6285  1.7681
 4986TIP3    H214965   5.680   1.262   1.732  0.3799  2.0537  0.4346
 4987TIP3   OH214966   2.040   2.578   1.565  0.0479  0.0679  0.2517
 4987TIP3    H114967   1.967   2.536   1.520  0.5483  0.0044 -0.5389
 4987TIP3    H214968   2.021   2.671   1.560 -0.5558 -0.0087  1.0924
 4988TIP3   OH214969   3.811   2.869   2.983 -0.0471 -0.0656  0.3532
 4988TIP3    H114970   3.756   2.947   2.988  2.5271  2.1052 -1.6448
 4988TIP3    H214971   3.752   2.799   2.954 -1.9378  1.8457 -0.6401
 4989TIP3   OH214972   3.065   2.088   0.203  0.0165  0.1885  0.0441
 4989TIP3    H114973   3.072   1.995   0.226  1.8616 -0.1407 -1.5768
 4989TIP3    H214974   3.154   2.113   0.179 -0.6262  2.1595 -0.4309
 4990TIP3   OH214975   0.755   3.586   0.275  0.3784  0.0535  0.4880
 4990TIP3    H114976   0.695   3.532   0.327  0.1472 -1.5963 -1.3411
 4990TIP3    H214977   0.727   3.676   0.292 -1.4457 -0.5796  1.0938
 4991TIP3   OH214978   5.654   1.270   4.284 -0.1262 -0.1373 -0.1437
 4991TIP3    H114979   5.603   1.277   4.364  0.5865 -2.3470  0.5819
 4991TIP3    H214980   5.589   1.274   4.214 -0.9754  0.0153  0.6341
 4992TIP3   OH214981   1.739   3.826   1.819 -0.2340 -0.7375  0.3308
 4992TIP3    H114982   1.753   3.879   1.740  2.5574  1.5492  2.1296
 4992TIP3    H214983   1.770   3.739   1.795  1.2556  0.0867 -0.9240
 4993TIP3   OH214984   0.751   2.544   4.371 -0.1830  0.0288  0.2020
 4993TIP3    H114985   0.782   2.601   4.441  0.5921 -0.6594  0.4375
 4993TIP3    H214986   0.831   2.512   4.329 -0.6327  0.9985 -1.4952
 4994TIP3   OH214987   1.018   5.352   0.980  0.1980  0.3153  0.1776
 4994TIP3    H114988   1.011   5.295   0.904  0.2328  1.7359 -0.9240
 4994TIP3    H214989   1.080   5.306   1.038 -1.8470 -2.0844  0.6230
 4995TIP3   OH214990   1.656   5.266   1.486 -1.0114 -0.4285  0.4371
 4995TIP3    H114991   1.579   5.310   1.523 -0.2957  0.1107  1.3384
 4995TIP3    H214992   1.730   5.312   1.525 -0.2269 -0.8194 -0.5641
 4996TIP3   OH214993   5.732   2.853   4.641 -0.1271 -0.2858  0.0834
 4996TIP3    H114994   5.811   2.863   4.588 -0.0806 -1.0241 -0.0015
 4996TIP3    H214995   5.750   2.776   4.696  0.0332  0.7392  1.5454
 4997TIP3   OH214996   6.094   0.631   0.894 -0.1432 -0.5767 -0.4665
 4997TIP3    H114997   6.112   0.580   0.973  0.5371 -1.0321 -0.9008
 4997TIP3    H214998   6.172   0.617   0.839 -1.2924 -1.6037 -1.9024
 4998TIP3   OH214999   1.217   5.855   0.059 -0.3040  0.1065  0.7347
 4998TIP3    H115000   1.135   5.893   0.092  0.0364  1.6352 -0.0969
 4998TIP3    H215001   1.192   5.811  -0.022 -0.1483  1.6487 -0.1995
 4999TIP3   OH215002   3.258   4.290   0.001  0.1132 -0.4505  0.6044
 4999TIP3    H115003   3.257   4.288   0.097 -2.8046  1.8451  0.7540
 4999TIP3    H215004   3.247   4.382  -0.021  0.4307 -0.9673 -1.9722
 5000TIP3   OH215005   2.755   0.744   4.885  0.3297  0.5448  0.4449
 5000TIP3    H115006   2.764   0.759   4.979  0.2749 -0.9459  0.7096
 5000TIP3    H215007   2.825   0.682   4.863  0.5393  1.1054 -0.5687
 5001TIP3   OH215008   5.027   5.722   0.186 -0.6384  0.4163  0.0824
 5001TIP3    H115009   4.971   5.705   0.262  0.2480  0.4482  0.7696
 5001TIP3    H215010   4.968   5.754   0.118 -1.4687  0.2607  0.7206
 5002TIP3   OH215011   3.980   5.490   1.365 -0.1166  0.3566 -0.0463
 5002TIP3    H115012   3.979   5.515   1.272  3.2524  1.6517  0.1198
 5002TIP3    H215013   4.068   5.455   1.379 -0.9225 -0.8985  2.4507
 5003TIP3   OH215014   2.994   1.560   4.026 -0.0046 -0.6238  0.4640
 5003TIP3    H115015   2.907   1.527   4.003 -0.1819 -0.2242  0.5472
 5003TIP3    H215016   3.041   1.484   4.060 -0.5193 -0.7144  0.9886
 5004TIP3   OH215017   2.309   3.447   4.029 -0.2593 -0.6143  0.7614
 5004TIP3    H115018   2.295   3.504   4.104  0.0848 -0.1140  0.4548
 5004TIP3    H215019   2.383   3.393   4.053  0.4629  0.1988  0.4214
 5005TIP3   OH215020   3.627   1.014   5.002  0.6037  0.4392 -0.1359
 5005TIP3    H115021   3.608   1.081   4.936 -2.3529 -0.0952  0.0281
 5005TIP3    H215022   3.687   0.954   4.958 -0.1950  0.8294 -1.8580
 5006TIP3   OH215023   0.471   2.792   1.070 -0.3621 -0.2218 -0.2897
 5006TIP3    H115024   0.478   2.764   1.161 -0.4917  0.3364 -0.1021
 5006TIP3    H215025   0.381   2.773   1.046 -0.2874 -0.5036 -0.3478
 5007TIP3   OH215026   1.291   1.827   0.984  0.0628  0.3012 -0.2234
 5007TIP3    H115027   1.275   1.921   0.975  0.9614  0.5761  0.8762
 5007TIP3    H215028   1.302   1.797   0.894  1.2804  1.5374 -0.5307
 5008TIP3   OH215029   3.523   2.385   4.757  0.0609 -0.7454  0.1284
 5008TIP3    H115030   3.568   2.428   4.685  2.4575 -1.1622  1.2643
 5008TIP3    H215031   3.472   2.454   4.799  0.4775 -0.0012 -0.5726
 5009TIP3   OH215032   5.393   4.444   0.693  0.0090  0.2003  0.4590
 5009TIP3    H115033   5.437   4.511   0.640  1.5828 -0.1312  1.3002
 5009TIP3    H215034   5.350   4.494   0.762 -1.7053  0.5978 -0.8231
 5010TIP3   OH215035   5.596   4.712   3.885 -0.7675  0.3461  0.1159
 5010TIP3    H115036   5.673   4.754   3.925 -1.9099  2.2334  0.4467
 5010TIP3    H215037   5.530   4.782   3.882 -1.3648 -0.2256 -3.3973
 5011TIP3   OH215038   5.167   3.255   0.209  0.2059 -0.1504 -0.1862
 5011TIP3    H115039   5.241   3.250   0.269  2.0178  1.6773 -2.0624
 5011TIP3    H215040   5.186   3.189   0.142 -0.0018  0.1178 -0.5157
 5012TIP3   OH215041   3.039   2.894   3.451  0.0751  0.1995  0.5252
 5012TIP3    H115042   3.130   2.909   3.475  0.1958 -0.4742  0.4900
 5012TIP3    H215043   2.990   2.915   3.530  0.2976  0.1290  0.6835
 5013TIP3   OH215044   2.049   3.282   1.205  0.3496 -0.0545  0.0143
 5013TIP3    H115045   2.078   3.360   1.253  1.5023  0.6338 -1.7144
 5013TIP3    H215046   2.025   3.219   1.273  0.2403  1.4903  1.4590
 5014TIP3   OH215047   0.353   0.727   0.133  0.1207  0.1714 -0.1048
 5014TIP3    H115048   0.264   0.732   0.167  0.4589 -1.4794  1.1714
 5014TIP3    H215049   0.351   0.656   0.069  0.6600 -0.3921  0.4869
 5015TIP3   OH215050   4.454   0.436   2.801  0.2260 -0.4559 -0.2864
 5015TIP3    H115051   4.512   0.433   2.725  1.2293  1.0687  0.3724
 5015TIP3    H215052   4.460   0.348   2.840  3.1351 -0.0257  0.4680
 5016TIP3   OH215053   5.729   0.838   1.090 -0.2761  0.0592  0.2069
 5016TIP3    H115054   5.753   0.767   1.031 -0.6531 -1.0139  1.3086
 5016TIP3    H215055   5.666   0.890   1.041 -2.9980 -2.5490  0.6669
 5017TIP3   OH215056   5.444   3.810   1.799  0.1848  0.0322 -0.5713
 5017TIP3    H115057   5.359   3.800   1.843  0.2552  0.8570 -0.2387
 5017TIP3    H215058   5.463   3.904   1.804  1.6526 -0.2903  0.3454
 5018TIP3   OH215059   0.066   5.078   0.755 -0.3591  0.2823  0.2317
 5018TIP3    H115060   0.119   5.021   0.811  1.7406 -1.4802 -3.2154
 5018TIP3    H215061   0.122   5.154   0.739 -0.3727  0.1371 -0.5183
 5019TIP3   OH215062   0.924   4.937   3.862  0.0246  0.4251  0.4914
 5019TIP3    H115063   0.921   4.975   3.950  0.3174  1.3001  0.1299
 5019TIP3    H215064   0.914   5.012   3.803  0.0164 -0.1324 -0.2271
 5020TIP3   OH215065   4.292   4.728   1.598 -0.4880 -0.0253  0.0980
 5020TIP3    H115066   4.223   4.792   1.579 -1.9942 -1.7389 -0.4394
 5020TIP3    H215067   4.345   4.725   1.518  0.2627  1.3042  0.5155
 5021TIP3   OH215068   0.248   2.432   3.187 -0.2613 -0.0840 -0.4005
 5021TIP3    H115069   0.177   2.448   3.249 -0.6699 -0.0070 -0.8830
 5021TIP3    H215070   0.297   2.360   3.225  0.0980  0.6206  0.5215
 5022TIP3   OH215071   1.265   1.669   4.741 -0.2549 -0.2549  0.1292
 5022TIP3    H115072   1.295   1.662   4.832  1.9665 -1.1935 -0.6132
 5022TIP3    H215073   1.225   1.583   4.723  0.8834 -0.7166 -0.2756
 5023TIP3   OH215074   6.274   3.850   1.613 -0.2738  0.4451 -0.3310
 5023TIP3    H115075   6.291   3.757   1.597  3.0570  0.8592 -0.0919
 5023TIP3    H215076   6.219   3.852   1.691  0.2505 -1.3386  0.1309
 5024TIP3   OH215077   5.333   4.664   5.028 -0.1928 -0.2328  0.5394
 5024TIP3    H115078   5.335   4.589   5.087  0.6085 -1.0491 -0.4809
 5024TIP3    H215079   5.258   4.650   4.971 -0.1942 -0.1314  0.5145
 5025TIP3   OH215080   4.027   4.618   0.581 -0.4501  0.0594  0.0597
 5025TIP3    H115081   4.113   4.654   0.556 -0.5103  1.0129  1.1635
 5025TIP3    H215082   4.040   4.523   0.579 -0.0843  0.0873 -2.2434
 5026TIP3   OH215083   6.157   0.566   1.154  0.0016 -0.3699  0.3670
 5026TIP3    H115084   6.187   0.651   1.188  0.3301 -0.3462  0.0256
 5026TIP3    H215085   6.232   0.508   1.166  0.5058 -0.1101 -1.2320
 5027TIP3   OH215086   0.306   1.474   3.533 -0.0449 -0.2349 -0.3670
 5027TIP3    H115087   0.257   1.530   3.473  0.7127  0.9527  0.0806
 5027TIP3    H215088   0.314   1.526   3.613 -0.6228 -1.6047  0.6131
 5028TIP3   OH215089   1.555   3.958   4.052 -0.1080 -0.0765 -0.2740
 5028TIP3    H115090   1.567   4.028   4.116 -0.4672 -1.2484  1.1383
 5028TIP3    H215091   1.621   3.893   4.075 -1.0365 -1.0654 -0.2762
 5029TIP3   OH215092   6.048   1.882   2.876 -0.2449 -0.0776  0.4921
 5029TIP3    H115093   5.969   1.848   2.918 -0.9449  1.5429  0.5847
 5029TIP3    H215094   6.115   1.817   2.894 -1.0240 -0.4196  2.3545
 5030TIP3   OH215095   5.082   1.312   0.585 -0.3931 -0.5958  0.3209
 5030TIP3    H115096   5.001   1.362   0.582  0.0481  0.1048 -0.1221
 5030TIP3    H215097   5.057   1.228   0.625 -1.3673 -0.4559  0.0329
 5031TIP3   OH215098   4.900   4.868   1.886 -0.3624  0.5461  0.3381
 5031TIP3    H115099   4.934   4.933   1.948  0.7570  0.8692 -0.5761
 5031TIP3    H215100   4.975   4.848   1.829 -0.6292 -1.6723  0.6780
 5032TIP3   OH215101   5.689   5.210   2.594  0.3562 -0.3698 -0.4334
 5032TIP3    H115102   5.718   5.301   2.591  0.7140 -0.4666  0.0169
 5032TIP3    H215103   5.711   5.175   2.508 -0.2631  0.1087 -0.8012
 5033TIP3   OH215104   0.375   3.267   1.180 -0.0680  0.5928  0.0768
 5033TIP3    H115105   0.403   3.191   1.230 -0.1197 -0.1885 -1.0454
 5033TIP3    H215106   0.315   3.232   1.114  0.1721  1.5504 -0.6795
 5034TIP3   OH215107   5.418   5.029   1.862  0.0052  0.4942 -0.2896
 5034TIP3    H115108   5.511   5.022   1.842  0.1820  0.9901  0.3483
 5034TIP3    H215109   5.404   4.968   1.935 -0.2010  0.3117 -0.4802
 5035TIP3   OH215110   2.830   4.535   3.789  0.3141  0.3738 -0.0473
 5035TIP3    H115111   2.795   4.450   3.817  0.1090  0.5164  0.1281
 5035TIP3    H215112   2.925   4.520   3.781  0.1128 -0.2943 -1.5139
 5036TIP3   OH215113   0.280   5.112   1.248  0.2603  0.5463 -0.4031
 5036TIP3    H115114   0.353   5.173   1.235  1.1721 -0.0779  1.4509
 5036TIP3    H215115   0.202   5.166   1.233  1.0638  1.5090 -1.3162
 5037TIP3   OH215116   0.569   3.719   2.391  0.1484 -0.0258  0.4239
 5037TIP3    H115117   0.558   3.676   2.306 -0.6836  0.7651  0.1183
 5037TIP3    H215118   0.662   3.707   2.411  0.6038  0.6580 -1.0881
 5038TIP3   OH215119   4.963   5.196   1.914  0.6699  0.4498 -0.3310
 5038TIP3    H115120   5.008   5.134   1.971  1.1286  1.6516  0.6686
 5038TIP3    H215121   5.033   5.237   1.864  0.7501  2.1975  1.0993
 5039TIP3   OH215122   4.816   4.713   2.344  0.2041  0.0351  0.4589
 5039TIP3    H115123   4.751   4.770   2.384  0.9464  0.8269  0.5527
 5039TIP3    H215124   4.768   4.666   2.275 -0.8980 -0.7584  1.7234
 5040TIP3   OH215125   5.073   2.314   4.392 -0.6751 -0.0183  0.1125
 5040TIP3    H115126   5.057   2.378   4.322 -0.0174 -0.5195 -0.5052
 5040TIP3    H215127   5.168   2.304   4.395 -0.8077 -1.8332 -0.5960
 5041TIP3   OH215128   0.177   1.680   5.008 -0.1339 -0.3802 -0.0423
 5041TIP3    H115129   0.203   1.648   4.921  0.4739 -0.3590  0.1286
 5041TIP3    H215130   0.257   1.676   5.060 -0.6398 -1.0520  0.7204
 5042TIP3   OH215131   2.125   3.693   2.771  0.0661 -0.5249  0.0937
 5042TIP3    H115132   2.218   3.708   2.792 -0.6207 -0.0325  3.3443
 5042TIP3    H215133   2.078   3.758   2.824 -2.1946 -1.9369 -0.0673
 5043TIP3   OH215134   4.593   4.643   2.772  0.0364  0.2815  0.1284
 5043TIP3    H115135   4.588   4.551   2.746  0.1686  0.9460 -2.5119
 5043TIP3    H215136   4.511   4.681   2.742 -0.0169  1.0720  1.2010
 5044TIP3   OH215137   3.791   5.788   3.826 -0.3799  0.1695  0.3851
 5044TIP3    H115138   3.730   5.802   3.754  1.3615  1.6316 -0.9283
 5044TIP3    H215139   3.839   5.709   3.803  0.0999  0.5756 -0.0532
 5045TIP3   OH215140   5.130   0.302   2.830  0.4018 -0.5548 -0.0213
 5045TIP3    H115141   5.189   0.232   2.802  0.6931 -0.2093 -0.2768
 5045TIP3    H215142   5.060   0.257   2.877  0.8509 -0.9712  0.2577
 5046TIP3   OH215143   4.261   0.391   2.592  0.6999  0.3537 -0.5605
 5046TIP3    H115144   4.231   0.301   2.603  0.1915  0.3510 -1.7882
 5046TIP3    H215145   4.275   0.423   2.681 -0.6901 -0.4132 -0.0457
 5047TIP3   OH215146   0.453   3.034   1.270 -0.4222 -0.1224 -0.5345
 5047TIP3    H115147   0.444   2.957   1.326 -0.4335 -0.2615 -0.7277
 5047TIP3    H215148   0.532   3.017   1.219 -1.4503 -0.8710 -1.9372
 5048TIP3   OH215149   1.131   5.803   2.952 -0.8619  0.0672  0.6860
 5048TIP3    H115150   1.133   5.718   2.995 -0.2360  0.9416  2.4987
 5048TIP3    H215151   1.070   5.855   3.005 -3.7820 -0.0984 -2.2289
 5049TIP3   OH215152   5.677   0.592   1.908 -0.0271 -0.3057  0.5333
 5049TIP3    H115153   5.651   0.648   1.981  1.1848 -1.1835  1.6933
 5049TIP3    H215154   5.771   0.608   1.898  0.2044 -1.6191  0.4483
 5050TIP3   OH215155   3.012   1.532   1.194 -0.1930  0.8302 -0.4802
 5050TIP3    H115156   2.940   1.472   1.174  0.3217  0.1695 -0.3762
 5050TIP3    H215157   2.998   1.556   1.286  1.1650 -1.3953  0.4098
 5051TIP3   OH215158   5.187   5.535   2.417  0.1592  0.3247  0.0960
 5051TIP3    H115159   5.238   5.463   2.454 -1.5992 -0.3378  1.4002
 5051TIP3    H215160   5.139   5.571   2.492  1.3096  3.1787 -0.4359
 5052TIP3   OH215161   4.226   5.676   1.003 -0.3885  0.5581  0.0026
 5052TIP3    H115162   4.285   5.605   0.977  1.9012  1.5116  2.1407
 5052TIP3    H215163   4.284   5.741   1.044 -2.7763  2.2807  0.8470
 5053TIP3   OH215164   6.074   1.692   1.484  0.5225 -0.0087 -0.1237
 5053TIP3    H115165   6.109   1.610   1.520  1.0646 -0.4038 -1.4751
 5053TIP3    H215166   6.034   1.666   1.401  1.0345  1.1457 -0.7514
 5054TIP3   OH215167   5.865   4.663   0.495 -0.6851  0.4144 -0.2916
 5054TIP3    H115168   5.850   4.577   0.534 -1.3558 -0.0698 -1.5357
 5054TIP3    H215169   5.952   4.656   0.454 -0.4049  0.5936  0.2700
 5055TIP3   OH215170   6.074   5.746   0.698  0.1855 -0.3181 -0.1375
 5055TIP3    H115171   6.050   5.836   0.675 -0.6915 -0.2481  0.9680
 5055TIP3    H215172   6.021   5.691   0.641  0.2025 -0.1397 -0.3274
 5056TIP3   OH215173   3.103   0.304   1.262 -0.1641  0.2377  0.0886
 5056TIP3    H115174   3.099   0.211   1.282  0.0037  0.8007  3.1612
 5056TIP3    H215175   3.175   0.312   1.200  0.1020 -1.6116  0.0979
 5057TIP3   OH215176   3.457   0.459   2.715 -0.2150 -0.4305 -0.7354
 5057TIP3    H115177   3.363   0.477   2.719 -0.0649  0.1641  1.0097
 5057TIP3    H215178   3.467   0.373   2.756 -0.0086 -0.6130 -1.1582
 5058TIP3   OH215179   6.069   2.193   2.111 -0.4493  0.1372 -0.2034
 5058TIP3    H115180   6.118   2.224   2.187  1.1648  0.5631 -1.3681
 5058TIP3    H215181   6.099   2.103   2.098 -3.4025 -1.3012  1.7596
 5059TIP3   OH215182   5.284   2.330   0.016  0.2231  0.4870 -0.4362
 5059TIP3    H115183   5.267   2.409   0.066  0.0180  0.6483 -0.7558
 5059TIP3    H215184   5.273   2.259   0.079  0.4556  0.7139 -0.1388
 5060TIP3   OH215185   3.835   0.443   4.129  0.0723 -0.4147 -0.2589
 5060TIP3    H115186   3.781   0.508   4.084 -0.3912 -1.0066 -0.5784
 5060TIP3    H215187   3.790   0.427   4.212  0.2780 -0.2058 -0.1063
 5061TIP3   OH215188   1.595   5.477   4.640  0.9231 -0.4064 -0.3388
 5061TIP3    H115189   1.600   5.557   4.587 -2.1505 -0.2819 -0.6623
 5061TIP3    H215190   1.555   5.412   4.581  3.0607 -2.1514  0.0157
 5062TIP3   OH215191   5.177   1.046   5.196 -0.0453 -0.0384  0.1014
 5062TIP3    H115192   5.138   0.987   5.132  2.0974 -2.8265  1.1745
 5062TIP3    H215193   5.105   1.102   5.224 -1.9187 -1.2961 -1.8866
 5063TIP3   OH215194   4.142   1.411   1.132 -0.0531  0.2995 -0.1779
 5063TIP3    H115195   4.201   1.402   1.057 -0.1121  1.1117 -0.3362
 5063TIP3    H215196   4.108   1.500   1.124  0.1703  0.5008  0.9861
 5064TIP3   OH215197   0.755   2.916   2.124  0.4326 -1.0054  0.0002
 5064TIP3    H115198   0.734   2.823   2.127 -0.6452 -0.9494 -2.9550
 5064TIP3    H215199   0.708   2.954   2.198 -0.7015 -2.5376  0.0998
 5065TIP3   OH215200   4.261   5.090   3.078  0.1063 -0.4864 -0.2994
 5065TIP3    H115201   4.239   5.026   3.146  1.3557 -1.3573 -0.6851
 5065TIP3    H215202   4.194   5.158   3.087  0.0528 -0.7228  1.6060
 5066TIP3   OH215203   4.579   1.084   1.100  0.3705  0.0887  0.4478
 5066TIP3    H115204   4.563   1.127   1.184 -1.5690  0.4171 -0.0469
 5066TIP3    H215205   4.503   1.107   1.046  1.9562  0.6023 -1.7028
 5067TIP3   OH215206   1.238   0.909   3.106  0.1647 -0.3062  0.1952
 5067TIP3    H115207   1.160   0.908   3.049  0.9896 -0.2275 -0.9691
 5067TIP3    H215208   1.306   0.950   3.052  1.3189 -1.3841  0.7994
 5068TIP3   OH215209   5.867   2.885   1.534 -0.4797  0.1638 -0.2985
 5068TIP3    H115210   5.811   2.862   1.460 -0.5348  0.0904 -0.2336
 5068TIP3    H215211   5.954   2.854   1.509 -0.8834 -1.8585  0.5853
 5069TIP3   OH215212   5.398   2.921   3.299 -0.2401 -0.2185  0.2045
 5069TIP3    H115213   5.325   2.919   3.361  1.4575  0.1608  2.3467
 5069TIP3    H215214   5.453   2.847   3.324 -0.0921 -0.8218 -1.7140
 5070TIP3   OH215215   2.334   3.877   3.092  0.2462 -0.1517 -0.6792
 5070TIP3    H115216   2.385   3.834   3.160 -0.5112 -0.3030 -0.1919
 5070TIP3    H215217   2.387   3.952   3.064  1.0699 -0.7396 -0.7324
 5071TIP3   OH215218   3.805   4.236   4.128 -0.5446  0.7301 -0.5231
 5071TIP3    H115219   3.884   4.263   4.081 -1.1620  1.4448 -1.1692
 5071TIP3    H215220   3.834   4.161   4.181  1.1823  2.4615  1.1738
 5072TIP3   OH215221   5.718   4.401   2.345 -0.3956 -0.1294  0.9550
 5072TIP3    H115222   5.748   4.344   2.416  1.1242  1.0755  1.3290
 5072TIP3    H215223   5.798   4.422   2.296 -0.7537  2.2496  1.2766
 5073TIP3   OH215224   4.507   4.792   4.936  0.0449  0.2744  0.1425
 5073TIP3    H115225   4.586   4.743   4.914 -1.2690 -1.6050 -0.5499
 5073TIP3    H215226   4.457   4.797   4.855 -1.0138  0.5655  0.7854
 5074TIP3   OH215227   0.392   1.389   3.968  0.0963  0.3364 -0.0213
 5074TIP3    H115228   0.437   1.389   3.884 -1.5086 -1.9238 -0.9940
 5074TIP3    H215229   0.333   1.464   3.964  0.6934  0.7855 -0.5203
 5075TIP3   OH215230   4.713   5.019   3.652  0.3101 -0.2620 -0.2963
 5075TIP3    H115231   4.623   5.033   3.624  1.4346  0.0342 -4.3966
 5075TIP3    H215232   4.737   5.098   3.701 -1.0609  0.5411 -0.8841
 5076TIP3   OH215233   3.616   2.217   2.668 -0.0840  0.0170 -0.3820
 5076TIP3    H115234   3.654   2.300   2.639  0.1131 -0.4541 -1.4892
 5076TIP3    H215235   3.537   2.243   2.716  0.3409  0.8729 -0.1145
 5077TIP3   OH215236   0.018   2.757   4.509 -0.1411 -0.1567 -0.4004
 5077TIP3    H115237  -0.059   2.736   4.457  2.0335 -0.5583 -3.7717
 5077TIP3    H215238   0.081   2.687   4.489  1.2383  0.2159  2.0916
 5078TIP3   OH215239   3.558   5.299   2.248 -0.0643 -0.3420  0.0309
 5078TIP3    H115240   3.512   5.274   2.168  0.9473 -0.0978 -0.6597
 5078TIP3    H215241   3.491   5.338   2.304 -0.7643 -0.3716 -0.7648
 5079TIP3   OH215242   0.361   5.989   1.061 -0.7023 -0.3355  0.5815
 5079TIP3    H115243   0.300   5.930   1.016 -0.2648 -1.2089  1.0958
 5079TIP3    H215244   0.391   5.938   1.136  0.8221 -0.0110  0.2276
 5080TIP3   OH215245   4.821   0.736   1.923 -0.1419 -0.4845  0.9111
 5080TIP3    H115246   4.841   0.669   1.989 -2.3191 -0.1752  1.9496
 5080TIP3    H215247   4.766   0.799   1.968  1.3963  1.7869 -0.2088
 5081TIP3   OH215248   2.788   4.520   3.377  0.7522  0.1491  0.2172
 5081TIP3    H115249   2.768   4.500   3.286 -0.3224  0.7941  0.2933
 5081TIP3    H215250   2.706   4.503   3.424  0.7762  1.4675  0.7855
 5082TIP3   OH215251   2.016   5.281   4.234 -0.0391 -0.0053 -0.7915
 5082TIP3    H115252   1.997   5.231   4.154 -1.0749  0.3256 -0.7709
 5082TIP3    H215253   1.948   5.254   4.296  0.0058  0.6708 -0.4377
 5083TIP3   OH215254   0.074   4.155   1.711  0.1334 -0.0266  0.1956
 5083TIP3    H115255   0.145   4.102   1.747 -0.0037 -0.9351 -0.7954
 5083TIP3    H215256   0.017   4.091   1.668  0.3807  0.9956 -1.7472
 5084TIP3   OH215257   2.185   4.763   4.777 -0.4225  0.1932 -0.2365
 5084TIP3    H115258   2.103   4.718   4.758  1.3218 -2.6562 -1.5500
 5084TIP3    H215259   2.225   4.713   4.848  0.9845  0.4365 -0.8230
 5085TIP3   OH215260   4.076   1.253   2.892 -0.2769 -0.0264  0.1230
 5085TIP3    H115261   4.016   1.200   2.839  0.0668 -1.8152  1.4288
 5085TIP3    H215262   4.063   1.343   2.861 -1.7396 -0.7112 -1.3793
 5086TIP3   OH215263   5.206   4.123   1.706  0.1677 -0.3660  0.1505
 5086TIP3    H115264   5.167   4.120   1.794 -2.9523 -0.2777 -1.1063
 5086TIP3    H215265   5.298   4.145   1.721 -0.0702 -1.1067  3.4166
 5087TIP3   OH215266   2.110   0.745   0.079 -0.2243 -0.1911 -0.2302
 5087TIP3    H115267   2.044   0.676   0.079  0.6667 -1.1200 -1.9886
 5087TIP3    H215268   2.190   0.701   0.107  0.5501 -0.1589 -2.2076
 5088TIP3   OH215269   3.691   0.194   1.686  0.3966  0.0156  0.2250
 5088TIP3    H115270   3.649   0.279   1.703  0.4350  0.0464  0.1642
 5088TIP3    H215271   3.628   0.148   1.630 -1.4260 -1.4702  3.2320
 5089TIP3   OH215272   4.815   3.797  -0.032  0.2067  0.3394 -0.1332
 5089TIP3    H115273   4.794   3.882   0.006 -0.4702  0.8957 -1.6464
 5089TIP3    H215274   4.776   3.733   0.028 -0.6493  1.1688  0.2185
 5090TIP3   OH215275   1.369   4.870   1.786  0.4603  0.0712 -1.0020
 5090TIP3    H115276   1.417   4.787   1.795 -0.4625 -0.3961 -0.1754
 5090TIP3    H215277   1.298   4.851   1.725 -0.3936 -0.0640  0.0061
 5091TIP3   OH215278   3.396   1.242   2.582  0.1412 -0.3365 -0.1559
 5091TIP3    H115279   3.346   1.235   2.664 -0.6235  0.4878 -0.5282
 5091TIP3    H215280   3.381   1.332   2.553  0.8529 -0.4557 -0.9223
 5092TIP3   OH215281   1.654   0.339   3.658  0.0457 -0.1384  0.1155
 5092TIP3    H115282   1.703   0.295   3.728 -2.1279 -0.8189  1.3254
 5092TIP3    H215283   1.709   0.329   3.580  0.6624 -3.1976  0.7976
 5093TIP3   OH215284   3.822   5.005   4.138 -0.1820 -0.3255 -0.2197
 5093TIP3    H115285   3.781   5.073   4.083  4.1190  3.3807  0.4797
 5093TIP3    H215286   3.797   5.028   4.227  0.4657 -0.2723 -0.0463
 5094TIP3   OH215287   0.745   3.427   2.946  0.2017  0.0096  0.2822
 5094TIP3    H115288   0.665   3.377   2.963  0.5820 -0.6616  0.1314
 5094TIP3    H215289   0.720   3.489   2.878  0.1523 -1.1528 -0.8006
 5095TIP3   OH215290   1.948   1.935   3.649  0.2997 -0.2838 -0.1461
 5095TIP3    H115291   1.913   1.913   3.562  1.6453  0.0537 -0.8103
 5095TIP3    H215292   2.025   1.988   3.630  0.8199 -0.5041  1.2661
 5096TIP3   OH215293   5.759   1.528   2.297 -0.0935 -0.5054 -0.2647
 5096TIP3    H115294   5.686   1.525   2.359 -0.0968  1.9073 -0.0754
 5096TIP3    H215295   5.762   1.440   2.259 -1.7215 -1.2793  1.2788
 5097TIP3   OH215296   2.772   1.400   1.612 -0.1174  0.0308 -0.0115
 5097TIP3    H115297   2.833   1.389   1.685 -1.2824 -1.7367  0.7562
 5097TIP3    H215298   2.694   1.440   1.651  0.1534  1.3786 -0.7975
 5098TIP3   OH215299   0.913   0.882   1.637  0.4781  0.3253 -0.8977
 5098TIP3    H115300   0.951   0.865   1.723 -0.9068 -0.1576 -0.3504
 5098TIP3    H215301   0.960   0.824   1.578  1.9404  1.1715 -0.6231
 5099TIP3   OH215302   6.298   0.465   2.060  0.3419 -0.3674  0.2972
 5099TIP3    H115303   6.238   0.477   2.134 -2.0980  1.1522 -1.7798
 5099TIP3    H215304   6.298   0.549   2.015  0.5256 -1.6609 -2.2785
 5100TIP3   OH215305   1.113   5.606   2.152  0.4100  0.4389 -0.2617
 5100TIP3    H115306   1.040   5.583   2.094  0.3832 -2.5490  0.8205
 5100TIP3    H215307   1.085   5.578   2.239  2.9377 -1.1606  0.1395
 5101TIP3   OH215308   4.705   4.076   4.498  0.2397 -0.3093 -0.7538
 5101TIP3    H115309   4.695   4.068   4.403 -0.4149 -1.6084 -0.6090
 5101TIP3    H215310   4.618   4.058   4.533  0.2850  0.9753  0.0722
 5102TIP3   OH215311   4.396   1.912   3.396 -0.2209  0.8855  0.4872
 5102TIP3    H115312   4.378   1.819   3.413 -1.1822  0.8130 -0.7540
 5102TIP3    H215313   4.359   1.928   3.309 -0.9670  2.6789  1.0820
 5103TIP3   OH215314   6.258   5.228   2.090  0.6559 -0.0005 -0.2741
 5103TIP3    H115315   6.219   5.220   2.003  1.0831  0.9932 -0.5686
 5103TIP3    H215316   6.276   5.138   2.117  1.3385 -0.2816 -1.5926
 5104TIP3   OH215317   6.191   3.527   4.242  0.3848 -0.0603  0.5829
 5104TIP3    H115318   6.287   3.533   4.251  0.4467 -0.8846  0.6159
 5104TIP3    H215319   6.157   3.603   4.289  1.0162  0.0676  0.8450
 5105TIP3   OH215320   2.396   4.795   4.591  0.1867 -0.2637  0.2121
 5105TIP3    H115321   2.317   4.787   4.645 -0.3602 -3.4402 -0.8734
 5105TIP3    H215322   2.365   4.835   4.510 -0.3151 -1.2870 -0.1207
 5106TIP3   OH215323   5.259   4.999   3.329  0.3022  0.1328  0.0195
 5106TIP3    H115324   5.191   4.966   3.271  1.0589 -0.9349 -0.3024
 5106TIP3    H215325   5.275   5.088   3.299  0.6466 -0.3869 -1.4137
 5107TIP3   OH215326   5.490   5.488   4.366 -0.0043  0.2361 -0.4346
 5107TIP3    H115327   5.533   5.571   4.347  0.1726 -0.0509 -1.3928
 5107TIP3    H215328   5.481   5.485   4.461  2.3675  0.1873 -0.1541
 5108TIP3   OH215329   5.880   4.670   4.839 -0.6073  0.3725  0.6213
 5108TIP3    H115330   5.797   4.625   4.824 -0.0384 -0.0132 -1.8476
 5108TIP3    H215331   5.862   4.761   4.814 -0.2609  0.2407 -0.1418
 5109TIP3   OH215332   3.726   4.664   1.293  0.5541  0.0527  0.4116
 5109TIP3    H115333   3.784   4.689   1.221  0.3385 -1.6752 -0.4216
 5109TIP3    H215334   3.718   4.569   1.284 -0.7835  0.0177  1.7499
 5110TIP3   OH215335   1.573   3.171   3.791  0.3880 -0.0860  0.7430
 5110TIP3    H115336   1.655   3.219   3.804 -0.1624  0.6515  1.5440
 5110TIP3    H215337   1.512   3.237   3.758  0.6205 -1.0332 -1.8159
 5111TIP3   OH215338   6.005  -0.014   1.111  0.4248  0.1204  0.2606
 5111TIP3    H115339   6.100   0.002   1.114  0.5349 -0.4970  0.1434
 5111TIP3    H215340   5.972   0.054   1.051  0.9824 -0.4861 -0.7680
 5112TIP3   OH215341   2.141   1.205   2.057  0.2501 -0.2913  0.3769
 5112TIP3    H115342   2.146   1.115   2.090 -1.0861 -0.6240 -0.2555
 5112TIP3    H215343   2.122   1.195   1.964  0.8081  0.6542  0.1526
 5113TIP3   OH215344   0.872   2.959   1.096 -0.4973  0.4460 -0.5537
 5113TIP3    H115345   0.866   2.929   1.186  1.1935 -1.0587 -0.8942
 5113TIP3    H215346   0.782   2.984   1.073 -0.8019  1.8187  1.8127
 5114TIP3   OH215347   2.021   4.122   0.072 -0.2762 -0.1465 -0.1642
 5114TIP3    H115348   2.004   4.211   0.102 -0.5596 -1.0305  2.5888
 5114TIP3    H215349   2.115   4.119   0.057  0.1610  0.0256  2.1708
 5115TIP3   OH215350   2.716   0.718   4.030 -0.1997 -0.0203 -0.4743
 5115TIP3    H115351   2.747   0.797   3.985 -0.2651  1.3051  1.6689
 5115TIP3    H215352   2.768   0.647   3.993  1.1044  1.2827 -1.2353
 5116TIP3   OH215353   6.081   0.845   3.716  0.1082  0.0641  0.1302
 5116TIP3    H115354   6.008   0.834   3.778  1.0163  1.5190  1.5361
 5116TIP3    H215355   6.053   0.917   3.659 -0.4935 -0.9100 -0.8404
 5117TIP3   OH215356   3.414   1.480   5.017 -0.3762  0.2000  0.2400
 5117TIP3    H115357   3.378   1.533   5.088 -0.9049  0.9498 -0.5691
 5117TIP3    H215358   3.352   1.491   4.945 -0.0099 -0.7863 -0.2525
 5118TIP3   OH215359   6.173   1.426   1.496 -0.4227 -0.3532 -0.5094
 5118TIP3    H115360   6.246   1.455   1.441 -0.4050 -0.5178 -0.5763
 5118TIP3    H215361   6.196   1.336   1.520 -0.4056 -0.2641 -0.1877
 5119TIP3   OH215362   4.509   1.449   2.393  0.4236  0.0392  0.2573
 5119TIP3    H115363   4.506   1.377   2.455  0.1984  0.8540  1.2198
 5119TIP3    H215364   4.563   1.416   2.321  0.0826 -1.1797  0.5347
 5120TIP3   OH215365   4.822   0.315   4.392  0.2047  0.0372 -0.1048
 5120TIP3    H115366   4.778   0.337   4.310  0.1407  0.7285  0.1124
 5120TIP3    H215367   4.906   0.361   4.388 -0.5303  1.5522  0.9825
 5121TIP3   OH215368   6.050   5.221   2.926 -0.0863  0.1046 -0.2631
 5121TIP3    H115369   6.006   5.151   2.879  0.3393 -1.4484  1.5362
 5121TIP3    H215370   6.104   5.264   2.860  0.8055 -2.2438 -1.1692
 5122TIP3   OH215371   3.742   4.342   3.880 -0.2183  0.9715 -0.2217
 5122TIP3    H115372   3.647   4.336   3.886 -0.3574 -3.3300 -2.2949
 5122TIP3    H215373   3.773   4.322   3.968 -1.3137  0.0717 -0.0175
 5123TIP3   OH215374   3.439   5.449   3.133 -0.4650  0.4491 -0.1474
 5123TIP3    H115375   3.377   5.418   3.067  1.1588  2.2298 -2.6811
 5123TIP3    H215376   3.491   5.372   3.155 -0.4176 -0.0109 -1.7330
 5124TIP3   OH215377   4.541   5.472   2.952  0.1518 -0.3470 -0.1251
 5124TIP3    H115378   4.450   5.448   2.973  0.1268  0.3889  0.6208
 5124TIP3    H215379   4.590   5.453   3.032  0.4527  0.3544 -0.1425
 5125TIP3   OH215380   4.090   0.570   0.654 -0.0884 -0.5195 -0.2827
 5125TIP3    H115381   4.003   0.534   0.672 -0.5190  1.1677  1.3727
 5125TIP3    H215382   4.137   0.564   0.738  0.9961 -0.3647 -0.8568
 5126TIP3   OH215383   0.655   4.477   3.400  0.0054  0.5372  0.0623
 5126TIP3    H115384   0.625   4.546   3.341  0.7575  1.6126  0.9094
 5126TIP3    H215385   0.578   4.453   3.451 -1.7281 -3.0019 -3.6640
 5127TIP3   OH215386   2.285   4.526   4.534  0.4742 -0.0958 -0.1022
 5127TIP3    H115387   2.335   4.454   4.572  0.2271 -0.6023 -0.7215
 5127TIP3    H215388   2.196   4.491   4.525  0.1428  0.5873  0.4148
 5128TIP3   OH215389   4.466   3.688   0.227 -0.4283  0.1851 -0.0673
 5128TIP3    H115390   4.519   3.644   0.293 -0.6141 -0.3978 -0.2931
 5128TIP3    H215391   4.391   3.722   0.276  0.5974  1.8680  0.4239
 5129TIP3   OH215392   5.040   2.083   5.150  0.3186  0.2590 -0.0606
 5129TIP3    H115393   4.999   1.997   5.158  0.5399  0.1877  0.3112
 5129TIP3    H215394   4.976   2.144   5.187  1.2329 -0.0385  2.1792
 5130TIP3   OH215395   5.766   4.089   2.737  0.5342 -0.0320  0.1601
 5130TIP3    H115396   5.755   4.040   2.818 -1.3257 -1.6446 -0.9601
 5130TIP3    H215397   5.696   4.154   2.739 -0.6971 -1.2478 -0.8642
 5131TIP3   OH215398   3.563   3.154   3.137  0.0849 -0.1872  1.0680
 5131TIP3    H115399   3.488   3.210   3.116  0.5046  1.0144  2.6056
 5131TIP3    H215400   3.561   3.086   3.069 -1.8225  0.3439  0.5113
 5132TIP3   OH215401   1.173   0.878   4.203 -0.4135  0.1447  0.1736
 5132TIP3    H115402   1.113   0.811   4.235  0.8754 -0.9105  0.4629
 5132TIP3    H215403   1.193   0.852   4.113 -1.9317  1.6246 -0.6485
 5133TIP3   OH215404   1.182   1.559   2.185  0.3515 -0.6891  0.0088
 5133TIP3    H115405   1.271   1.577   2.155  0.1171 -1.5399 -1.2609
 5133TIP3    H215406   1.126   1.599   2.119 -0.2020 -1.3171  0.0873
 5134TIP3   OH215407   5.271   4.389   1.175 -0.4883 -0.0283 -0.1358
 5134TIP3    H115408   5.224   4.443   1.112  0.9237  1.1723 -0.2290
 5134TIP3    H215409   5.204   4.332   1.213 -1.2666 -1.4082 -3.2651
 5135TIP3   OH215410   0.949   1.455   1.651  0.0266  0.8252  0.3161
 5135TIP3    H115411   1.037   1.478   1.680  0.5463 -1.5925  0.8285
 5135TIP3    H215412   0.940   1.362   1.671 -2.1696  0.6910 -0.9615
 5136TIP3   OH215413   1.200   1.917   0.056  0.4322  0.2527 -0.5244
 5136TIP3    H115414   1.257   1.966   0.115 -0.5389 -0.2363  0.8651
 5136TIP3    H215415   1.152   1.857   0.112 -0.5878 -0.1896 -1.8032
 5137TIP3   OH215416   3.158   2.579   0.281 -0.2016  0.2497  0.7941
 5137TIP3    H115417   3.096   2.511   0.305 -0.3223  0.7775  2.0505
 5137TIP3    H215418   3.243   2.537   0.286 -0.3393 -0.0374  0.7143
 5138TIP3   OH215419   4.498   2.119   1.267 -0.2427  0.0688 -0.8021
 5138TIP3    H115420   4.408   2.145   1.246 -0.2709  0.2120 -0.5089
 5138TIP3    H215421   4.552   2.184   1.222 -0.2960  0.2295 -0.6330
 5139TIP3   OH215422   3.626   0.931   2.569 -0.3122 -0.0467  0.1844
 5139TIP3    H115423   3.625   0.835   2.564 -0.2807 -0.0869  0.8270
 5139TIP3    H215424   3.569   0.959   2.498 -0.3780 -0.5468  0.0320
 5140TIP3   OH215425   0.824   1.631   0.782  1.0997 -0.7157 -0.1897
 5140TIP3    H115426   0.817   1.724   0.802  0.2768 -0.8094 -0.0139
 5140TIP3    H215427   0.780   1.621   0.697  0.1309 -1.1275  0.3486
 5141TIP3   OH215428   3.761   3.471   0.526 -0.2948  0.2859  0.2645
 5141TIP3    H115429   3.707   3.472   0.447  0.7051 -1.7389 -0.5300
 5141TIP3    H215430   3.851   3.474   0.494  0.1236  0.1677  1.3605
 5142TIP3   OH215431   3.438   2.507   2.695  0.7448 -0.3696 -0.3178
 5142TIP3    H115432   3.373   2.467   2.636  0.1129 -0.7054  0.5798
 5142TIP3    H215433   3.430   2.457   2.776  0.1382  1.3969  0.7553
 5143TIP3   OH215434   0.857   3.175   0.042 -0.3250  0.2431  0.2732
 5143TIP3    H115435   0.945   3.139   0.032 -0.6868 -0.9729  1.2843
 5143TIP3    H215436   0.827   3.189  -0.048 -0.2712 -2.3131 -0.2174
 5144TIP3   OH215437   6.197   1.840   0.661 -0.2490 -0.4570  0.1030
 5144TIP3    H115438   6.132   1.783   0.621 -0.3025  0.1473 -0.6985
 5144TIP3    H215439   6.271   1.782   0.682 -0.0902 -0.7405 -1.1814
 5145TIP3   OH215440   3.199   1.927   2.086  0.2614 -0.0701  0.2271
 5145TIP3    H115441   3.162   1.885   2.008  0.0433 -1.1927  0.9112
 5145TIP3    H215442   3.191   1.861   2.155  1.5568  0.4621  0.9172
 5146TIP3   OH215443   2.701   5.745   4.412  0.1463  0.1543  1.0349
 5146TIP3    H115444   2.709   5.667   4.467 -2.6599  0.7179  2.4631
 5146TIP3    H215445   2.705   5.711   4.322 -0.5944 -1.6246  1.6124
 5147TIP3   OH215446   0.844   4.748   1.118 -0.6415  0.0626 -0.5124
 5147TIP3    H115447   0.873   4.707   1.200  0.5707 -0.1757 -1.0363
 5147TIP3    H215448   0.916   4.731   1.056 -0.9341  1.3943 -1.2527
 5148TIP3   OH215449   2.450   4.162   4.434  0.1463  0.1267  0.2833
 5148TIP3    H115450   2.509   4.234   4.412  1.1158 -0.1955  1.6944
 5148TIP3    H215451   2.411   4.188   4.517 -0.2462 -0.5461  0.3161
 5149TIP3   OH215452   2.037   3.925   0.272 -0.2667 -0.4993 -0.3428
 5149TIP3    H115453   2.107   3.984   0.299 -0.3648 -0.3637 -0.3789
 5149TIP3    H215454   2.003   3.963   0.191 -0.2569 -0.6678 -0.4256
 5150TIP3   OH215455   2.179   2.530   0.889 -0.2929 -0.0494  0.2793
 5150TIP3    H115456   2.127   2.540   0.969  0.9568 -0.5535  1.1895
 5150TIP3    H215457   2.253   2.589   0.900  0.3618 -0.7729 -0.0788
 5151TIP3   OH215458   5.635   3.709   1.621  0.1185 -0.5611  0.3446
 5151TIP3    H115459   5.611   3.725   1.530  1.4568  0.4449  0.1408
 5151TIP3    H215460   5.568   3.754   1.672 -1.1468 -1.8640 -0.0966
 5152TIP3   OH215461   1.910   3.989   3.399 -0.0849 -0.2041  0.4708
 5152TIP3    H115462   1.860   3.907   3.393  0.1983 -0.3842  0.5301
 5152TIP3    H215463   1.873   4.035   3.474  1.2549 -1.3176  1.8732
 5153TIP3   OH215464   4.680   2.026   3.363  0.0942 -0.0025 -0.2909
 5153TIP3    H115465   4.591   2.007   3.333 -0.2681  1.0860  0.0295
 5153TIP3    H215466   4.718   1.941   3.381 -2.2441 -0.4796  3.5270
 5154TIP3   OH215467   2.699   2.350   1.967  0.4437 -0.8506  0.9687
 5154TIP3    H115468   2.794   2.349   1.972  0.4046 -0.4776  2.0935
 5154TIP3    H215469   2.671   2.392   2.048 -0.6757 -0.7809  0.5671
 5155TIP3   OH215470   3.105   4.471   3.487  0.2128  0.1102  0.0967
 5155TIP3    H115471   3.102   4.387   3.441  2.6047  0.6507 -1.2014
 5155TIP3    H215472   3.044   4.526   3.439 -0.1042 -0.4090 -0.1090
 5156TIP3   OH215473   1.506   3.044   1.654 -0.7927  0.0151  0.4041
 5156TIP3    H115474   1.579   2.982   1.660 -1.4217 -0.7335  0.4991
 5156TIP3    H215475   1.487   3.068   1.745 -0.9364 -0.1259  0.4129
 5157TIP3   OH215476   4.318   0.728   1.076 -0.3767 -0.0832 -0.0052
 5157TIP3    H115477   4.305   0.670   1.152  1.0025 -0.0139  0.3256
 5157TIP3    H215478   4.406   0.764   1.089  0.7170 -1.5573 -2.6125
 5158TIP3   OH215479   0.149   1.541   1.089  0.0453  0.1143 -0.1345
 5158TIP3    H115480   0.202   1.605   1.135 -1.4312  1.3889 -0.1082
 5158TIP3    H215481   0.211   1.475   1.058  1.6465  1.6678 -0.3538
 5159TIP3   OH215482   0.899   4.327   3.463 -0.2403 -0.7293  0.3544
 5159TIP3    H115483   0.833   4.390   3.434  0.4935 -0.0097  0.1928
 5159TIP3    H215484   0.977   4.348   3.411  0.5359 -0.6472  1.5083
 5160TIP3   OH215485   0.165   4.920   4.708 -0.0966  0.5345  0.6030
 5160TIP3    H115486   0.111   4.970   4.769 -0.4962  1.4072 -0.4348
 5160TIP3    H215487   0.108   4.848   4.680  0.1995 -0.0580  1.4817
 5161TIP3   OH215488   0.727   2.641   2.156 -0.1868 -0.5137 -0.4755
 5161TIP3    H115489   0.753   2.642   2.064  0.6519 -1.2048 -0.2575
 5161TIP3    H215490   0.647   2.588   2.158 -1.4978  1.3543 -1.1032
 5162TIP3   OH215491   1.748   2.347   2.403 -0.1798 -0.1517 -0.3558
 5162TIP3    H115492   1.832   2.322   2.364  0.0113 -1.2108  0.6827
 5162TIP3    H215493   1.683   2.328   2.335  0.0037 -3.2205  0.1954
 5163TIP3   OH215494   6.012   4.803   3.122  0.1074 -0.1763 -0.1309
 5163TIP3    H115495   6.092   4.808   3.070  0.0471  1.2591 -0.1385
 5163TIP3    H215496   6.012   4.885   3.172  0.0636 -1.4218  1.9945
 5164TIP3   OH215497   3.043   2.251   3.569  0.3807 -0.2848  0.2035
 5164TIP3    H115498   3.103   2.312   3.527  0.3050 -1.1970 -1.3151
 5164TIP3    H215499   3.039   2.176   3.509 -1.6625 -0.5978  0.6436
 5165TIP3   OH215500   4.045   1.954   0.116  0.4976  0.3992  0.0834
 5165TIP3    H115501   4.114   1.890   0.133  0.3894 -0.6344 -2.8989
 5165TIP3    H215502   4.089   2.039   0.120  1.1372  0.0375  1.6846
 5166TIP3   OH215503   6.084   2.942   0.618 -0.0187  0.2558  0.4077
 5166TIP3    H115504   6.100   2.900   0.533 -1.4297  1.1534 -0.3319
 5166TIP3    H215505   6.140   3.019   0.618  0.2609  0.0579  0.4708
 5167TIP3   OH215506   3.575   3.695   3.298  0.2404  0.1958 -0.2382
 5167TIP3    H115507   3.504   3.725   3.355  0.6252  1.2619 -0.2998
 5167TIP3    H215508   3.564   3.600   3.294 -1.2780  0.3504 -0.3742
 5168TIP3   OH215509   1.935   5.519   2.191 -0.3474 -0.4356  0.0536
 5168TIP3    H115510   1.904   5.609   2.179  0.4988 -0.2370 -0.7730
 5168TIP3    H215511   1.932   5.505   2.286 -3.1598 -0.5337  0.0388
 5169TIP3   OH215512   4.339   4.882   2.381  0.8381  0.5502  0.3249
 5169TIP3    H115513   4.312   4.820   2.314  1.4989  1.2035 -0.5746
 5169TIP3    H215514   4.272   4.950   2.380  0.3966  0.1421  0.9425
 5170TIP3   OH215515   4.858   0.795   1.602  0.1242  0.7740 -0.7218
 5170TIP3    H115516   4.920   0.866   1.621  1.3593 -0.3928 -0.1673
 5170TIP3    H215517   4.852   0.746   1.684 -1.0652  0.4890 -0.9587
 5171TIP3   OH215518   3.129   0.112   2.248 -0.0511  0.9070 -0.1458
 5171TIP3    H115519   3.177   0.073   2.320 -0.3493 -0.6833 -0.7628
 5171TIP3    H215520   3.091   0.192   2.284  0.2980  0.4519  1.2648
 5172TIP3   OH215521   0.001   5.360   4.087  0.5457  0.1152  0.6370
 5172TIP3    H115522   0.024   5.353   4.180  4.7974  0.0127 -0.2270
 5172TIP3    H215523   0.006   5.271   4.054 -1.6546  0.0387  0.3139
 5173TIP3   OH215524   3.200   3.429   1.153 -0.2337 -0.2440 -0.5184
 5173TIP3    H115525   3.284   3.471   1.134 -1.1051  1.7361 -0.2733
 5173TIP3    H215526   3.187   3.444   1.247 -0.9388 -0.3473 -0.5955
 5174TIP3   OH215527   4.516   0.856   5.161  0.1514  0.4745 -0.4902
 5174TIP3    H115528   4.461   0.782   5.187  0.2169 -0.5933 -3.0746
 5174TIP3    H215529   4.605   0.822   5.164  0.1849  0.4228 -1.6739
 5175TIP3   OH215530   5.258   0.137   1.691 -0.1027  0.1316  0.5717
 5175TIP3    H115531   5.342   0.175   1.668 -0.5951  2.2394  1.9124
 5175TIP3    H215532   5.213   0.125   1.607  0.8196  0.7462 -0.0280
 5176TIP3   OH215533   1.951   5.469   2.440  0.0098  0.4839 -0.0304
 5176TIP3    H115534   1.869   5.465   2.489 -1.5095  0.5137 -2.4156
 5176TIP3    H215535   1.984   5.379   2.443 -1.0814  0.0424 -0.5637
 5177TIP3   OH215536   3.487   5.680  -0.015 -0.0025 -0.5447  0.5692
 5177TIP3    H115537   3.461   5.772  -0.006  1.0918 -0.0789 -0.7318
 5177TIP3    H215538   3.570   5.674   0.032  0.3389 -0.6551 -0.0337
 5178TIP3   OH215539   0.345   2.486   2.705  0.1429  0.0141 -0.1363
 5178TIP3    H115540   0.349   2.559   2.766  0.1023 -0.1908  0.1123
 5178TIP3    H215541   0.436   2.472   2.678  0.3055 -0.5962  0.7118
 5179TIP3   OH215542   3.714   5.431   0.280  0.1527 -0.0951 -0.2269
 5179TIP3    H115543   3.753   5.399   0.361  0.0634  0.3768  0.0105
 5179TIP3    H215544   3.623   5.402   0.284 -0.1526  0.8940  0.3941
 5180TIP3   OH215545   6.017   0.378   2.701 -0.2092 -0.2437 -0.1371
 5180TIP3    H115546   5.971   0.295   2.690  0.5979 -0.5193 -1.6560
 5180TIP3    H215547   5.960   0.443   2.661 -0.1260 -0.3029 -0.3519
 5181TIP3   OH215548   1.355   4.302   4.995 -0.6350 -0.2707  0.5459
 5181TIP3    H115549   1.444   4.290   4.964  0.2009  2.7991  1.4298
 5181TIP3    H215550   1.362   4.308   5.090 -2.0536 -1.5964  0.7857
 5182TIP3   OH215551   1.201   1.623   1.413 -0.1211 -0.2482 -0.2561
 5182TIP3    H115552   1.201   1.530   1.434  1.7755 -0.1505  0.3873
 5182TIP3    H215553   1.245   1.628   1.327 -1.1181 -0.0134 -0.7685
 5183TIP3   OH215554   1.991   5.608   1.251  0.2423 -0.0226 -0.1910
 5183TIP3    H115555   1.993   5.656   1.168  1.3827  0.2604 -0.0147
 5183TIP3    H215556   1.935   5.533   1.233  0.7957 -0.1843 -1.3481
 5184TIP3   OH215557   4.395   1.521   0.430 -0.2258 -0.5524 -0.1241
 5184TIP3    H115558   4.306   1.555   0.444  0.6289  1.2384  1.4337
 5184TIP3    H215559   4.445   1.553   0.505  1.6318 -2.0236 -0.6457
 5185TIP3   OH215560   0.532   5.423   2.361 -0.3914  1.0850 -0.7903
 5185TIP3    H115561   0.607   5.482   2.364 -1.2083  2.2630 -2.4916
 5185TIP3    H215562   0.494   5.435   2.275 -0.3607 -2.2898 -1.4303
 5186TIP3   OH215563   4.801   1.813   0.882  0.1364 -0.3319 -0.4683
 5186TIP3    H115564   4.867   1.763   0.931 -1.4492 -2.2718 -0.1462
 5186TIP3    H215565   4.775   1.754   0.811 -3.4348 -1.1090  1.2190
 5187TIP3   OH215566   6.130   2.533   4.080 -0.2661  0.4123 -1.0748
 5187TIP3    H115567   6.206   2.553   4.135 -0.9762  1.5650 -0.4689
 5187TIP3    H215568   6.102   2.446   4.108 -0.5759  0.9558  0.3727
 5188TIP3   OH215569   4.204   1.150   4.042 -0.3322  0.3471  0.2370
 5188TIP3    H115570   4.148   1.153   4.120  2.4437 -0.6542  2.4113
 5188TIP3    H215571   4.221   1.057   4.029  3.6836  0.6462  1.9978
 5189TIP3   OH215572   3.773   4.782   2.614 -0.3811  0.1724 -0.6316
 5189TIP3    H115573   3.720   4.703   2.604  1.4894 -1.1711 -0.4927
 5189TIP3    H215574   3.756   4.832   2.534 -1.2771 -0.5720 -0.9250
 5190TIP3   OH215575   3.822   4.278   4.831 -0.1541  0.2713  0.2730
 5190TIP3    H115576   3.749   4.299   4.889 -0.6369 -0.2486 -0.1325
 5190TIP3    H215577   3.884   4.231   4.886  0.0853  1.1009  0.7263
 5191TIP3   OH215578   5.621   1.798   0.958 -0.0689 -0.6385  0.2078
 5191TIP3    H115579   5.583   1.883   0.936 -1.9619 -0.4085  3.5393
 5191TIP3    H215580   5.714   1.808   0.941 -0.1419  2.3602  1.0188
 5192TIP3   OH215581   0.607   5.444   2.030  0.1326  0.5256 -0.2679
 5192TIP3    H115582   0.520   5.436   2.069  0.3600  0.2940  0.1866
 5192TIP3    H215583   0.595   5.511   1.962 -0.8181 -0.7487 -1.4214
 5193TIP3   OH215584   2.194   1.433   3.482 -0.5737  0.4907  0.8468
 5193TIP3    H115585   2.252   1.366   3.516 -1.7433 -1.5728 -0.9819
 5193TIP3    H215586   2.107   1.396   3.489 -1.3384  2.0853  0.3433
 5194TIP3   OH215587   2.378   5.768   3.577  0.1372 -0.0674 -0.3185
 5194TIP3    H115588   2.436   5.744   3.650 -1.0232  0.1953  0.7147
 5194TIP3    H215589   2.373   5.688   3.524  0.5216 -0.4599  0.2214
 5195TIP3   OH215590   2.751   3.892   3.756 -0.2009 -0.7766  0.8162
 5195TIP3    H115591   2.662   3.907   3.789 -1.0912 -3.3104 -0.1885
 5195TIP3    H215592   2.754   3.799   3.736  1.3488 -0.0703 -3.0518
 5196TIP3   OH215593   4.812   1.933   2.454  0.1426  0.0082 -0.6908
 5196TIP3    H115594   4.907   1.920   2.459  0.3940  0.2785 -3.3181
 5196TIP3    H215595   4.802   2.021   2.420 -1.1242  0.3653  0.5236
 5197TIP3   OH215596   0.401   1.347   0.432  0.1391 -0.2217 -0.1982
 5197TIP3    H115597   0.445   1.388   0.507  1.4476 -2.1863  0.1982
 5197TIP3    H215598   0.318   1.315   0.468 -0.7348  1.6803 -0.4311
 5198TIP3   OH215599   0.759   4.942   3.154 -0.0533  0.7525  0.0224
 5198TIP3    H115600   0.848   4.906   3.153  0.2160  1.3941 -1.0746
 5198TIP3    H215601   0.758   5.003   3.227  0.2166  0.3100  0.4029
 5199TIP3   OH215602   3.131   4.827   3.053  0.1341 -0.1591 -0.2897
 5199TIP3    H115603   3.105   4.790   3.137 -0.8154 -0.4069 -0.6770
 5199TIP3    H215604   3.061   4.890   3.032  2.0062  2.4104  0.6727
 5200TIP3   OH215605   5.758   2.793   3.350  0.1529 -0.2300  0.4582
 5200TIP3    H115606   5.768   2.873   3.298  1.1669 -0.2665  0.5621
 5200TIP3    H215607   5.812   2.809   3.428 -0.4038 -0.6417  0.9302
 5201TIP3   OH215608   3.864   1.847   3.095 -0.3736  0.3279  0.0303
 5201TIP3    H115609   3.908   1.932   3.087  1.3486 -0.5222  0.0605
 5201TIP3    H215610   3.861   1.814   3.005 -1.3829  0.5560 -0.0339
 5202TIP3   OH215611   3.930   1.515   1.726  0.9423  0.0026 -0.2919
 5202TIP3    H115612   4.024   1.523   1.708  1.0359 -2.2391 -1.0696
 5202TIP3    H215613   3.893   1.480   1.646  0.1180 -2.9707  1.2429
 5203TIP3   OH215614   3.566   5.473   4.361  0.1585  0.0040  0.1851
 5203TIP3    H115615   3.545   5.566   4.376 -1.3513 -0.3677  0.5575
 5203TIP3    H215616   3.553   5.431   4.446  2.2267 -0.3643  0.3825
 5204TIP3   OH215617   3.702   4.136   1.183 -0.0813 -0.5736 -0.4716
 5204TIP3    H115618   3.752   4.058   1.206  3.2644  1.3728 -0.4878
 5204TIP3    H215619   3.639   4.106   1.118  1.9434 -3.0584 -1.4488
 5205TIP3   OH215620   3.842   3.953   1.583  0.5346 -0.1388 -0.1228
 5205TIP3    H115621   3.751   3.927   1.571  0.0024  1.7144 -0.4189
 5205TIP3    H215622   3.862   3.929   1.674 -0.1490 -0.8098 -0.1414
 5206TIP3   OH215623   0.306   5.761   3.900 -0.2293 -1.0287 -0.0081
 5206TIP3    H115624   0.285   5.799   3.814  0.4387  0.6033  0.5145
 5206TIP3    H215625   0.319   5.837   3.957  0.5715 -2.0760  1.2501
 5207TIP3   OH215626   5.089   4.845   1.680  0.2289  0.4919  0.8211
 5207TIP3    H115627   5.137   4.904   1.622 -0.4591 -0.2150 -0.5131
 5207TIP3    H215628   5.157   4.795   1.725  0.7713  0.6865  0.2317
 5208TIP3   OH215629   4.627   5.340   1.499  0.5720  0.0896  0.2400
 5208TIP3    H115630   4.562   5.323   1.567 -0.6424  0.1323 -0.8848
 5208TIP3    H215631   4.694   5.274   1.513 -1.7100 -2.7136 -1.0874
 5209TIP3   OH215632   5.009   1.047   1.440  0.3480 -0.0549 -0.2756
 5209TIP3    H115633   4.919   1.077   1.434  0.4847  0.2734 -0.8195
 5209TIP3    H215634   5.025   1.034   1.533 -0.5294 -0.9552 -0.2420
 5210TIP3   OH215635   4.905   4.774   4.068 -0.0835  0.0492  0.1652
 5210TIP3    H115636   4.818   4.779   4.027  0.6166 -0.1216 -1.3855
 5210TIP3    H215637   4.943   4.860   4.054 -0.0939  0.2175  1.1081
 5211TIP3   OH215638   1.000   3.817   2.141 -0.2784 -0.1179  0.2489
 5211TIP3    H115639   1.000   3.734   2.189 -0.1955  0.1690  0.7524
 5211TIP3    H215640   1.060   3.873   2.190 -0.5937  0.3497  0.1064
 5212TIP3   OH215641   2.174   3.524   3.813  0.0679  0.0345 -0.1596
 5212TIP3    H115642   2.134   3.438   3.825 -0.5897  0.5947  2.4548
 5212TIP3    H215643   2.225   3.538   3.893  2.5587  0.8916 -1.8068
 5213TIP3   OH215644   2.488   1.594   0.992 -0.5979  0.1105  0.2410
 5213TIP3    H115645   2.487   1.500   1.014 -0.0014  0.1508  0.4441
 5213TIP3    H215646   2.398   1.612   0.964 -0.1238 -1.1048 -2.3208
 5214TIP3   OH215647   5.998   0.198   4.007  0.6309  0.2900 -0.0560
 5214TIP3    H115648   5.938   0.126   3.987 -0.5749  1.0196  0.7662
 5214TIP3    H215649   6.053   0.164   4.078 -0.3483  0.3573  0.7616
 5215TIP3   OH215650   2.261   1.833   4.872 -0.2422 -0.1394 -0.0867
 5215TIP3    H115651   2.211   1.783   4.807  0.3258 -1.0497  0.1475
 5215TIP3    H215652   2.232   1.923   4.861 -2.8726 -0.7647  0.8820
 5216TIP3   OH215653   1.654   0.933   3.588  0.7016 -0.7012 -0.3883
 5216TIP3    H115654   1.589   1.000   3.565  2.1724  0.5382 -1.1152
 5216TIP3    H215655   1.635   0.860   3.529 -0.3395 -0.5745 -0.2388
 5217TIP3   OH215656   5.247   5.530   1.396  0.1270  0.2559  0.7796
 5217TIP3    H115657   5.340   5.537   1.375  0.0763  0.1827  0.5317
 5217TIP3    H215658   5.219   5.449   1.354 -0.3394  0.9220 -0.2164
 5218TIP3   OH215659   3.361   1.670   3.484 -0.1414  0.1945  0.5372
 5218TIP3    H115660   3.413   1.677   3.564 -0.7220  1.8264  0.8080
 5218TIP3    H215661   3.323   1.758   3.472 -0.1891 -0.0466 -1.4358
 5219TIP3   OH215662   4.686   0.427   3.189  0.3747 -0.1170 -0.3719
 5219TIP3    H115663   4.702   0.501   3.249  0.6717  0.0752 -0.6856
 5219TIP3    H215664   4.592   0.430   3.171  0.3073 -0.0956 -0.0198
 5220TIP3   OH215665   0.629   5.243   0.118 -0.1480  0.5836  0.4481
 5220TIP3    H115666   0.625   5.322   0.064  0.4230  0.5694  0.3834
 5220TIP3    H215667   0.537   5.224   0.138 -0.4578  0.0719 -1.2843
 5221TIP3   OH215668   3.769   1.134   0.977  0.2728  0.0943  0.2339
 5221TIP3    H115669   3.724   1.078   0.915  1.0743 -0.8030  0.4483
 5221TIP3    H215670   3.722   1.218   0.972 -0.4234 -0.3360 -0.6769
 5222TIP3   OH215671   1.681   5.982   2.462  0.0782  0.2034  0.5094
 5222TIP3    H115672   1.722   5.932   2.533 -0.5050 -0.0608  0.6625
 5222TIP3    H215673   1.624   5.919   2.418  0.3986  0.3759 -0.1734
 5223TIP3   OH215674   3.540   3.043   3.391  0.2844 -0.3531 -0.3567
 5223TIP3    H115675   3.625   3.004   3.408  0.1900 -0.9503 -1.2316
 5223TIP3    H215676   3.555   3.105   3.320  0.0687 -0.1716 -0.2463
 5224TIP3   OH215677   5.108   4.852   4.382  0.2977  0.3630 -0.7854
 5224TIP3    H115678   5.114   4.759   4.404  2.2760  0.5012 -0.5413
 5224TIP3    H215679   5.152   4.896   4.455  0.4841  1.3867 -1.5071
 5225TIP3   OH215680   0.045   5.015   3.354 -0.3856  0.4783 -0.3663
 5225TIP3    H115681   0.102   4.974   3.289 -1.5102  0.6675 -1.5020
 5225TIP3    H215682   0.045   4.952   3.427  0.9294  0.2895 -0.4972
 5226TIP3   OH215683   3.390   0.661   3.266 -0.0932 -0.1398 -0.0590
 5226TIP3    H115684   3.389   0.729   3.199  1.9137 -0.1057 -0.1134
 5226TIP3    H215685   3.409   0.707   3.347 -1.9596 -0.2580  0.4957
 5227TIP3   OH215686   4.361   3.470   0.587  0.4349 -0.2010  0.5604
 5227TIP3    H115687   4.429   3.508   0.532 -0.9599 -0.6872 -1.6208
 5227TIP3    H215688   4.370   3.375   0.575 -0.6519 -0.2696  0.1652
 5228TIP3   OH215689   3.526   2.513   3.353 -0.0248 -0.2452  0.0058
 5228TIP3    H115690   3.588   2.455   3.397  0.6189  1.3502  1.3276
 5228TIP3    H215691   3.578   2.591   3.332 -1.3848  0.8063  0.4209
 5229TIP3   OH215692   5.980   5.243   2.310 -0.0185  0.8335  0.3962
 5229TIP3    H115693   5.886   5.232   2.326 -0.3147  2.6219  0.0680
 5229TIP3    H215694   5.987   5.261   2.216  0.5010  2.0100  0.6435
 5230TIP3   OH215695   3.191   0.982   0.143  0.4773 -0.2681  0.0810
 5230TIP3    H115696   3.279   1.007   0.113 -0.1329  0.7951 -0.8761
 5230TIP3    H215697   3.137   1.059   0.126 -0.3987 -0.4289  1.8424
 5231TIP3   OH215698   5.814   3.010   0.122 -0.1327  0.0148  0.0338
 5231TIP3    H115699   5.730   2.979   0.088 -1.4728  1.2672  1.9950
 5231TIP3    H215700   5.875   3.003   0.048 -1.8042 -1.4718 -1.2707
 5232TIP3   OH215701   2.808   3.750   2.277  0.5572  0.0693  0.8298
 5232TIP3    H115702   2.794   3.728   2.185  1.4290  0.2496  0.6383
 5232TIP3    H215703   2.720   3.756   2.315  0.1031  1.5037 -0.3445
 5233TIP3   OH215704   0.324   4.780   2.504  0.2573  0.5237 -0.0188
 5233TIP3    H115705   0.344   4.755   2.414  0.4100  0.0115  0.1537
 5233TIP3    H215706   0.406   4.766   2.552 -0.4043 -1.3900  0.6537
 5234TIP3   OH215707   6.149   3.922   2.801 -0.2790  0.1718  0.5089
 5234TIP3    H115708   6.095   3.887   2.872  0.7923 -2.5384  0.1201
 5234TIP3    H215709   6.118   3.878   2.722  0.5693  0.7986 -0.2051
 5235TIP3   OH215710   3.142   3.422   3.888 -0.0452  0.0929  0.2834
 5235TIP3    H115711   3.072   3.428   3.823 -1.2488 -0.1086  1.5133
 5235TIP3    H215712   3.185   3.338   3.870 -1.0761 -0.4787  0.4263
 5236TIP3   OH215713   2.605   3.526   0.851 -0.5937 -0.5731 -1.4932
 5236TIP3    H115714   2.653   3.449   0.883  0.7254  0.2989 -1.2943
 5236TIP3    H215715   2.627   3.595   0.913 -1.0219  0.2096 -2.1948
 5237TIP3   OH215716   5.369   1.534   4.827  0.4061 -0.1381  0.1207
 5237TIP3    H115717   5.403   1.509   4.913  1.0915 -0.3864 -0.2125
 5237TIP3    H215718   5.445   1.569   4.780 -0.0842  0.5563 -0.1821
 5238TIP3   OH215719   1.215   5.490   0.742 -0.0109 -0.6977  0.1957
 5238TIP3    H115720   1.255   5.464   0.659  0.2996  0.7481 -0.1389
 5238TIP3    H215721   1.180   5.409   0.779 -0.3762 -1.3256 -1.4594
 5239TIP3   OH215722   4.758   1.366   1.402  0.4873  0.0995  0.6227
 5239TIP3    H115723   4.698   1.404   1.466 -3.7539 -2.1543 -1.5580
 5239TIP3    H215724   4.785   1.283   1.441  0.8100  0.3631  0.9552
 5240TIP3   OH215725   4.388   2.360   1.832  0.7194 -0.0533 -0.3603
 5240TIP3    H115726   4.333   2.281   1.839 -0.6243  0.6005 -2.5622
 5240TIP3    H215727   4.436   2.362   1.915 -0.3341 -2.3350  0.4160
 5241TIP3   OH215728   5.155   3.841   1.628 -0.1606  0.4284  0.1297
 5241TIP3    H115729   5.073   3.804   1.594  0.1236 -0.2964  0.2139
 5241TIP3    H215730   5.139   3.935   1.632 -0.3852  0.4840 -1.4902
 5242TIP3   OH215731   3.602   2.508   4.530  0.1664 -0.4774  0.4495
 5242TIP3    H115732   3.673   2.468   4.479  0.8698 -0.5313  1.4554
 5242TIP3    H215733   3.538   2.535   4.464  1.0145 -0.6363 -0.4611
 5243TIP3   OH215734   0.475   1.702   0.423 -0.5343  0.2193 -0.2966
 5243TIP3    H115735   0.424   1.626   0.395  0.1698 -0.2350 -0.3707
 5243TIP3    H215736   0.524   1.728   0.345 -0.4351  0.4820 -0.1496
 5244TIP3   OH215737   5.865   1.391   4.597 -0.6068  0.0448 -0.5211
 5244TIP3    H115738   5.937   1.361   4.542 -0.1406  0.3354 -0.0820
 5244TIP3    H215739   5.874   1.487   4.598  0.2668 -0.0045  1.1809
 5245TIP3   OH215740   0.632   1.057   0.807 -0.1095  0.0856 -0.8336
 5245TIP3    H115741   0.695   1.047   0.878  0.1523  0.0878 -1.0628
 5245TIP3    H215742   0.557   1.101   0.847  0.0324  0.0782 -0.5584
 5246TIP3   OH215743   0.440   2.172   3.501  0.3471 -0.1760  0.3054
 5246TIP3    H115744   0.366   2.134   3.455 -0.0517 -0.9872  1.5848
 5246TIP3    H215745   0.515   2.119   3.473  0.0550 -0.8763  0.8147
 5247TIP3   OH215746   6.291   1.938   4.859  0.6039  0.8970 -0.4831
 5247TIP3    H115747   6.242   1.889   4.925  2.1080 -0.4759 -0.3131
 5247TIP3    H215748   6.325   2.015   4.905  2.5090 -0.5661  0.7107
 5248TIP3   OH215749   6.270   1.047   4.363  0.1613  0.0491 -0.1239
 5248TIP3    H115750   6.364   1.037   4.375  0.5057  0.8215 -1.8893
 5248TIP3    H215751   6.232   0.968   4.403  1.4793  0.1088  1.3004
 5249TIP3   OH215752   1.193   5.363   1.604  0.3559 -0.5348 -0.2705
 5249TIP3    H115753   1.156   5.377   1.691  1.2300  0.8122 -0.0941
 5249TIP3    H215754   1.248   5.285   1.613  2.5552  1.0863  1.1073
 5250TIP3   OH215755   3.427   3.649   2.333 -0.2716  0.0943 -0.2221
 5250TIP3    H115756   3.403   3.589   2.263  0.1038 -0.3076 -0.0098
 5250TIP3    H215757   3.522   3.656   2.327 -0.1143 -0.7639  0.8881
 5251TIP3   OH215758   5.500   4.842   1.417 -0.3829 -0.0449 -0.7571
 5251TIP3    H115759   5.595   4.831   1.423 -0.6120 -2.5096 -0.6227
 5251TIP3    H215760   5.465   4.755   1.434 -2.7467  1.0436  0.4234
 5252TIP3   OH215761   0.809   0.599   2.677 -0.2687 -0.2802  0.4470
 5252TIP3    H115762   0.866   0.531   2.714 -0.1945 -0.2574  0.3768
 5252TIP3    H215763   0.865   0.676   2.672 -0.3283 -0.2373  0.4479
 5253TIP3   OH215764   4.453   3.905   3.264 -0.2494  0.2276  0.0884
 5253TIP3    H115765   4.434   3.982   3.318 -0.4607 -0.5614  1.1794
 5253TIP3    H215766   4.439   3.934   3.174 -3.2839  0.6521  0.6108
 5254TIP3   OH215767   4.978   5.594   0.665 -0.0171  0.2884 -0.4854
 5254TIP3    H115768   5.043   5.558   0.726 -0.3152  0.5015 -0.0408
 5254TIP3    H215769   4.934   5.516   0.630  1.4255  0.0454 -1.8823
 5255TIP3   OH215770   3.589   5.099   0.138 -0.1101  0.5509  0.5079
 5255TIP3    H115771   3.653   5.114   0.068 -2.8780  1.6911 -2.0095
 5255TIP3    H215772   3.589   5.181   0.187  0.3887  0.5128  0.5846
 5256TIP3   OH215773   1.419   3.360   2.881  0.4748 -0.0776 -0.5082
 5256TIP3    H115774   1.391   3.279   2.923  3.9601 -1.2609 -0.0970
 5256TIP3    H215775   1.473   3.404   2.946 -0.0558  1.8437 -1.2828
 5257TIP3   OH215776   2.201   3.970   1.706 -0.1767 -0.0190  0.2982
 5257TIP3    H115777   2.214   3.977   1.800 -0.4282  0.3216  0.3122
 5257TIP3    H215778   2.277   3.922   1.674 -0.3758 -0.6320  0.7473
 5258TIP3   OH215779   2.907   5.421   3.058 -0.5293 -0.3924 -0.2446
 5258TIP3    H115780   2.983   5.442   3.111 -0.1607 -1.4460 -0.3344
 5258TIP3    H215781   2.892   5.499   3.005  0.3499 -0.0990 -0.0664
 5259TIP3   OH215782   1.764   3.427   2.954  0.4390 -0.0158 -0.2257
 5259TIP3    H115783   1.687   3.444   3.007  0.2020 -0.1908 -0.5062
 5259TIP3    H215784   1.784   3.335   2.970  0.8912  0.1612  0.2324
 5260TIP3   OH215785   3.732   3.413   4.796 -0.2053  0.2383 -0.0964
 5260TIP3    H115786   3.705   3.364   4.718 -0.8195  1.6180 -0.7978
 5260TIP3    H215787   3.755   3.346   4.860  1.0177 -0.9382 -1.6944
 5261TIP3   OH215788   5.943   1.943   4.765 -0.5153  0.1215 -0.1609
 5261TIP3    H115789   6.004   1.913   4.833 -0.6775 -0.3512 -0.2208
 5261TIP3    H215790   5.997   1.949   4.686 -0.8652 -1.9512 -0.6271
 5262TIP3   OH215791   3.997   5.926   3.917 -0.3415 -0.1666 -0.2335
 5262TIP3    H115792   4.007   5.904   4.009 -1.9154  0.0062 -0.0063
 5262TIP3    H215793   3.914   5.887   3.891 -1.1097  1.8284 -0.9394
 5263TIP3   OH215794   0.056   3.537   0.686 -0.2701 -0.0084  0.1854
 5263TIP3    H115795   0.087   3.526   0.777 -1.4229  1.5047  0.8068
 5263TIP3    H215796  -0.029   3.494   0.684  0.0896 -0.6923 -0.3955
 5264TIP3   OH215797   0.779   1.842   1.570 -0.5007 -0.0151  0.1258
 5264TIP3    H115798   0.875   1.844   1.564 -0.5874  0.7062 -4.1242
 5264TIP3    H215799   0.761   1.778   1.639  3.0214 -0.8084  0.5182
 5265TIP3   OH215800   2.015   4.431   0.070  0.1816  0.0795  0.0675
 5265TIP3    H115801   2.048   4.491   0.002  2.6188  0.2430  1.2710
 5265TIP3    H215802   1.951   4.482   0.119 -1.5931 -0.0230 -1.9892
 5266TIP3   OH215803   1.965   3.504   0.095 -0.0281 -0.1339  0.0089
 5266TIP3    H115804   2.042   3.448   0.093 -0.7830 -1.3552  2.0127
 5266TIP3    H215805   1.915   3.479   0.017  0.6150 -0.8263 -0.1859
 5267TIP3   OH215806   1.775   2.418   0.240 -0.7027  0.0087  0.6476
 5267TIP3    H115807   1.836   2.406   0.167 -1.9368 -1.3046 -0.2083
 5267TIP3    H215808   1.832   2.440   0.315  0.6973  0.0547 -0.3826
 5268TIP3   OH215809   3.599   3.771   0.248  0.2598  0.6706  0.2099
 5268TIP3    H115810   3.618   3.845   0.190 -0.0447  1.3707  0.9780
 5268TIP3    H215811   3.541   3.807   0.315 -1.2282 -0.6463 -0.2811
 5269TIP3   OH215812   2.812   0.920   3.817  1.0131  0.2789  0.4510
 5269TIP3    H115813   2.742   0.872   3.772 -0.6932  1.9496  1.1431
 5269TIP3    H215814   2.893   0.879   3.786 -0.2257 -1.3340 -0.8974
 5270TIP3   OH215815   6.344   0.831   0.919 -0.8308 -0.0808 -0.1138
 5270TIP3    H115816   6.336   0.921   0.886 -3.4641 -0.4245 -0.5673
 5270TIP3    H215817   6.286   0.828   0.995  0.9676 -0.8350  1.3156
 5271TIP3   OH215818   2.273   0.569   2.632 -0.2512 -0.4496 -0.0987
 5271TIP3    H115819   2.275   0.636   2.563  1.0353 -0.6837 -0.3265
 5271TIP3    H215820   2.191   0.522   2.618  0.4920 -1.2178 -2.1941
 5272TIP3   OH215821   0.966   2.775   0.370 -0.0807  0.2455 -0.3243
 5272TIP3    H115822   1.008   2.861   0.378 -1.7612  1.1484 -0.7865
 5272TIP3    H215823   0.926   2.761   0.456 -0.1130  0.1039 -0.3630
 5273TIP3   OH215824   5.051   1.629   3.964 -0.2241  0.2940  0.0990
 5273TIP3    H115825   5.128   1.667   3.921  0.1115  1.5391  1.7261
 5273TIP3    H215826   5.063   1.648   4.057 -0.8970 -2.3642  0.8172
 5274TIP3   OH215827   0.491   0.712   4.059  0.3234  0.1759 -0.0469
 5274TIP3    H115828   0.423   0.679   4.000 -0.0250 -1.3722  1.1810
 5274TIP3    H215829   0.448   0.785   4.105 -0.3992 -0.5527  0.4550
 5275TIP3   OH215830   1.736   5.468   1.105 -0.0401 -0.0680 -0.4960
 5275TIP3    H115831   1.740   5.481   1.010 -0.2457  0.7002 -0.4104
 5275TIP3    H215832   1.689   5.545   1.137  1.0363  0.2630  0.3369
 5276TIP3   OH215833   5.660   2.361   1.188  0.3697 -0.1762  0.4999
 5276TIP3    H115834   5.631   2.404   1.107  3.0872  0.1115 -0.4403
 5276TIP3    H215835   5.720   2.424   1.228  0.4651 -1.0538  1.7775
 5277TIP3   OH215836   5.201   3.129   2.668 -0.3511  0.1458 -0.3091
 5277TIP3    H115837   5.212   3.217   2.632  0.2772 -0.0050 -0.4967
 5277TIP3    H215838   5.136   3.088   2.612  1.3072 -0.4159 -1.9067
 5278TIP3   OH215839   1.302   2.330   5.095 -0.0539 -0.5570  0.0845
 5278TIP3    H115840   1.242   2.274   5.143  0.8274 -2.1457 -0.5794
 5278TIP3    H215841   1.373   2.271   5.069  1.0484  0.9427 -0.4119
 5279TIP3   OH215842   0.275   2.364   1.724 -0.1790 -0.0051  0.0444
 5279TIP3    H115843   0.265   2.270   1.707  0.3186 -0.1981  0.7617
 5279TIP3    H215844   0.204   2.385   1.785  0.7158 -0.2902  1.2068
 5280TIP3   OH215845   2.464   0.640   3.933 -0.3812 -0.1753 -0.2627
 5280TIP3    H115846   2.416   0.692   3.869 -1.6364 -1.1250 -0.1183
 5280TIP3    H215847   2.531   0.700   3.966 -1.8492  1.4288 -0.0097
 5281TIP3   OH215848   4.404   1.654   4.711 -0.1219 -0.6395  0.3656
 5281TIP3    H115849   4.420   1.694   4.626 -2.4112 -0.4010 -0.0350
 5281TIP3    H215850   4.341   1.712   4.754  1.6783 -0.2512  2.6640
 5282TIP3   OH215851   2.107   3.618   0.726 -1.0117 -0.4028  0.0110
 5282TIP3    H115852   2.059   3.608   0.809  3.0657  0.4917  2.7539
 5282TIP3    H215853   2.098   3.710   0.704 -0.7925 -0.2946  0.3671
 5283TIP3   OH215854   4.357   4.881   4.630  0.4747 -0.6321  0.1912
 5283TIP3    H115855   4.334   4.846   4.544 -1.0811 -2.8996  1.3960
 5283TIP3    H215856   4.435   4.934   4.615 -1.1152  1.0563 -2.9583
 5284TIP3   OH215857   2.588   0.449   0.095 -0.0242  0.2703 -0.8330
 5284TIP3    H115858   2.527   0.501   0.042 -0.2549  1.3852  0.4833
 5284TIP3    H215859   2.671   0.496   0.089  0.5118 -0.7350 -1.8475
 5285TIP3   OH215860   3.051   1.243   3.224  0.0398 -0.4965  0.0324
 5285TIP3    H115861   3.115   1.250   3.295 -0.2420 -1.6948  0.4338
 5285TIP3    H215862   3.043   1.332   3.189  0.0924  0.1486  1.5877
 5286TIP3   OH215863   2.842   1.159   4.740 -0.7047  0.6040  0.1351
 5286TIP3    H115864   2.812   1.140   4.651 -0.7077  1.1996  0.0061
 5286TIP3    H215865   2.767   1.200   4.782 -1.5491 -1.8131  1.1814
 5287TIP3   OH215866   3.615   2.470   1.892  0.4101  0.3406 -0.3762
 5287TIP3    H115867   3.534   2.513   1.918  0.7987  0.8829 -0.0363
 5287TIP3    H215868   3.614   2.386   1.939  0.6798  0.9269  0.7319
 5288TIP3   OH215869   0.435   0.126   2.372  0.2876 -0.8888  0.1235
 5288TIP3    H115870   0.389   0.055   2.327 -0.2079  0.6724 -2.0306
 5288TIP3    H215871   0.371   0.164   2.431  0.6839 -2.4441  1.6131
 5289TIP3   OH215872   0.043   0.598   4.136  0.0532 -0.0147  0.3796
 5289TIP3    H115873  -0.031   0.551   4.099 -0.5387  1.5395 -0.4955
 5289TIP3    H215874   0.013   0.627   4.222 -1.0295  2.0148 -0.6086
 5290TIP3   OH215875   1.474   3.701   3.904 -0.2442  0.1048  0.4682
 5290TIP3    H115876   1.546   3.741   3.952 -1.9556  1.9026  1.7148
 5290TIP3    H215877   1.395   3.735   3.947 -1.8903  0.2920 -2.4420
 5291TIP3   OH215878   6.211   5.343   1.447 -0.4954 -0.1472 -0.1927
 5291TIP3    H115879   6.126   5.358   1.404 -1.1935 -0.1590  1.1417
 5291TIP3    H215880   6.265   5.416   1.419 -2.3032  2.3874  2.3326
 5292TIP3   OH215881   1.912   5.863   4.962 -0.0813  0.1306  0.2472
 5292TIP3    H115882   1.840   5.802   4.943  0.1600 -0.6688  1.7501
 5292TIP3    H215883   1.908   5.927   4.891 -1.9041 -0.2216 -0.0335
 5293TIP3   OH215884   5.347   5.628   2.895 -0.2498  0.1249 -0.0919
 5293TIP3    H115885   5.409   5.684   2.942 -2.7568  1.8509  1.3805
 5293TIP3    H215886   5.368   5.642   2.802  2.7638 -0.9364  0.3201
 5294TIP3   OH215887   3.219   3.183   4.615 -0.3622 -0.1774  0.4891
 5294TIP3    H115888   3.194   3.098   4.579  0.3863 -0.4546  0.5891
 5294TIP3    H215889   3.236   3.165   4.708  1.6683 -0.3609  0.1301
 5295TIP3   OH215890   1.256   3.005   1.507 -0.0522 -0.2031 -0.4293
 5295TIP3    H115891   1.220   2.989   1.595 -1.4972 -2.2797 -1.3263
 5295TIP3    H215892   1.350   2.997   1.518 -0.1644  0.0177  0.9948
 5296TIP3   OH215893   6.117   0.110   4.235 -0.1872  0.0857 -0.2372
 5296TIP3    H115894   6.095   0.062   4.314  1.2525  1.0141  0.7892
 5296TIP3    H215895   6.175   0.180   4.265 -0.8522  1.4190 -1.9084
 5297TIP3   OH215896   4.444   1.875   4.930  0.8458  0.1140 -0.1278
 5297TIP3    H115897   4.474   1.890   4.840  2.0466  0.1701  0.2614
 5297TIP3    H215898   4.507   1.812   4.965 -0.6465 -1.3168  0.1262
 5298TIP3   OH215899   1.551   1.640   4.359 -0.1054  0.2499 -0.6497
 5298TIP3    H115900   1.644   1.658   4.364 -0.0734 -0.0641 -0.0140
 5298TIP3    H215901   1.521   1.686   4.280  0.4177  1.0608 -0.3831
 5299TIP3   OH215902   3.105   2.502   0.804  0.2593  0.0094 -0.3683
 5299TIP3    H115903   3.109   2.587   0.760 -0.4915 -0.2908 -1.0308
 5299TIP3    H215904   3.174   2.450   0.761  0.5275  0.1947 -0.1598
 5300TIP3   OH215905   3.725   1.010   0.132  0.4235 -0.0533 -0.1562
 5300TIP3    H115906   3.738   1.052   0.047 -1.6500  0.9667 -0.0326
 5300TIP3    H215907   3.794   1.047   0.187  2.2212 -1.2357 -1.5091
 5301TIP3   OH215908   0.683   0.702   3.818  0.0019 -0.0623 -0.0348
 5301TIP3    H115909   0.636   0.637   3.870  0.7966 -0.5409  0.0959
 5301TIP3    H215910   0.620   0.728   3.751 -0.0391 -1.6153 -0.6326
 5302TIP3   OH215911   1.068   0.600   3.312 -0.6401 -0.2219 -0.0344
 5302TIP3    H115912   1.075   0.695   3.300  0.0156 -0.2415  0.1558
 5302TIP3    H215913   1.052   0.589   3.406  0.1774 -0.3302  0.1038
 5303TIP3   OH215914   4.363   4.880   0.058 -0.3496 -0.1433  0.8201
 5303TIP3    H115915   4.280   4.922   0.081 -0.3437  1.0661 -1.1811
 5303TIP3    H215916   4.364   4.879  -0.038  1.2753 -1.5313  0.8019
 5304TIP3   OH215917   6.053   4.018   2.005 -0.1966  0.7603 -0.5508
 5304TIP3    H115918   5.981   3.984   2.058  0.7487  0.2258  0.4261
 5304TIP3    H215919   6.030   4.110   1.990 -0.2323  1.1155  1.3397
 5305TIP3   OH215920   0.476   3.184   2.063 -0.2964  0.2857 -0.3477
 5305TIP3    H115921   0.537   3.178   2.136 -1.9321  1.6630  1.2373
 5305TIP3    H215922   0.529   3.215   1.990  1.1881 -0.1183  0.5224
 5306TIP3   OH215923   0.401   3.379   4.800  0.0786 -0.1808 -0.2989
 5306TIP3    H115924   0.371   3.403   4.713  0.3150 -0.3131 -0.4181
 5306TIP3    H215925   0.416   3.284   4.795  0.0293 -0.1996 -0.0968
 5307TIP3   OH215926   2.383   5.784   1.744 -0.1655  0.1852  0.2199
 5307TIP3    H115927   2.475   5.776   1.768 -0.4298 -1.3471  0.9261
 5307TIP3    H215928   2.381   5.776   1.649  0.3760 -0.6645  0.2690
 5308TIP3   OH215929   0.340   2.555   4.153  0.1443 -0.0344 -0.0636
 5308TIP3    H115930   0.404   2.584   4.218 -1.7897  0.9349  1.5713
 5308TIP3    H215931   0.320   2.465   4.177 -0.5724  0.3248  0.7596
 5309TIP3   OH215932   2.891   0.077   2.058 -0.0208  0.1117 -0.3626
 5309TIP3    H115933   2.977   0.069   2.099 -0.0285  1.5438  0.0068
 5309TIP3    H215934   2.909   0.117   1.973 -0.3221  0.5670 -0.2177
 5310TIP3   OH215935   4.911   4.802   1.249  0.0536  0.3098  0.0743
 5310TIP3    H115936   4.893   4.835   1.161 -1.2950 -2.0973 -0.6433
 5310TIP3    H215937   4.998   4.835   1.270  1.6961 -1.3270 -3.3881
 5311TIP3   OH215938   4.359   5.633   4.492 -0.2747 -0.2512 -0.2194
 5311TIP3    H115939   4.275   5.670   4.464 -0.2979 -1.2873 -1.5747
 5311TIP3    H215940   4.423   5.674   4.434  0.3138  1.1874  1.3596
 5312TIP3   OH215941   5.884   5.917   0.143  0.5095  0.2237 -0.1484
 5312TIP3    H115942   5.976   5.891   0.144  0.7107  0.8773 -1.1452
 5312TIP3    H215943   5.848   5.879   0.224  0.9073 -2.6444 -1.2096
 5313TIP3   OH215944   4.818   5.192   3.236  0.0690 -0.0958  0.5445
 5313TIP3    H115945   4.751   5.256   3.257  0.3803  0.4898 -0.2193
 5313TIP3    H215946   4.837   5.205   3.144  0.6628 -0.7945  0.5519
 5314TIP3   OH215947   5.052   4.982   3.159  0.1851  0.0833  0.1043
 5314TIP3    H115948   4.958   4.997   3.147  0.4873  0.2878 -2.5107
 5314TIP3    H215949   5.094   5.058   3.119  1.5337  0.9649  2.8951
 5315TIP3   OH215950   0.024   4.199   3.678  0.1914 -0.1706  0.4565
 5315TIP3    H115951   0.029   4.236   3.767 -0.2601 -0.3463  0.5589
 5315TIP3    H215952   0.109   4.217   3.640  0.0249  0.8616  0.5486
 5316TIP3   OH215953   1.338   4.948   2.736 -0.3240  0.2036  0.2890
 5316TIP3    H115954   1.277   4.878   2.764  1.5682 -1.0796  1.4698
 5316TIP3    H215955   1.385   4.910   2.662  0.6025  0.2514  0.8341
 5317TIP3   OH215956   5.305   1.137   4.943  0.0678 -0.1454  0.0188
 5317TIP3    H115957   5.292   1.131   5.038  1.2482 -0.8728  0.1517
 5317TIP3    H215958   5.222   1.172   4.910 -0.5118 -0.2794  1.2681
 5318TIP3   OH215959   5.703   2.147   1.584 -0.7368  0.1971  0.2315
 5318TIP3    H115960   5.748   2.166   1.502  0.0733  0.7027  0.7839
 5318TIP3    H215961   5.632   2.088   1.559 -0.3506  0.1489 -0.7940
 5319TIP3   OH215962   1.469   4.181   0.488  0.0262 -0.5970 -0.1051
 5319TIP3    H115963   1.470   4.106   0.548  0.7824 -0.4668  0.0521
 5319TIP3    H215964   1.514   4.150   0.410  0.2890 -0.3263 -0.0627
 5320TIP3   OH215965   0.560   1.791   3.754 -0.3681 -0.1406  0.9030
 5320TIP3    H115966   0.485   1.851   3.755 -1.0547 -0.8384 -1.4433
 5320TIP3    H215967   0.632   1.842   3.718  0.2951  0.4626  2.9469
 5321TIP3   OH215968   2.285   2.620   1.679  0.0359  0.2519  0.1097
 5321TIP3    H115969   2.209   2.588   1.631  0.6683 -0.0871 -0.6971
 5321TIP3    H215970   2.264   2.604   1.771 -0.8760  0.1926 -0.1036
 5322TIP3   OH215971   2.606   0.613   2.152  0.0282 -0.0272 -0.1035
 5322TIP3    H115972   2.570   0.551   2.088 -0.1668 -0.4415  0.4046
 5322TIP3    H215973   2.616   0.562   2.232 -1.5847  0.9609  0.7826
 5323TIP3   OH215974   2.374   2.220   5.092 -0.1222  0.0960  0.5520
 5323TIP3    H115975   2.408   2.165   5.163  1.0531  0.1463  0.0494
 5323TIP3    H215976   2.447   2.226   5.030 -0.8768  0.6869 -0.2907
 5324TIP3   OH215977   4.380   0.739   1.875 -0.0459  0.9331 -0.0590
 5324TIP3    H115978   4.437   0.690   1.935  1.2790  1.8579 -0.5347
 5324TIP3    H215979   4.436   0.762   1.801 -1.8552 -0.9787 -2.2000
 5325TIP3   OH215980   2.691   1.112   3.493  0.5092 -0.2832 -0.0106
 5325TIP3    H115981   2.648   1.176   3.551  0.5880  0.1157 -0.3912
 5325TIP3    H215982   2.780   1.106   3.526  0.8521  0.7157 -0.7089
 5326TIP3   OH215983   1.259   5.435   0.460 -0.4118 -0.0696  0.5674
 5326TIP3    H115984   1.182   5.387   0.492 -0.6642 -0.7682 -0.9919
 5326TIP3    H215985   1.260   5.418   0.366  1.6222 -0.0295  0.5426
 5327TIP3   OH215986   0.811   2.083   2.406 -0.1565  0.2453  0.5213
 5327TIP3    H115987   0.735   2.079   2.464 -0.8281 -0.0813 -0.3443
 5327TIP3    H215988   0.882   2.115   2.461 -0.2510 -1.9171  2.0359
 5328TIP3   OH215989   4.072   4.167   0.319 -0.1434  0.4063  0.6926
 5328TIP3    H115990   4.115   4.099   0.370 -1.3750 -1.1136 -0.1942
 5328TIP3    H215991   4.089   4.144   0.227  0.7310  2.2110  0.3466
 5329TIP3   OH215992   4.254   0.101   2.621 -0.5036  0.2068 -0.2596
 5329TIP3    H115993   4.336   0.114   2.574 -0.7728 -1.2790 -1.2004
 5329TIP3    H215994   4.225   0.013   2.596 -1.1392 -0.2962  1.9694
 5330TIP3   OH215995   6.343   4.197   0.763 -0.0282 -0.4731 -0.6922
 5330TIP3    H115996   6.268   4.241   0.803  1.3977  1.5573 -0.1197
 5330TIP3    H215997   6.404   4.181   0.836  1.3218  0.5560 -1.5431
 5331TIP3   OH215998   2.513   4.670   4.816  0.1185  0.0511 -0.0636
 5331TIP3    H115999   2.475   4.693   4.731 -0.3311  0.4769  0.2474
 5331TIP3    H216000   2.571   4.743   4.837  0.2686 -0.0782 -0.0286
 5332TIP3   OH216001   1.545   0.571   1.223 -0.4551 -0.1711  0.0661
 5332TIP3    H116002   1.465   0.620   1.207 -0.6331  0.9285  3.4927
 5332TIP3    H216003   1.609   0.637   1.251  0.7863 -1.3521  0.1524
 5333TIP3   OH216004   4.632   2.320   0.703  0.5135  0.2466 -0.5320
 5333TIP3    H116005   4.630   2.231   0.666 -0.4325  0.0533 -0.0541
 5333TIP3    H216006   4.710   2.322   0.758 -0.8106 -1.1803  1.5431
 5334TIP3   OH216007   2.247   1.243   3.222  0.1969 -0.1983  0.5923
 5334TIP3    H116008   2.228   1.262   3.130  0.3047 -1.1454  0.3583
 5334TIP3    H216009   2.274   1.327   3.259  3.4004 -0.3343 -1.0400
 5335TIP3   OH216010   4.666   3.511   3.197  0.1102  0.1025  0.3413
 5335TIP3    H116011   4.616   3.561   3.261 -0.7409 -0.0103 -0.2168
 5335TIP3    H216012   4.652   3.556   3.114  0.6575 -0.1318  0.1130
 5336TIP3   OH216013   6.288   2.708   2.444 -0.5318  0.1133 -0.5749
 5336TIP3    H116014   6.241   2.661   2.513  0.2367 -0.8701 -0.7051
 5336TIP3    H216015   6.244   2.682   2.363 -1.7155  1.6084 -0.4552
 5337TIP3   OH216016   4.113   3.726   0.768  0.3193 -0.5852 -0.5078
 5337TIP3    H116017   4.037   3.717   0.711  0.6398  0.0386 -1.0363
 5337TIP3    H216018   4.096   3.664   0.839 -1.1449  0.2189 -0.1083
 5338TIP3   OH216019   0.310   4.782   1.444 -0.7911  0.5492  0.5444
 5338TIP3    H116020   0.215   4.790   1.455 -1.1732 -2.4278  0.1964
 5338TIP3    H216021   0.336   4.712   1.504  0.8545  0.0518 -0.6575
 5339TIP3   OH216022   5.120   1.561   2.435 -0.1595 -0.8766 -0.2161
 5339TIP3    H116023   5.188   1.596   2.492  1.4859 -0.6110 -2.1898
 5339TIP3    H216024   5.084   1.486   2.482 -0.5715  0.6992  2.1347
 5340TIP3   OH216025   3.520   3.976   1.479  0.4111 -0.8184  0.3587
 5340TIP3    H116026   3.579   3.941   1.413 -0.2488 -1.0882 -0.1022
 5340TIP3    H216027   3.460   3.904   1.498 -1.0414  0.0464 -0.6838
 5341TIP3   OH216028   2.386   2.840   3.293 -0.0168  0.6055  0.0781
 5341TIP3    H116029   2.326   2.769   3.312  0.2585  0.1356 -0.7924
 5341TIP3    H216030   2.355   2.878   3.211  0.7287  0.4987 -0.2679
 5342TIP3   OH216031   5.295   2.777   4.754  0.9801  0.0264 -0.2722
 5342TIP3    H116032   5.348   2.793   4.832 -0.0886  0.3957  0.4030
 5342TIP3    H216033   5.264   2.687   4.764  1.3844 -0.1553 -0.6160
 5343TIP3   OH216034   1.173   0.347   5.120 -0.5413  0.0934 -0.1189
 5343TIP3    H116035   1.143   0.404   5.191  0.5466  0.8944 -0.2736
 5343TIP3    H216036   1.159   0.399   5.041  0.2399  0.0516 -0.2854
 5344TIP3   OH216037   5.070   2.108   2.692 -0.1144  0.2283  0.6052
 5344TIP3    H116038   5.130   2.130   2.620 -0.6554 -0.0988  0.0492
 5344TIP3    H216039   5.127   2.101   2.768  0.2525  2.3208  0.5785
 5345TIP3   OH216040   1.712   3.859   2.775  0.0712  0.3804  0.7199
 5345TIP3    H116041   1.751   3.804   2.843 -1.3626 -1.8341 -0.1212
 5345TIP3    H216042   1.618   3.852   2.791 -0.2118  1.0917 -0.5607
 5346TIP3   OH216043   3.948   0.169   1.216  0.2515 -0.4711 -0.5472
 5346TIP3    H116044   4.024   0.122   1.183 -0.3619 -2.2318  0.3898
 5346TIP3    H216045   3.979   0.259   1.230  1.3798 -0.4612 -2.7116
 5347TIP3   OH216046   4.116   5.806   0.735  0.3843  0.4273  0.1683
 5347TIP3    H116047   4.210   5.827   0.744  0.5532 -0.5680  0.9446
 5347TIP3    H216048   4.088   5.785   0.825  0.3163 -2.8466 -0.4826
 5348TIP3   OH216049   2.856   3.012   3.260  0.3840 -0.3113 -0.1019
 5348TIP3    H116050   2.782   2.952   3.249 -0.5204  0.3939  1.6120
 5348TIP3    H216051   2.921   2.961   3.309  0.5191 -0.5410 -0.5144
 5349TIP3   OH216052   5.875   2.586   1.864 -0.4219  0.3820 -0.3726
 5349TIP3    H116053   5.875   2.568   1.770 -0.9442 -0.1901 -0.2719
 5349TIP3    H216054   5.919   2.510   1.903  0.3677  0.9223 -0.2045
 5350TIP3   OH216055   2.903   0.841   0.041  0.0333  0.5390  0.2933
 5350TIP3    H116056   2.809   0.828   0.033  0.2408  0.0434 -2.4261
 5350TIP3    H216057   2.923   0.822   0.133 -2.5067  0.8172  0.9621
 5351TIP3   OH216058   3.531   0.489   2.079 -0.0860  0.2530  0.2856
 5351TIP3    H116059   3.552   0.396   2.084  1.3920  0.5298 -0.3485
 5351TIP3    H216060   3.480   0.506   2.158 -0.2669 -1.0558  0.4771
 5352TIP3   OH216061   0.439   4.335   0.178  0.0809  0.1998 -0.1253
 5352TIP3    H116062   0.509   4.348   0.114 -0.2726 -2.1266 -1.0708
 5352TIP3    H216063   0.481   4.289   0.250 -0.0077  0.8351  0.3422
 5353TIP3   OH216064   3.107   0.745   0.246 -0.0693  0.1000  0.1429
 5353TIP3    H116065   3.153   0.685   0.187 -0.2694 -0.7654  0.8409
 5353TIP3    H216066   3.139   0.832   0.222  1.1968 -0.3949 -0.0415
 5354TIP3   OH216067   2.919   4.650   0.223  0.0864 -0.3537 -0.2472
 5354TIP3    H116068   2.835   4.677   0.260  0.2297  0.5520 -0.5511
 5354TIP3    H216069   2.914   4.555   0.219 -0.4505 -0.3898  0.8640
 5355TIP3   OH216070   1.015   1.897   1.069 -0.3115  0.4050  0.1602
 5355TIP3    H116071   0.955   1.826   1.046  0.7268 -0.7520  0.8796
 5355TIP3    H216072   1.101   1.867   1.038 -0.1036  2.1030 -1.0062
 5356TIP3   OH216073   2.075   2.021   1.705 -0.0666  0.2200  0.0881
 5356TIP3    H116074   2.050   2.046   1.794  1.2693  1.6540  0.1050
 5356TIP3    H216075   2.163   1.983   1.715 -0.0403  0.0922 -0.5833
 5357TIP3   OH216076   6.281   0.811   0.562 -0.1654  0.3564  0.6377
 5357TIP3    H116077   6.337   0.772   0.630  2.3686  0.0882 -1.4285
 5357TIP3    H216078   6.338   0.875   0.519 -0.3147 -1.9653 -3.5084
 5358TIP3   OH216079   0.557   3.421   1.285 -0.6699  0.0267  0.6943
 5358TIP3    H116080   0.639   3.386   1.251 -0.8478 -1.7306  1.9397
 5358TIP3    H216081   0.492   3.354   1.264 -1.2182  0.0169  2.2869
 5359TIP3   OH216082   4.881   1.169   2.504 -0.2215 -0.2968 -0.1526
 5359TIP3    H116083   4.958   1.166   2.447  1.0914 -1.9777  1.5761
 5359TIP3    H216084   4.875   1.261   2.532  0.6479  0.0219 -0.9700
 5360TIP3   OH216085   4.016   0.145   2.304  0.0588 -0.9213  0.3904
 5360TIP3    H116086   3.961   0.211   2.261  1.5807  0.1797  0.0243
 5360TIP3    H216087   3.983   0.141   2.394 -1.0370 -0.8021  0.0084
 5361TIP3   OH216088   2.656   2.851   3.240 -0.3730 -0.0989  0.4890
 5361TIP3    H116089   2.658   2.760   3.212 -0.0667  0.0201  0.1099
 5361TIP3    H216090   2.563   2.873   3.245 -0.4675 -0.6727  1.3957
 5362TIP3   OH216091   5.982   4.377   1.184  0.3799 -0.1452 -0.1496
 5362TIP3    H116092   5.941   4.424   1.112  2.5215 -0.1990 -1.4925
 5362TIP3    H216093   5.926   4.301   1.199 -0.4634  0.2266 -1.3015
 5363TIP3   OH216094   5.800   3.951   0.084  0.0593 -0.1397 -0.3100
 5363TIP3    H116095   5.812   3.973  -0.008  1.4632 -0.8804 -0.3341
 5363TIP3    H216096   5.800   3.855   0.086 -0.7444 -0.1416  0.3777
 5364TIP3   OH216097   1.754   2.887   2.169  0.4624  0.4831  0.3235
 5364TIP3    H116098   1.824   2.907   2.232  1.9689  0.8022 -1.3750
 5364TIP3    H216099   1.728   2.797   2.190  0.8804  0.6081  1.4461
 5365TIP3   OH216100   0.151   3.194   1.973 -0.6969  0.4520 -0.0924
 5365TIP3    H116101   0.056   3.182   1.981 -0.6324  0.4447  0.7828
 5365TIP3    H216102   0.160   3.275   1.922 -1.2641  2.8171  3.2375
 5366TIP3   OH216103   2.416   5.351   4.177 -0.4359  0.0453 -0.2828
 5366TIP3    H116104   2.327   5.378   4.157 -0.0870  1.0405 -0.5893
 5366TIP3    H216105   2.407   5.272   4.230 -1.5411  1.2268  1.3732
 5367TIP3   OH216106   5.498   3.227   3.798 -0.1004 -0.1529  0.0116
 5367TIP3    H116107   5.485   3.289   3.727 -0.4885  1.4864  1.4531
 5367TIP3    H216108   5.588   3.243   3.828 -0.1717 -0.3319  0.3323
 5368TIP3   OH216109   3.735   2.803   2.474 -0.3624 -0.0105  0.4826
 5368TIP3    H116110   3.690   2.886   2.456 -0.4080 -0.0004  0.6447
 5368TIP3    H216111   3.826   2.820   2.449 -0.5820 -0.2531 -0.5266
 5369TIP3   OH216112   3.984   1.404   0.422 -0.0754 -0.2788 -0.1651
 5369TIP3    H116113   4.026   1.487   0.398  0.0703 -0.8404 -1.9372
 5369TIP3    H216114   4.055   1.353   0.462 -0.2060  0.4726  1.0990
 5370TIP3   OH216115   1.988   4.569   3.225 -0.2401  0.0194 -0.1325
 5370TIP3    H116116   1.897   4.596   3.208 -0.1996  0.8182  0.8445
 5370TIP3    H216117   2.041   4.635   3.179 -0.1352 -0.8387 -1.2875
 5371TIP3   OH216118   4.842   2.064   0.745 -0.0546 -0.1500  0.7009
 5371TIP3    H116119   4.776   2.055   0.676 -1.1243 -0.9193  1.7930
 5371TIP3    H216120   4.833   1.985   0.799  1.9454 -0.4151  0.7554
 5372TIP3   OH216121   0.997   1.709   4.051 -0.1077  0.2301  0.3833
 5372TIP3    H116122   0.992   1.686   3.958 -0.4791  1.4057  0.0970
 5372TIP3    H216123   1.016   1.626   4.095 -1.8106 -0.7025 -0.5412
 5373TIP3   OH216124   2.291   1.588   0.545 -0.4274 -0.3787 -0.6020
 5373TIP3    H116125   2.366   1.637   0.577 -0.0471 -1.5224  0.3174
 5373TIP3    H216126   2.216   1.630   0.587 -0.1043 -0.6348  0.2354
 5374TIP3   OH216127   2.796   0.824   3.207 -0.1681 -0.2204  0.6758
 5374TIP3    H116128   2.794   0.919   3.190  0.1580  0.1283  2.4048
 5374TIP3    H216129   2.836   0.787   3.128 -1.5330  0.9234 -0.6043
 5375TIP3   OH216130   4.487   1.425   3.548 -0.3931  0.8937 -0.4957
 5375TIP3    H116131   4.431   1.348   3.562 -0.5636  1.0527 -0.2883
 5375TIP3    H216132   4.486   1.471   3.632  1.7071 -0.1641  0.1664
 5376TIP3   OH216133   0.943   5.770   2.426  0.2396 -0.0314 -0.1198
 5376TIP3    H116134   0.985   5.704   2.370  0.9111  1.0942 -0.9777
 5376TIP3    H216135   1.001   5.777   2.502 -0.1057 -0.7868  0.2230
 5377TIP3   OH216136   4.821   3.387   3.402  0.0960  0.8409  0.0578
 5377TIP3    H116137   4.760   3.417   3.335  0.0933  2.7789  0.8721
 5377TIP3    H216138   4.837   3.463   3.457  1.6502 -0.1613  1.1041
 5378TIP3   OH216139   4.595   1.521   3.299 -0.4265  0.2418  0.0995
 5378TIP3    H116140   4.560   1.476   3.376 -0.1000 -0.4114 -0.1229
 5378TIP3    H216141   4.618   1.450   3.238 -0.3347  0.7345 -0.4465
 5379TIP3   OH216142   1.029   4.558   1.225 -0.5611  0.4402 -0.5552
 5379TIP3    H116143   1.055   4.539   1.135 -1.9131  2.5265 -1.4553
 5379TIP3    H216144   1.056   4.480   1.275  1.6214 -0.1079 -2.4444
 5380TIP3   OH216145   2.899   0.194   4.171  0.2999 -0.4386 -0.5576
 5380TIP3    H116146   2.892   0.123   4.234 -1.9619  0.8137  0.7494
 5380TIP3    H216147   2.822   0.185   4.115  1.2357 -0.3563 -1.9206
 5381TIP3   OH216148   4.027   2.839   3.152 -0.1579 -0.3730  0.6238
 5381TIP3    H116149   3.949   2.846   3.097  0.5087  0.9470 -0.2112
 5381TIP3    H216150   4.046   2.929   3.179  0.8073 -0.7278  1.1870
 5382TIP3   OH216151   3.104   2.004   4.657  0.3218 -0.0119 -0.1482
 5382TIP3    H116152   3.116   2.082   4.710 -1.6809  0.1885  0.1119
 5382TIP3    H216153   3.098   2.037   4.567 -0.5888  0.1719 -0.0326
 5383TIP3   OH216154   0.503   4.728   0.249  0.0908 -0.6629  0.1051
 5383TIP3    H116155   0.450   4.770   0.182 -0.3541 -0.9007  0.3026
 5383TIP3    H216156   0.593   4.739   0.219  0.2044  2.3969  1.2244
 5384TIP3   OH216157   5.938   2.982   2.156  0.1072 -0.2551 -0.0299
 5384TIP3    H116158   5.926   2.997   2.062  1.2217  1.8613  0.0930
 5384TIP3    H216159   5.914   2.891   2.169 -4.8320  0.5400 -1.5168
 5385TIP3   OH216160   5.957   0.347   3.268 -0.1808  0.1621 -0.0206
 5385TIP3    H116161   5.882   0.303   3.307 -0.9693 -0.3900 -2.0132
 5385TIP3    H216162   5.992   0.282   3.206  1.2690  0.8159  0.0832
 5386TIP3   OH216163   0.425   0.448   2.443  0.8746  0.5848 -0.0716
 5386TIP3    H116164   0.473   0.520   2.484  1.6924 -0.6568  1.2145
 5386TIP3    H216165   0.359   0.423   2.508  1.0785 -0.2986 -0.1925
 5387TIP3   OH216166   2.680   2.250   2.709  0.4419 -0.8963  0.4306
 5387TIP3    H116167   2.644   2.304   2.639  1.2355 -0.7554  0.1130
 5387TIP3    H216168   2.682   2.161   2.673  0.6574 -0.8581  0.3443
 5388TIP3   OH216169   3.646   1.962   2.777  0.5745  0.1126  0.8033
 5388TIP3    H116170   3.642   2.040   2.721 -0.6404  0.3928  1.2415
 5388TIP3    H216171   3.613   1.992   2.861 -0.4827 -1.0129  0.8118
 5389TIP3   OH216172   0.058   0.774   3.327  0.3557 -0.2489  0.5463
 5389TIP3    H116173  -0.019   0.783   3.270 -0.7331 -1.0288  1.8299
 5389TIP3    H216174   0.086   0.864   3.345  1.0798  0.0193 -1.6250
 5390TIP3   OH216175   2.049   4.617   1.137  0.1667  0.0407  0.2544
 5390TIP3    H116176   2.103   4.695   1.122  0.5856  0.4229  3.1771
 5390TIP3    H216177   1.972   4.650   1.182 -0.8579 -0.9616 -0.7177
 5391TIP3   OH216178   3.964   1.206   4.212 -0.3488  0.0995 -0.2348
 5391TIP3    H116179   3.978   1.192   4.306 -1.3828 -0.4852 -0.1500
 5391TIP3    H216180   3.967   1.301   4.201 -1.2734  0.2308  0.5763
 5392TIP3   OH216181   3.827   3.221   4.198  0.0382  0.3555 -1.0049
 5392TIP3    H116182   3.797   3.186   4.114 -0.5157 -0.5367 -0.4591
 5392TIP3    H216183   3.880   3.151   4.235 -1.6937 -0.2645  0.4394
 5393TIP3   OH216184   2.150   5.245   1.450  0.1839  0.7026  0.3542
 5393TIP3    H116185   2.112   5.190   1.519  0.7819 -0.1481  0.0352
 5393TIP3    H216186   2.078   5.261   1.389  0.0541  0.0358  0.3179
 5394TIP3   OH216187   1.261   1.712   3.278  0.3450  0.2431  0.2279
 5394TIP3    H116188   1.208   1.661   3.218  0.6432 -0.7949  0.8261
 5394TIP3    H216189   1.277   1.795   3.232  0.9280 -0.6807 -1.2890
 5395TIP3   OH216190   0.618   4.993   2.253 -0.1254 -0.0496  0.1840
 5395TIP3    H116191   0.644   5.039   2.333 -0.1211  0.7326 -0.2506
 5395TIP3    H216192   0.693   4.939   2.230 -0.6146 -1.2913  1.4166
 5396TIP3   OH216193   5.780   0.144   0.457 -0.0286  1.0348 -0.1593
 5396TIP3    H116194   5.719   0.158   0.530  1.6052  0.6701  1.3538
 5396TIP3    H216195   5.839   0.076   0.488  1.5620  1.8415 -1.2685
 5397TIP3   OH216196   0.220   4.357   2.020  0.5558  0.0661 -0.4942
 5397TIP3    H116197   0.219   4.447   2.052 -0.8820 -0.0220 -0.2215
 5397TIP3    H216198   0.286   4.313   2.074  1.3313  0.9529 -0.6800
 5398TIP3   OH216199   1.954   4.258   0.880  0.1985 -0.2267  0.0230
 5398TIP3    H116200   1.925   4.349   0.873  0.3236 -0.2224 -0.5661
 5398TIP3    H216201   1.881   4.211   0.919  0.3555  0.2322  0.8819
 5399TIP3   OH216202   3.462   4.688   5.086  0.4931 -0.1212 -0.6542
 5399TIP3    H116203   3.458   4.595   5.108 -0.7279  0.0906  0.1048
 5399TIP3    H216204   3.439   4.692   4.993  1.5248 -0.6522 -0.9463
 5400TIP3   OH216205   3.323   3.873   1.740 -0.1422 -0.2836  0.8118
 5400TIP3    H116206   3.284   3.904   1.658  1.2685 -2.1366 -0.6751
 5400TIP3    H216207   3.381   3.944   1.767  0.5260 -0.2027 -0.6848
 5401TIP3   OH216208   4.544   0.208   0.140 -0.2940 -0.7465 -0.2628
 5401TIP3    H116209   4.562   0.297   0.168 -1.2221 -0.6559  0.0638
 5401TIP3    H216210   4.621   0.183   0.089  0.0037  0.2078 -0.2964
 5402TIP3   OH216211   0.901   1.630   0.376  0.0915 -0.2547 -0.3687
 5402TIP3    H116212   0.967   1.603   0.439 -0.8635 -0.8459  0.4113
 5402TIP3    H216213   0.844   1.553   0.367 -0.4810  0.2291 -1.0408
 5403TIP3   OH216214   0.981   2.478   1.647  0.1539  0.3585 -0.2475
 5403TIP3    H116215   0.886   2.481   1.644  0.0583 -0.2934  1.4560
 5403TIP3    H216216   1.009   2.568   1.630 -0.7737  0.6461 -0.2714
 5404TIP3   OH216217   1.049   2.038   1.308 -0.2233  0.2611 -0.3910
 5404TIP3    H116218   1.045   1.965   1.246 -0.5553 -0.6419  0.6588
 5404TIP3    H216219   1.140   2.039   1.338 -0.5310 -0.6442  0.6356
 5405TIP3   OH216220   3.130   3.242   2.334 -0.0246  0.4341  0.0588
 5405TIP3    H116221   3.178   3.229   2.252 -0.0291  1.2653 -0.0756
 5405TIP3    H216222   3.040   3.261   2.307  0.0533  1.0719  0.2466
 5406TIP3   OH216223   3.101   4.727   1.326 -0.0737  0.1323 -0.1219
 5406TIP3    H116224   3.109   4.671   1.248 -0.9415  0.3222 -0.3564
 5406TIP3    H216225   3.016   4.769   1.317  1.0823  2.5269 -0.6151
 5407TIP3   OH216226   4.057   2.252   5.069  0.1348 -0.2025 -0.3299
 5407TIP3    H116227   4.063   2.170   5.117  1.1382 -0.5081 -0.9410
 5407TIP3    H216228   3.970   2.287   5.091  1.1079  0.5003  2.9899
 5408TIP3   OH216229   2.623   4.539   1.441  0.3292 -0.0907 -0.0643
 5408TIP3    H116230   2.639   4.633   1.440  2.5587 -0.3997  0.5795
 5408TIP3    H216231   2.637   4.511   1.351  1.4846 -0.0401  0.0885
 5409TIP3   OH216232   3.459   0.227   2.871 -0.5472 -0.3857  0.0841
 5409TIP3    H116233   3.479   0.292   2.939 -0.2543  0.0143 -0.3738
 5409TIP3    H216234   3.380   0.183   2.902 -0.0365 -0.6817  1.0117
 5410TIP3   OH216235   0.663   0.290   4.632  0.0524 -0.3290  0.3906
 5410TIP3    H116236   0.704   0.305   4.717 -1.2954 -0.9802  1.1957
 5410TIP3    H216237   0.602   0.363   4.622 -1.7419 -1.6182  1.2782
 5411TIP3   OH216238   1.720   0.952   0.062  0.0201 -0.4920 -0.4356
 5411TIP3    H116239   1.690   0.941  -0.028 -0.4166 -1.5220 -0.1736
 5411TIP3    H216240   1.791   0.888   0.072  0.6109  0.1746 -0.2832
 5412TIP3   OH216241   5.080   2.373   2.237 -0.6649 -0.3104 -0.2869
 5412TIP3    H116242   5.143   2.301   2.246 -0.0765  0.0828 -1.0904
 5412TIP3    H216243   5.131   2.451   2.258 -1.8572 -0.2554  2.8698
 5413TIP3   OH216244   0.940   0.102   4.007 -0.1966  0.1655 -0.3870
 5413TIP3    H116245   0.963   0.134   4.094  0.3763  0.2913 -0.5833
 5413TIP3    H216246   0.939   0.181   3.953  1.6553 -0.1674 -0.9744
 5414TIP3   OH216247   1.115   2.366   0.698 -0.4140 -0.8352 -0.0036
 5414TIP3    H116248   1.151   2.426   0.633 -0.3735  0.4891  1.1871
 5414TIP3    H216249   1.182   2.298   0.707  0.5064  0.0591  0.1032
 5415TIP3   OH216250   5.030   5.034   4.025  0.2287  0.1023 -0.1585
 5415TIP3    H116251   5.039   5.063   3.934 -1.0149  1.4181  0.1080
 5415TIP3    H216252   5.032   5.114   4.076  0.0889 -0.5603  0.9206
 5416TIP3   OH216253   4.445   1.342   1.105 -0.6993 -0.1918  0.1811
 5416TIP3    H116254   4.351   1.327   1.099 -0.6523 -0.2030 -0.6503
 5416TIP3    H216255   4.453   1.427   1.146 -1.0458 -0.6465  1.2274
 5417TIP3   OH216256   2.826   1.306   2.954  0.1415 -0.6419 -0.6492
 5417TIP3    H116257   2.800   1.363   3.027  2.9147  0.0379 -0.1019
 5417TIP3    H216258   2.765   1.328   2.884 -0.0876  1.6072  0.1855
 5418TIP3   OH216259   3.854   4.223   5.191  0.0974  0.1259 -0.2157
 5418TIP3    H116260   3.819   4.138   5.217  0.6549  0.2938  1.1538
 5418TIP3    H216261   3.883   4.210   5.100 -1.2227 -0.6885 -0.5496
 5419TIP3   OH216262   0.551   4.779   3.464  0.4276 -0.4398  0.0044
 5419TIP3    H116263   0.460   4.765   3.491  0.8724 -2.5173  0.5872
 5419TIP3    H216264   0.553   4.754   3.371  0.4720 -0.8047  0.1007
 5420TIP3   OH216265   3.710   0.727   3.090  0.0422  0.0118 -0.4140
 5420TIP3    H116266   3.713   0.670   3.013  1.4975  1.1062 -1.2131
 5420TIP3    H216267   3.634   0.784   3.075 -0.3015 -0.4679 -0.5176
 5421TIP3   OH216268   2.161   0.230   4.464  0.2897 -0.1450  0.2333
 5421TIP3    H116269   2.160   0.309   4.518 -0.9713 -0.2843  0.4629
 5421TIP3    H216270   2.162   0.263   4.374 -0.7011  0.1584  0.3196
 5422TIP3   OH216271   4.158   1.709   3.057 -0.2469 -0.0531  0.1734
 5422TIP3    H116272   4.251   1.732   3.058 -0.3029  0.4744 -2.0775
 5422TIP3    H216273   4.133   1.714   2.965 -2.1096 -1.8658  0.5071
 5423TIP3   OH216274   0.285   4.404   2.630  0.1724  0.2398 -0.3721
 5423TIP3    H116275   0.322   4.447   2.553 -1.2314  1.9942 -0.1175
 5423TIP3    H216276   0.341   4.432   2.702  1.4502 -1.3553 -0.6523
 5424TIP3   OH216277   0.316   2.155   3.994 -0.0362 -0.0156 -0.6555
 5424TIP3    H116278   0.225   2.165   4.023 -0.2743 -0.4442 -1.2231
 5424TIP3    H216279   0.368   2.172   4.072 -0.6606 -1.2600  0.0628
 5425TIP3   OH216280   1.779   0.291   2.325 -0.1128 -0.3372 -0.4063
 5425TIP3    H116281   1.729   0.295   2.244 -0.6388  0.9456 -0.0565
 5425TIP3    H216282   1.870   0.307   2.299 -0.2735  0.0367 -0.7510
 5426TIP3   OH216283   4.547   5.298   4.674  0.0440 -0.3864  0.4242
 5426TIP3    H116284   4.476   5.310   4.611 -0.6056  0.4393  1.2833
 5426TIP3    H216285   4.517   5.343   4.753 -0.3071 -3.5125  2.2421
 5427TIP3   OH216286   1.927   3.051   3.136  0.0947  0.0777 -0.1971
 5427TIP3    H116287   1.930   2.976   3.077 -0.3429 -2.0374  2.2873
 5427TIP3    H216288   1.844   3.095   3.116  0.7473  0.4869 -2.2559
 5428TIP3   OH216289   4.711   2.649   0.596 -0.5352 -0.7715  0.4391
 5428TIP3    H116290   4.638   2.591   0.617 -1.9073  0.3703 -0.9020
 5428TIP3    H216291   4.684   2.734   0.632 -0.4227 -0.0769 -1.0577
 5429TIP3   OH216292   0.979   1.705   4.534  0.2590  0.1842 -0.1986
 5429TIP3    H116293   1.018   1.768   4.594 -2.7354 -0.9970  3.4231
 5429TIP3    H216294   0.955   1.756   4.457  1.5943  2.5182  0.8224
 5430TIP3   OH216295   3.299   5.345   3.940 -0.1803 -0.4851 -0.7304
 5430TIP3    H116296   3.375   5.343   3.998 -0.2746 -1.3547 -0.6297
 5430TIP3    H216297   3.257   5.260   3.953 -0.1803 -0.7071 -2.1092
 5431TIP3   OH216298   4.105   2.949   0.930 -0.5050  0.5656  0.1712
 5431TIP3    H116299   4.148   2.877   0.884  1.4047  2.2906 -0.9061
 5431TIP3    H216300   4.090   2.915   1.018 -0.7750 -1.5256 -0.6175
 5432TIP3   OH216301   0.689   5.209   2.457  0.0964  0.1120  0.1349
 5432TIP3    H116302   0.759   5.198   2.393 -1.8833 -0.4421 -2.0832
 5432TIP3    H216303   0.640   5.285   2.426 -0.7395  0.0061  1.1429
 5433TIP3   OH216304   2.520   5.450   3.743  0.1441 -0.2468  0.0342
 5433TIP3    H116305   2.551   5.400   3.668  0.3338 -0.3279  0.1653
 5433TIP3    H216306   2.569   5.532   3.740 -0.6600  0.2247 -0.5720
 5434TIP3   OH216307   4.478   0.721   1.325 -0.2358  0.3622 -0.0940
 5434TIP3    H116308   4.554   0.669   1.349 -1.3057 -1.6991 -0.9397
 5434TIP3    H216309   4.513   0.790   1.269  1.3491  1.2351  1.8507
 5435TIP3   OH216310   4.591   0.935   3.757 -0.0798 -0.1932  0.3046
 5435TIP3    H116311   4.673   0.982   3.741 -0.5444  0.8871  0.9190
 5435TIP3    H216312   4.529   1.004   3.781 -0.7347 -1.1522  1.4893
 5436TIP3   OH216313   1.506   4.872   0.635 -1.1879 -0.8412 -0.0915
 5436TIP3    H116314   1.523   4.801   0.697  1.0708 -1.6339 -1.4916
 5436TIP3    H216315   1.553   4.947   0.670  2.1956 -1.9219 -1.8547
 5437TIP3   OH216316   1.292   4.361   2.214  0.3010  0.3895 -0.4736
 5437TIP3    H116317   1.299   4.423   2.142 -0.1204  1.2616  0.2197
 5437TIP3    H216318   1.382   4.348   2.244  0.5493 -0.4137 -1.4893
 5438TIP3   OH216319   3.199   3.412   4.794 -0.8679  0.2582  0.2038
 5438TIP3    H116320   3.236   3.342   4.739 -0.4420 -0.2746  1.1445
 5438TIP3    H216321   3.150   3.467   4.732 -0.3192 -0.2602 -0.7276
 5439TIP3   OH216322   0.067   4.393   3.411  0.1940  0.7186  0.6679
 5439TIP3    H116323   0.139   4.363   3.468 -0.6788 -0.5220  1.1565
 5439TIP3    H216324  -0.012   4.357   3.452 -0.4045 -0.9984 -1.8002
 5440TIP3   OH216325   3.157   0.065   2.656  0.2237  0.1486  0.3599
 5440TIP3    H116326   3.241   0.108   2.639  1.1023 -0.5071  2.7029
 5440TIP3    H216327   3.177  -0.028   2.659 -0.1923  0.0737  2.6245
 5441TIP3   OH216328   2.407   3.024   1.225  0.6900 -0.0972  0.0195
 5441TIP3    H116329   2.420   3.038   1.131  1.5142  1.0249  0.2798
 5441TIP3    H216330   2.313   3.007   1.233  0.7612 -1.1562 -1.1034
 5442TIP3   OH216331   3.305   4.020   3.024  0.2808 -0.1561  0.1399
 5442TIP3    H116332   3.245   3.961   3.069 -0.5000 -0.0277 -0.7126
 5442TIP3    H216333   3.392   3.986   3.045 -0.1356 -1.3491  0.0094
 5443TIP3   OH216334   0.153   0.269   0.780  0.3510 -0.4929 -0.4129
 5443TIP3    H116335   0.227   0.257   0.721 -0.8597 -1.0091 -1.9016
 5443TIP3    H216336   0.085   0.211   0.744 -0.3228 -1.0971  1.7144
 5444TIP3   OH216337   0.486   3.995   2.325 -0.2929  0.5446  0.4769
 5444TIP3    H116338   0.574   4.032   2.336 -0.4212  0.4219  2.4326
 5444TIP3    H216339   0.490   3.911   2.372 -1.7969  1.1811  1.8585
 5445TIP3   OH216340   3.892   2.271   3.756  0.1192  0.3125 -0.4538
 5445TIP3    H116341   3.857   2.182   3.747 -1.9092  1.0280 -0.1313
 5445TIP3    H216342   3.911   2.298   3.666 -0.6319  0.0512 -0.7036
 5446TIP3   OH216343   5.336   1.087   3.172  0.2683  0.1552  0.3595
 5446TIP3    H116344   5.311   1.051   3.087  0.5858  0.1399  0.2696
 5446TIP3    H216345   5.272   1.051   3.234  0.0237  0.1854  0.1252
 5447TIP3   OH216346   1.730   3.524   5.132 -0.3608  0.0575  0.5081
 5447TIP3    H116347   1.771   3.441   5.106 -3.5606 -1.4580 -0.2621
 5447TIP3    H216348   1.716   3.515   5.227 -2.1109 -1.1140  0.2014
 5448TIP3   OH216349   4.383   4.135   1.032 -0.0316  0.0919  0.2982
 5448TIP3    H116350   4.458   4.076   1.036  0.9175  1.2475 -0.1077
 5448TIP3    H216351   4.339   4.113   0.950  1.7145  1.5447 -1.1101
 5449TIP3   OH216352   4.083   0.583   4.481 -0.7672 -0.4387 -0.5676
 5449TIP3    H116353   4.106   0.533   4.403 -0.4061 -0.8852 -0.1796
 5449TIP3    H216354   4.132   0.665   4.472  0.1535 -0.9469 -0.2685
 5450TIP3   OH216355   1.152   3.149   3.871 -0.1270 -0.5487 -0.5255
 5450TIP3    H116356   1.067   3.114   3.897 -0.4929  1.7755  1.7043
 5450TIP3    H216357   1.215   3.102   3.925 -0.4225  0.6147  0.8797
 5451TIP3   OH216358   0.999   5.715   0.316  0.2356 -0.5032  0.9628
 5451TIP3    H116359   1.044   5.654   0.257  0.2542 -0.2202  0.6809
 5451TIP3    H216360   0.910   5.679   0.324 -1.0868  1.4804 -2.3980
 5452TIP3   OH216361   1.403   5.356   4.415 -0.4443  0.3907 -0.7730
 5452TIP3    H116362   1.488   5.333   4.378 -0.1743 -1.0831  0.6166
 5452TIP3    H216363   1.369   5.273   4.450 -1.2561  1.4160  1.0142
 5453TIP3   OH216364   2.565   5.169   0.716  0.5800 -0.3123  0.0004
 5453TIP3    H116365   2.539   5.234   0.782  1.7375 -0.4922  0.6790
 5453TIP3    H216366   2.599   5.221   0.643  1.8180 -0.1288  0.6785
 5454TIP3   OH216367   2.208   3.079   2.370 -0.2051  0.3181  0.3582
 5454TIP3    H116368   2.228   3.048   2.458  0.5938  1.5331  0.6356
 5454TIP3    H216369   2.201   3.174   2.379 -0.3680  0.4422 -0.8465
 5455TIP3   OH216370   4.012   4.330   0.970 -0.1919 -0.4813  0.0302
 5455TIP3    H116371   3.981   4.249   0.930 -1.0416  0.0474 -0.4105
 5455TIP3    H216372   3.942   4.393   0.955  0.3281  0.2653  0.6233
 5456TIP3   OH216373   4.290   1.457   1.506 -0.2496 -0.3198  0.5985
 5456TIP3    H116374   4.245   1.382   1.466 -1.4769  1.0164 -0.6295
 5456TIP3    H216375   4.260   1.457   1.597 -1.7335 -0.2219  0.1321
 5457TIP3   OH216376   0.653   2.832   0.854  0.5207  0.3417  0.6542
 5457TIP3    H116377   0.599   2.802   0.928  1.6033 -0.4398  1.1725
 5457TIP3    H216378   0.595   2.828   0.778  0.1576 -1.6909  0.9701
 5458TIP3   OH216379   5.857   2.192   4.413  0.3749 -0.0603  0.2699
 5458TIP3    H116380   5.856   2.104   4.375  1.8604  0.2360 -0.4977
 5458TIP3    H216381   5.769   2.202   4.452  0.0494 -1.7109  0.0237
 5459TIP3   OH216382   5.061   4.414   0.522 -0.1550 -0.0316  0.2948
 5459TIP3    H116383   5.152   4.383   0.525 -0.2253 -0.2994 -0.1654
 5459TIP3    H216384   5.057   4.469   0.443 -0.8946 -1.7076 -0.8969
 5460TIP3   OH216385   1.586   3.260   1.504  0.3978 -0.7001  0.5184
 5460TIP3    H116386   1.550   3.245   1.417  0.4670  2.5058 -0.1539
 5460TIP3    H216387   1.555   3.185   1.555 -2.2737 -1.1037 -1.4826
 5461TIP3   OH216388   0.508   3.592   3.098  0.4007  0.3154 -0.2664
 5461TIP3    H116389   0.421   3.632   3.105  0.1403 -0.0758 -1.1326
 5461TIP3    H216390   0.530   3.598   3.005  1.1821  0.1662 -0.0943
 5462TIP3   OH216391   1.604   1.947   2.274 -0.0651  0.1126  0.0011
 5462TIP3    H116392   1.647   2.016   2.224  1.4565 -0.5664  0.3307
 5462TIP3    H216393   1.675   1.895   2.311 -1.1673 -0.9939  0.6685
 5463TIP3   OH216394   0.104   2.223   1.475 -0.1688  0.3555  0.4444
 5463TIP3    H116395   0.060   2.233   1.391  0.0584 -0.0115  0.2764
 5463TIP3    H216396   0.196   2.207   1.453  0.0443  1.0600  0.7892
 5464TIP3   OH216397   3.925   5.605   3.093  0.0013 -0.1163  1.0214
 5464TIP3    H116398   3.911   5.662   3.017  2.5038  0.3991  0.8785
 5464TIP3    H216399   3.885   5.522   3.068 -1.8028  0.8967  0.3561
 5465TIP3   OH216400   6.068   4.492   4.053  0.1829 -0.3902  0.2541
 5465TIP3    H116401   5.999   4.544   4.011  0.3016  0.2319  0.8177
 5465TIP3    H216402   6.068   4.410   4.005 -1.6394 -0.7971  0.8635
 5466TIP3   OH216403   4.652   3.827   0.674  0.5279  0.1040  0.8268
 5466TIP3    H116404   4.663   3.922   0.670 -0.2132  0.1917  0.5037
 5466TIP3    H216405   4.564   3.815   0.710  0.4369 -0.4477  0.4402
 5467TIP3   OH216406   0.164   1.227   2.284 -0.1060 -0.4551 -0.0097
 5467TIP3    H116407   0.089   1.286   2.283 -0.1589 -0.5180  0.1799
 5467TIP3    H216408   0.177   1.202   2.192 -1.0541 -1.3812  0.0894
 5468TIP3   OH216409   4.518   0.562   2.071 -0.2330 -0.0039 -0.2332
 5468TIP3    H116410   4.496   0.486   2.125  0.3272  0.2965  0.4275
 5468TIP3    H216411   4.591   0.533   2.017  0.7620  0.4007  0.8501
 5469TIP3   OH216412   0.639   4.489   0.558 -0.7251  0.5447 -0.0901
 5469TIP3    H116413   0.549   4.460   0.571 -0.4761  0.1715  0.9063
 5469TIP3    H216414   0.633   4.584   0.549 -1.1868  0.5600  0.3571
 5470TIP3   OH216415   2.444   5.423   3.087  0.0907 -0.2123 -0.0488
 5470TIP3    H116416   2.520   5.365   3.082  1.0832  0.9564  0.8556
 5470TIP3    H216417   2.449   5.475   3.006  0.5824  0.2236  0.2521
 5471TIP3   OH216418   0.121   3.947   3.338  0.2752  0.2363 -0.3229
 5471TIP3    H116419   0.033   3.913   3.355 -1.0977  1.8145 -3.4391
 5471TIP3    H216420   0.180   3.885   3.381 -2.2918 -1.6480  0.7024
 5472TIP3   OH216421   5.281   1.801   4.020 -0.1756  0.0085 -0.2709
 5472TIP3    H116422   5.333   1.799   4.101  2.0749 -0.4248 -1.6285
 5472TIP3    H216423   5.222   1.875   4.032  2.4584  2.1837  0.4677
 5473TIP3   OH216424   1.649   2.725   0.556  0.1829 -0.7839 -0.0109
 5473TIP3    H116425   1.674   2.729   0.464  0.0646  1.1945 -0.0093
 5473TIP3    H216426   1.585   2.654   0.561  1.0548 -1.6882 -1.2081
 5474TIP3   OH216427   0.613   1.357   2.399  0.1405 -0.1721 -0.5585
 5474TIP3    H116428   0.594   1.289   2.333  0.2848 -1.1810  0.4053
 5474TIP3    H216429   0.705   1.380   2.383  0.3416 -0.8171 -0.3639
 5475TIP3   OH216430   4.158   3.889   5.000 -0.0765  0.2915  0.4343
 5475TIP3    H116431   4.197   3.858   5.082 -0.7316 -0.5067  0.4559
 5475TIP3    H216432   4.115   3.812   4.963 -0.6497  0.8837 -0.1579
 5476TIP3   OH216433   4.772   0.747   5.190  0.1869 -0.8813  0.0652
 5476TIP3    H116434   4.798   0.789   5.107 -0.0619 -0.3265  0.2682
 5476TIP3    H216435   4.804   0.657   5.181  2.2135 -0.2372  0.2958
 5477TIP3   OH216436   5.758   0.731   0.353 -0.3391  0.3150 -0.4856
 5477TIP3    H116437   5.775   0.813   0.305 -0.3993  1.3347  1.1690
 5477TIP3    H216438   5.817   0.736   0.428  0.7634 -1.9099 -1.1230
 5478TIP3   OH216439   0.943   1.974   4.027 -0.3739 -0.0883  0.6022
 5478TIP3    H116440   1.026   1.989   4.072  0.8602 -0.0788 -1.5486
 5478TIP3    H216441   0.940   1.879   4.013  0.3485  0.1213 -1.1828
 5479TIP3   OH216442   3.846   0.609   2.449  0.0561 -0.4870 -0.3644
 5479TIP3    H116443   3.751   0.609   2.460  0.2734  0.4422  1.9246
 5479TIP3    H216444   3.875   0.526   2.487  0.3170  0.1828  0.9497
 5480TIP3   OH216445   3.606   4.225   1.424  0.8347  0.0644 -0.7479
 5480TIP3    H116446   3.578   4.146   1.469 -0.5306  1.0440  0.2071
 5480TIP3    H216447   3.641   4.194   1.340 -2.7682 -1.3965 -1.9179
 5481TIP3   OH216448   1.687   5.863   4.627  0.0885 -0.1482  0.3739
 5481TIP3    H116449   1.757   5.803   4.601 -0.6847 -0.5251 -0.9202
 5481TIP3    H216450   1.632   5.810   4.686 -0.0775 -0.4188 -0.0202
 5482TIP3   OH216451   0.037   0.440   1.225  0.2136 -0.4047 -0.2233
 5482TIP3    H116452   0.108   0.427   1.162 -0.2105 -1.2068 -0.5478
 5482TIP3    H216453   0.082   0.460   1.307  0.7798  0.4417 -0.7147
 5483TIP3   OH216454   6.042   5.306   3.838  0.2034 -0.1910  0.2381
 5483TIP3    H116455   5.968   5.364   3.821  2.8642  3.1756 -0.8871
 5483TIP3    H216456   6.089   5.347   3.911  1.6319 -1.5567  0.1525
 5484TIP3   OH216457   4.747   4.331  -0.008  0.0867 -0.5291  0.0473
 5484TIP3    H116458   4.653   4.314  -0.013  0.3245 -1.6814 -1.2484
 5484TIP3    H216459   4.756   4.406   0.051 -1.4729 -1.7356  1.9198
 5485TIP3   OH216460   0.095   1.258   4.927  0.6016 -0.2975  0.1151
 5485TIP3    H116461   0.061   1.281   4.840  0.6386 -2.1034 -0.4181
 5485TIP3    H216462   0.171   1.203   4.909 -0.5744 -2.4067  1.2287
 5486TIP3   OH216463   3.248   3.843   2.403  0.9744  0.8932 -0.6122
 5486TIP3    H116464   3.264   3.936   2.384  0.4806  1.1970  0.3821
 5486TIP3    H216465   3.323   3.798   2.365  1.9910  1.8521  0.1668
 5487TIP3   OH216466   5.111   0.899   4.989  0.5845  0.3053 -0.5019
 5487TIP3    H116467   5.164   0.942   4.922  2.1378  0.9439  1.0352
 5487TIP3    H216468   5.159   0.819   5.009  0.7583  0.6602  0.5862
 5488TIP3   OH216469   6.021   3.062   0.294 -0.1900  0.3643 -0.2204
 5488TIP3    H116470   5.949   3.029   0.241 -0.0123 -2.0581  0.9045
 5488TIP3    H216471   6.054   2.985   0.339  1.4039  1.8715  1.3235
 5489TIP3   OH216472   3.546   2.325   4.114  0.0789 -0.3449 -0.3281
 5489TIP3    H116473   3.621   2.381   4.095 -0.2402  0.4337  0.6406
 5489TIP3    H216474   3.558   2.298   4.205 -1.1641  0.3637  0.0618
 5490TIP3   OH216475   5.748   2.274   3.656 -0.2902 -0.2674 -0.2385
 5490TIP3    H116476   5.703   2.235   3.581 -1.7543 -0.5060  0.7237
 5490TIP3    H216477   5.808   2.207   3.687  0.6921  0.0095 -1.4736
 5491TIP3   OH216478   0.490   0.900   2.977  0.0396  0.0436 -0.6003
 5491TIP3    H116479   0.438   0.905   2.897  1.1252 -0.8605 -1.3886
 5491TIP3    H216480   0.528   0.812   2.976 -0.1714 -0.1043  1.0733
 5492TIP3   OH216481   2.816   4.880  -0.002  0.2179  0.1313 -0.4034
 5492TIP3    H116482   2.777   4.951  -0.054 -1.5526 -0.5615 -0.0818
 5492TIP3    H216483   2.863   4.926   0.068 -0.9155  1.0172 -0.1832
 5493TIP3   OH216484   4.869   1.442   5.174  0.5051 -0.1206  0.2519
 5493TIP3    H116485   4.943   1.473   5.226 -0.1166  1.2028  0.3968
 5493TIP3    H216486   4.879   1.486   5.089 -0.6543  0.9188  0.6183
 5494TIP3   OH216487   2.057   1.144   1.504 -0.4067  0.3200  0.4597
 5494TIP3    H116488   2.079   1.059   1.464 -0.3604  1.0036 -1.0370
 5494TIP3    H216489   2.105   1.145   1.587  1.7581 -0.0376 -0.7245
 5495TIP3   OH216490   1.703   4.713   2.669 -0.1364  0.9416 -0.2370
 5495TIP3    H116491   1.717   4.780   2.602  0.6001 -0.0120 -1.0621
 5495TIP3    H216492   1.658   4.642   2.623  0.8770  0.0456  0.1380
 5496TIP3   OH216493   1.582   4.482   3.998  0.1576  0.1532  0.7894
 5496TIP3    H116494   1.500   4.442   4.026 -0.9522  1.9110  0.2371
 5496TIP3    H216495   1.569   4.501   3.905  1.7433 -0.7929  0.3342
 5497TIP3   OH216496   6.182   5.022   4.401  0.2794  0.0037  0.1975
 5497TIP3    H116497   6.231   4.972   4.336  0.4409  0.1766  0.1836
 5497TIP3    H216498   6.195   5.114   4.376 -0.5869  0.0323 -0.1832
 5498TIP3   OH216499   5.272   0.759   1.128 -0.3294 -0.2439 -0.3065
 5498TIP3    H116500   5.276   0.694   1.058 -0.2039 -0.9061  0.3050
 5498TIP3    H216501   5.291   0.843   1.084  0.5238 -0.7474 -0.9397
 5499TIP3   OH216502   4.340   4.468   3.875 -0.1162 -0.5361 -0.5073
 5499TIP3    H116503   4.306   4.525   3.805 -1.1385 -1.1690 -0.5490
 5499TIP3    H216504   4.327   4.519   3.955 -0.2591 -0.3814 -0.6261
 5500TIP3   OH216505   3.511   5.662   1.939 -0.4053  0.0385  0.4930
 5500TIP3    H116506   3.573   5.637   2.008  0.0056  0.3341  0.2400
 5500TIP3    H216507   3.451   5.588   1.932  0.7914 -0.9011 -0.2513
 5501TIP3   OH216508   2.821   4.693   2.261  0.7263  0.1832 -0.1319
 5501TIP3    H116509   2.916   4.687   2.251  0.9521  1.8823  0.6688
 5501TIP3    H216510   2.796   4.768   2.208 -0.2284 -0.3875 -0.5187
 5502TIP3   OH216511   2.841   3.152   2.928  0.6358  0.1749  0.0877
 5502TIP3    H116512   2.902   3.081   2.947 -0.8240 -0.3264  3.7963
 5502TIP3    H216513   2.762   3.108   2.896  0.7974  0.4423 -0.6925
 5503TIP3   OH216514   4.661   4.217   0.285 -0.2821 -0.0334  0.4168
 5503TIP3    H116515   4.722   4.210   0.358  0.9187 -1.8414 -0.6854
 5503TIP3    H216516   4.656   4.311   0.266  2.5005  0.1679  0.2952
 5504TIP3   OH216517   5.531   0.810   3.940  0.1421  0.2505  0.4367
 5504TIP3    H116518   5.504   0.846   4.025 -0.4332 -1.0176  0.8031
 5504TIP3    H216519   5.459   0.830   3.881  0.6209  1.2945  0.1825
 5505TIP3   OH216520   1.635   2.871   4.676  0.8402 -0.8207  0.0371
 5505TIP3    H116521   1.673   2.852   4.591 -1.1901 -1.2892 -0.8447
 5505TIP3    H216522   1.597   2.787   4.705 -1.8351  0.1078 -0.4599
 5506TIP3   OH216523   2.996   5.637   5.159 -0.5225 -0.3410 -0.3676
 5506TIP3    H116524   3.017   5.673   5.073 -1.3509  0.0827 -0.4066
 5506TIP3    H216525   2.949   5.556   5.140 -0.8738 -0.1511 -0.3272
 5507TIP3   OH216526   3.551   3.011   2.899 -0.4340  0.0378 -0.0744
 5507TIP3    H116527   3.492   2.948   2.858 -1.5227 -0.4117  2.0774
 5507TIP3    H216528   3.598   3.051   2.825 -2.9416 -0.0469 -1.8245
 5508TIP3   OH216529   0.201   3.490   1.274  0.3532 -0.0101 -0.1799
 5508TIP3    H116530   0.264   3.425   1.245 -0.6131 -1.5727  1.0945
 5508TIP3    H216531   0.174   3.461   1.361  0.6730  2.6817  0.9109
 5509TIP3   OH216532   3.099   1.728   1.030 -0.4342  0.1577  0.2553
 5509TIP3    H116533   3.059   1.655   1.078  0.1105 -0.3455 -0.0494
 5509TIP3    H216534   3.191   1.704   1.022 -0.1962  1.0020  0.3738
 5510TIP3   OH216535   2.308   5.419   1.945  0.3263 -0.6303  0.0132
 5510TIP3    H116536   2.326   5.428   1.852 -2.1176  2.2286 -0.2969
 5510TIP3    H216537   2.271   5.503   1.972  1.8242 -0.9743  3.8307
 5511TIP3   OH216538   1.937   0.413   0.372  0.0274 -0.5627  0.3249
 5511TIP3    H116539   1.937   0.318   0.358 -1.5399 -0.5219 -0.1224
 5511TIP3    H216540   1.873   0.427   0.442 -0.4116  0.2360 -0.2217
 5512TIP3   OH216541   0.632   3.733   5.182 -0.4582 -0.1094 -0.4313
 5512TIP3    H116542   0.596   3.660   5.132 -0.3073  0.0812 -0.8231
 5512TIP3    H216543   0.712   3.698   5.221 -0.9151 -0.4553  0.2272
 5513TIP3   OH216544   4.056   3.886   3.245  0.0670  0.3051 -0.7090
 5513TIP3    H116545   3.975   3.836   3.248  0.0715  0.3347  0.0582
 5513TIP3    H216546   4.124   3.824   3.272 -0.0683  0.9727  1.3025
 5514TIP3   OH216547   2.926   4.411   4.390 -0.2372 -0.1674 -0.5270
 5514TIP3    H116548   2.882   4.486   4.350  2.0263  1.3477 -0.3027
 5514TIP3    H216549   2.906   4.418   4.483  0.8072  0.7992 -0.3567
 5515TIP3   OH216550   0.396   3.448   4.538 -0.6734 -0.5519  0.1252
 5515TIP3    H116551   0.471   3.481   4.488 -1.1602  0.6368  0.1392
 5515TIP3    H216552   0.336   3.413   4.472 -0.6953 -0.2715 -0.0046
 5516TIP3   OH216553   2.661   0.104   0.607  0.1743  0.4401 -0.1978
 5516TIP3    H116554   2.607   0.182   0.612  1.4664  1.3132  0.5570
 5516TIP3    H216555   2.657   0.066   0.695 -0.9468 -0.7186 -0.7178
 5517TIP3   OH216556   2.853   1.074   1.179  0.1132  0.0256 -0.3631
 5517TIP3    H116557   2.850   1.147   1.118  0.5985  0.1507 -0.2439
 5517TIP3    H216558   2.819   0.999   1.130 -1.8947  0.6443 -0.0111
 5518TIP3   OH216559   4.768   0.816   4.518  0.1563  0.2966 -0.6610
 5518TIP3    H116560   4.704   0.875   4.557 -0.2359  0.8440 -2.0502
 5518TIP3    H216561   4.795   0.759   4.589 -1.7834  0.1324  0.0015
 5519TIP3   OH216562   0.155   4.939   0.979  0.0256 -0.0992  0.0645
 5519TIP3    H116563   0.112   4.899   1.054 -3.7457  0.2885 -1.6759
 5519TIP3    H216564   0.191   4.866   0.929 -3.5278 -1.2196 -1.1648
 5520TIP3   OH216565   6.084   2.085   3.181  0.0862  0.0773 -0.6148
 5520TIP3    H116566   5.993   2.111   3.191  0.3906  1.5376 -1.3107
 5520TIP3    H216567   6.129   2.126   3.255  0.2647 -0.1747 -0.5819
 5521TIP3   OH216568   6.026   4.524   1.947  0.4784  0.0592 -1.0186
 5521TIP3    H116569   6.054   4.615   1.939 -1.2024  0.6320 -0.8980
 5521TIP3    H216570   5.935   4.524   1.915 -0.6621 -0.9203  1.8566
 5522TIP3   OH216571   0.092   4.442   1.262 -0.2485  0.2852 -0.1201
 5522TIP3    H116572   0.090   4.420   1.355  1.3041 -0.8990 -0.3193
 5522TIP3    H216573   0.006   4.416   1.229 -0.3330 -0.5498  0.7170
 5523TIP3   OH216574   6.086   4.568   4.392 -0.3176  0.2489 -0.3659
 5523TIP3    H116575   6.037   4.641   4.429 -0.5958 -0.5875  0.9846
 5523TIP3    H216576   6.020   4.499   4.380  0.3993 -0.6778  0.8856
 5524TIP3   OH216577   2.902   4.064   2.148 -0.1282  0.4721 -0.5467
 5524TIP3    H116578   2.951   4.146   2.142  0.0554  0.3068 -1.5258
 5524TIP3    H216579   2.957   4.000   2.103 -0.1147 -0.2813  0.4881
 5525TIP3   OH216580   5.638   5.955   3.979  0.6153 -0.0479 -0.2529
 5525TIP3    H116581   5.727   5.986   3.960  0.4482 -0.3430 -1.6318
 5525TIP3    H216582   5.639   5.862   3.956  0.4545 -0.5407  1.5752
 5526TIP3   OH216583   1.516   4.750   4.665  0.5398 -0.4757  0.2030
 5526TIP3    H116584   1.556   4.702   4.593  0.7492  1.8172 -1.2753
 5526TIP3    H216585   1.422   4.746   4.648  0.5187 -0.7662  0.3721
 5527TIP3   OH216586   1.840   1.047   4.336  0.0839 -0.4689 -0.6018
 5527TIP3    H116587   1.836   0.959   4.372  2.8869 -0.0955  0.8731
 5527TIP3    H216588   1.889   1.037   4.254 -0.0355 -0.3447 -0.6893
 5528TIP3   OH216589   0.125   5.384   1.951  0.0620  0.2136  0.7237
 5528TIP3    H116590   0.051   5.375   2.011 -1.8765 -1.9355 -1.7630
 5528TIP3    H216591   0.086   5.384   1.864  2.9338  0.1602 -0.7001
 5529TIP3   OH216592   3.383   2.271   2.832 -0.0055 -0.1574  0.3750
 5529TIP3    H116593   3.287   2.276   2.828 -0.0891  3.4297  2.2478
 5529TIP3    H216594   3.401   2.200   2.894 -1.4267 -0.9497 -0.0821
 5530TIP3   OH216595   1.347   4.904   3.668 -0.7495 -0.5224  0.3554
 5530TIP3    H116596   1.289   4.845   3.717 -0.1807 -2.8425 -1.5725
 5530TIP3    H216597   1.299   4.923   3.587  0.4401 -1.1103 -0.5180
 5531TIP3   OH216598   3.087   4.209   3.624  0.2710 -0.7775 -0.0239
 5531TIP3    H116599   3.084   4.291   3.674 -0.1051 -0.4484 -0.5861
 5531TIP3    H216600   3.023   4.152   3.667 -0.8532 -0.1178 -0.7825
 5532TIP3   OH216601   4.335   5.965   2.836 -0.0322  0.4883  0.2782
 5532TIP3    H116602   4.249   5.995   2.807 -0.0502 -1.4343 -1.9318
 5532TIP3    H216603   4.346   6.005   2.922 -3.0350  0.9637  0.5594
 5533TIP3   OH216604   1.719   3.738   4.116 -0.1559 -0.2431 -0.2181
 5533TIP3    H116605   1.694   3.647   4.101  0.5554 -0.9279  2.2616
 5533TIP3    H216606   1.810   3.743   4.087 -0.4075 -0.1112 -1.0084
 5534TIP3   OH216607   4.208   3.309   2.488 -0.2434  0.6101  0.6324
 5534TIP3    H116608   4.230   3.246   2.420 -0.8565  0.4452  0.5777
 5534TIP3    H216609   4.150   3.260   2.548 -0.6699  1.0934  0.6269
 5535TIP3   OH216610   4.021   3.451   0.824  0.1776  0.1796  0.1798
 5535TIP3    H116611   4.032   3.404   0.742 -1.3943 -0.3728  0.2594
 5535TIP3    H216612   4.047   3.388   0.892 -0.3473 -0.0217  0.1981
 5536TIP3   OH216613   3.764   2.914   1.347 -0.2514 -0.4899 -0.5278
 5536TIP3    H116614   3.671   2.915   1.368 -0.0662  1.5327  0.4604
 5536TIP3    H216615   3.805   2.864   1.417 -0.4322  0.0625 -0.0214
 5537TIP3   OH216616   2.489   5.365   0.180 -0.1756  0.2045  0.1011
 5537TIP3    H116617   2.490   5.450   0.225  1.0347 -0.0601  0.6103
 5537TIP3    H216618   2.517   5.385   0.090 -1.3677  0.5536 -0.2006
 5538TIP3   OH216619   2.747   2.176   2.965  0.1757  0.3429 -0.7029
 5538TIP3    H116620   2.719   2.164   2.874 -0.6406  0.0570 -0.4206
 5538TIP3    H216621   2.831   2.131   2.970  0.1991  0.3089 -1.2958
 5539TIP3   OH216622   5.057   4.712   0.811  0.2161 -0.4238 -0.0255
 5539TIP3    H116623   5.093   4.727   0.724  1.5585  0.0766  0.5848
 5539TIP3    H216624   5.054   4.800   0.851  2.5568 -0.9391  1.4990
 5540TIP3   OH216625   4.752   4.989   1.393 -0.1482  0.1417  0.1740
 5540TIP3    H116626   4.793   4.908   1.363  0.8378  0.6502  0.1004
 5540TIP3    H216627   4.710   5.024   1.314  0.2334  0.1805 -0.0129
 5541TIP3   OH216628   0.901   2.199   1.614 -0.0169 -0.1379 -0.4023
 5541TIP3    H116629   0.913   2.293   1.604 -0.2232 -0.2526 -1.9165
 5541TIP3    H216630   0.860   2.171   1.532  0.2300 -1.5821 -0.0574
 5542TIP3   OH216631   3.342   4.104   2.309 -0.4376  0.5413 -0.1805
 5542TIP3    H116632   3.300   4.109   2.223  3.1445 -0.3735 -2.2109
 5542TIP3    H216633   3.422   4.157   2.299  0.3394 -0.0184  2.4361
 5543TIP3   OH216634   1.315   0.214   0.959  0.2755  0.1290 -0.5334
 5543TIP3    H116635   1.322   0.269   1.037  0.5990  0.2056 -0.6157
 5543TIP3    H216636   1.303   0.276   0.887  0.3722  0.0765 -0.5942
 5544TIP3   OH216637   2.894   5.205   1.350  0.5851  0.3516  0.1928
 5544TIP3    H116638   2.823   5.229   1.290 -0.2836 -2.4447 -0.0198
 5544TIP3    H216639   2.863   5.233   1.436 -0.4456 -0.1562 -0.0000
 5545TIP3   OH216640   1.798   3.371   4.590  0.1226 -0.3164 -0.2205
 5545TIP3    H116641   1.824   3.379   4.682 -1.3578  1.5232  0.0984
 5545TIP3    H216642   1.761   3.283   4.584 -0.3577 -0.2395  1.1187
 5546TIP3   OH216643   3.715   5.916   4.760  0.2648  0.1343  0.3676
 5546TIP3    H116644   3.716   5.984   4.828  0.1767  0.4855  0.0228
 5546TIP3    H216645   3.682   5.961   4.682  2.0122  0.1739 -0.3869
 5547TIP3   OH216646   2.155   5.606   1.469 -0.4007  0.4545  0.1847
 5547TIP3    H116647   2.129   5.548   1.540  0.9159 -0.2960  0.0942
 5547TIP3    H216648   2.090   5.593   1.401 -1.8936  1.4600  1.3659
 5548TIP3   OH216649   2.758   1.681   1.041 -0.0205  0.3000  0.2614
 5548TIP3    H116650   2.720   1.594   1.056 -1.1180  0.8300  0.6425
 5548TIP3    H216651   2.836   1.683   1.097  2.3090 -1.8443 -2.5747
 5549TIP3   OH216652   5.804   5.262   4.944  0.1467 -0.0449  0.0426
 5549TIP3    H116653   5.891   5.276   4.980 -0.3968  0.9930  1.0485
 5549TIP3    H216654   5.778   5.176   4.975  0.5505 -0.0722  0.3099
 5550TIP3   OH216655   1.652   2.759   0.260  0.4479 -0.9956 -0.7163
 5550TIP3    H116656   1.584   2.691   0.264  0.8244 -1.3751 -0.7208
 5550TIP3    H216657   1.613   2.829   0.207  0.5951 -1.8165 -1.9386
 5551TIP3   OH216658   2.324   1.788   3.455 -0.0945  0.3602  0.2891
 5551TIP3    H116659   2.273   1.870   3.456 -0.6833 -0.0001  0.7584
 5551TIP3    H216660   2.399   1.806   3.511 -0.5245  0.4110  0.8719
 5552TIP3   OH216661   5.754   2.369   5.117 -0.9140  0.4722 -0.4698
 5552TIP3    H116662   5.726   2.332   5.034 -1.2412 -0.0575 -0.1227
 5552TIP3    H216663   5.712   2.455   5.120 -2.4226 -0.2509 -0.0134
 5553TIP3   OH216664   3.128   0.280   0.920  0.0830 -0.1434  0.5463
 5553TIP3    H116665   3.040   0.287   0.957 -0.1892 -0.3877 -0.0413
 5553TIP3    H216666   3.180   0.238   0.989 -0.8638 -2.3658 -0.0078
 5554TIP3   OH216667   0.509   1.661   4.953  0.2798  0.3845 -0.2993
 5554TIP3    H116668   0.486   1.617   5.035  0.7330  2.2999  0.9398
 5554TIP3    H216669   0.578   1.607   4.915 -0.8985 -1.2802 -0.1390
 5555TIP3   OH216670   1.471   3.085   5.131  0.5984 -0.1978 -0.2909
 5555TIP3    H116671   1.413   3.012   5.154  1.1945 -0.6592 -0.2052
 5555TIP3    H216672   1.519   3.103   5.212  2.0475 -1.2104 -0.8787
 5556TIP3   OH216673   6.027   5.466   1.697  0.3932  0.1744  0.1347
 5556TIP3    H116674   5.992   5.393   1.647  0.4530  0.9110 -1.0191
 5556TIP3    H216675   5.950   5.516   1.725  0.0423 -2.1218  3.9683
 5557TIP3   OH216676   4.319   0.102   4.586 -0.4502  0.3339 -0.4685
 5557TIP3    H116677   4.257   0.147   4.528 -0.3563 -0.7874 -1.4715
 5557TIP3    H216678   4.356   0.032   4.532 -1.0304 -1.3537  1.2191
 5558TIP3   OH216679   3.189   4.659   0.809  0.3590  0.4963 -0.1371
 5558TIP3    H116680   3.213   4.703   0.727  0.1209 -1.1425 -1.1216
 5558TIP3    H216681   3.142   4.726   0.859 -0.8121  1.1145 -1.9788
 5559TIP3   OH216682   1.526   0.690   4.750  0.3058  0.2632  0.3036
 5559TIP3    H116683   1.456   0.681   4.815  0.8786 -0.1676  0.8613
 5559TIP3    H216684   1.585   0.617   4.766  0.8194  0.5411 -0.2533
 5560TIP3   OH216685   4.458   4.589   0.759 -0.0933  0.1234 -0.2701
 5560TIP3    H116686   4.386   4.561   0.817 -1.8233  2.0185 -1.3715
 5560TIP3    H216687   4.468   4.517   0.697 -2.2199  0.4322 -1.0765
 5561TIP3   OH216688   4.656   5.734   3.203 -0.5401 -0.5165 -0.0336
 5561TIP3    H116689   4.665   5.640   3.189 -0.1136 -0.8629  2.2248
 5561TIP3    H216690   4.652   5.771   3.115 -1.1327 -2.6695 -0.9685
 5562TIP3   OH216691   5.468   4.320   2.262  0.3878 -0.0366 -0.1658
 5562TIP3    H116692   5.560   4.314   2.288  0.1494 -0.3225  0.6503
 5562TIP3    H216693   5.470   4.366   2.178  1.2364  0.4586  0.1085
 5563TIP3   OH216694  -0.010   1.962   0.912  0.4951 -0.0167  0.0441
 5563TIP3    H116695   0.086   1.957   0.917  0.4809 -1.4451 -0.6485
 5563TIP3    H216696  -0.029   1.945   0.820 -0.4578 -0.1326  0.2590
 5564TIP3   OH216697   3.400   4.058   2.590 -0.2639  1.0169 -0.3313
 5564TIP3    H116698   3.356   4.120   2.649 -1.1207  0.7615 -0.6877
 5564TIP3    H216699   3.328   4.012   2.546  0.3489  1.3285 -1.7148
 5565TIP3   OH216700   0.173   0.374   2.161 -0.2194  0.0588  0.5740
 5565TIP3    H116701   0.254   0.381   2.110 -0.4558  1.0234  0.3110
 5565TIP3    H216702   0.103   0.391   2.097 -0.5796  0.1139  0.9803
 5566TIP3   OH216703   1.888   5.520   3.658  0.2823 -0.2131 -0.3586
 5566TIP3    H116704   1.936   5.543   3.578 -0.7007  0.9009 -0.6627
 5566TIP3    H216705   1.832   5.596   3.675  1.2978  0.1218  2.0592
 5567TIP3   OH216706   0.781   4.838   3.559 -0.3053  0.4580  0.1543
 5567TIP3    H116707   0.689   4.826   3.537 -0.6370 -0.7244  1.9441
 5567TIP3    H216708   0.784   4.828   3.654  1.5766  1.1698  0.2075
 5568TIP3   OH216709   6.037   5.792   4.758 -0.0962 -0.1203 -0.6351
 5568TIP3    H116710   6.105   5.851   4.725 -0.0776  0.0618 -0.2766
 5568TIP3    H216711   5.969   5.850   4.792  0.7781 -0.2572  1.5100
 5569TIP3   OH216712   6.309   2.615   2.944 -0.2079 -0.0445  0.0371
 5569TIP3    H116713   6.366   2.667   3.001  2.1291  0.0822 -2.2407
 5569TIP3    H216714   6.223   2.657   2.952  0.5538  1.3179  1.7035
 5570TIP3   OH216715   5.135   3.565   0.829  0.1795 -0.0798 -0.2097
 5570TIP3    H116716   5.204   3.512   0.869  1.8477  1.6680 -0.6328
 5570TIP3    H216717   5.128   3.531   0.740  1.6424  0.7396 -0.6575
 5571TIP3   OH216718   5.725   5.873   1.790 -0.1121 -0.7771 -0.1428
 5571TIP3    H116719   5.760   5.959   1.814 -0.2988 -0.6674 -0.2633
 5571TIP3    H216720   5.694   5.836   1.873  1.4231 -1.3996  0.1803
 5572TIP3   OH216721   5.747   2.416   0.102  1.0365  0.1982  0.3610
 5572TIP3    H116722   5.661   2.394   0.065  1.1615 -0.6025  0.5272
 5572TIP3    H216723   5.797   2.450   0.028  0.9244 -0.3548  0.0238
 5573TIP3   OH216724   4.284   1.157   0.901  0.1422 -0.1382 -0.7720
 5573TIP3    H116725   4.241   1.112   0.974  1.5614  0.7200  0.6412
 5573TIP3    H216726   4.223   1.146   0.828 -1.9253  0.0267  0.8295
 5574TIP3   OH216727   0.673   4.147   2.883  0.4661  0.4630  0.0309
 5574TIP3    H116728   0.754   4.137   2.834  0.4781 -0.1379  0.1628
 5574TIP3    H216729   0.650   4.058   2.910 -1.7103  0.1752 -2.3372
 5575TIP3   OH216730   4.454   3.796   1.984 -0.0268 -0.0648  0.3345
 5575TIP3    H116731   4.506   3.724   2.020 -0.0334 -0.7271 -0.9188
 5575TIP3    H216732   4.365   3.776   2.011  0.0537 -0.2048  0.5037
 5576TIP3   OH216733   1.002   2.985   2.291  0.4357  0.2926  0.2307
 5576TIP3    H116734   0.953   2.931   2.229 -0.4184  0.5358  0.6738
 5576TIP3    H216735   1.071   3.025   2.239 -0.9039  1.3371 -0.8363
 5577TIP3   OH216736   0.715   0.532   3.517 -0.0565  0.6393  0.8025
 5577TIP3    H116737   0.669   0.565   3.440  1.3801  0.5226 -0.1467
 5577TIP3    H216738   0.763   0.607   3.551  2.3502 -0.0988 -0.7200
 5578TIP3   OH216739   1.113   0.882   4.860  0.2400 -0.0265 -0.2988
 5578TIP3    H116740   1.154   0.960   4.822  0.7785 -1.3602 -2.6727
 5578TIP3    H216741   1.023   0.908   4.878  0.7196  1.4628  0.0641
 5579TIP3   OH216742   4.280   5.549   0.158 -0.6818 -0.2318  0.0705
 5579TIP3    H116743   4.357   5.600   0.185 -2.7261  2.8310  0.6020
 5579TIP3    H216744   4.315   5.486   0.094  2.5773 -0.5729  1.9516
 5580TIP3   OH216745   0.129   2.997   4.416  0.2236 -0.3843  0.7357
 5580TIP3    H116746   0.196   2.999   4.347  1.0262  1.0252  1.5154
 5580TIP3    H216747   0.117   2.904   4.435 -1.5420 -1.0190 -2.7021
 5581TIP3   OH216748   5.336   4.427   4.113  0.2298 -0.0622 -0.4861
 5581TIP3    H116749   5.341   4.332   4.106 -0.6046 -0.0664 -1.2233
 5581TIP3    H216750   5.274   4.453   4.045 -0.0957  0.9475  0.1705
 5582TIP3   OH216751   1.101   1.589   3.096 -0.2399 -0.1702  0.3196
 5582TIP3    H116752   1.042   1.529   3.051  2.0552 -0.7009 -2.2422
 5582TIP3    H216753   1.175   1.534   3.122  0.2553  0.8973  1.2415
 5583TIP3   OH216754   4.959   2.665   4.549 -0.0662  0.0997 -0.1409
 5583TIP3    H116755   4.949   2.724   4.623 -0.9170  0.0122 -0.1756
 5583TIP3    H216756   4.882   2.681   4.495  0.6154  0.2751 -1.0945
 5584TIP3   OH216757   2.081   0.880   1.394  0.1148  0.2007 -0.3231
 5584TIP3    H116758   2.016   0.852   1.329  0.8928 -0.5691 -0.7918
 5584TIP3    H216759   2.085   0.808   1.456 -0.0565  0.5997  0.1572
 5585TIP3   OH216760   4.799   1.581   1.948  0.0398  0.2608  0.1453
 5585TIP3    H116761   4.715   1.555   1.910  0.1026 -0.2850  0.3698
 5585TIP3    H216762   4.862   1.566   1.878  0.5024 -2.9078  1.0925
 5586TIP3   OH216763   2.340   3.119   3.725  0.7363 -0.2635  0.0794
 5586TIP3    H116764   2.343   3.116   3.629  0.4399  0.4582  0.0445
 5586TIP3    H216765   2.247   3.117   3.746  0.8206 -2.1641  0.4297
 5587TIP3   OH216766   2.565   3.945   1.459  0.4677 -0.4029 -0.2489
 5587TIP3    H116767   2.547   3.931   1.366 -1.2704 -1.5898  0.2061
 5587TIP3    H216768   2.576   4.040   1.467  1.1485 -0.3379 -1.7326
 5588TIP3   OH216769   2.514   0.514   2.387  0.4516 -0.1723  0.1623
 5588TIP3    H116770   2.446   0.561   2.339  0.5453  1.4343  1.5247
 5588TIP3    H216771   2.487   0.422   2.384  0.3887 -0.1516 -2.7787
 5589TIP3   OH216772   2.360   4.049   3.646 -0.0349 -0.6103 -0.2824
 5589TIP3    H116773   2.294   4.060   3.578  0.6897  0.2208 -0.8685
 5589TIP3    H216774   2.315   4.073   3.727 -0.5809 -0.5314 -0.6010
 5590TIP3   OH216775   4.047   0.852   0.836 -0.1530  0.7253 -0.2908
 5590TIP3    H116776   3.994   0.916   0.788 -0.9362  0.2806 -0.0321
 5590TIP3    H216777   3.986   0.782   0.858  0.5638  0.1710 -0.0388
 5591TIP3   OH216778   3.379   4.042   0.584 -0.1423 -0.6468 -0.2463
 5591TIP3    H116779   3.450   3.987   0.552 -0.9278 -0.5206 -2.3836
 5591TIP3    H216780   3.406   4.132   0.562  0.0916 -0.3696  1.1100
 5592TIP3   OH216781   0.249   3.701   3.080 -0.1072  0.1094  0.4047
 5592TIP3    H116782   0.220   3.791   3.091 -1.8418 -0.2617 -0.8131
 5592TIP3    H216783   0.241   3.684   2.987 -0.9836 -1.6662  0.7569
 5593TIP3   OH216784   6.326   5.675   2.902 -0.6596  0.8043 -0.2565
 5593TIP3    H116785   6.251   5.624   2.872 -1.9917  1.5498  1.6226
 5593TIP3    H216786   6.353   5.633   2.983  0.8299  0.7202 -0.7525
 5594TIP3   OH216787   3.873   0.781   0.257 -0.0124  0.1048 -0.3259
 5594TIP3    H116788   3.804   0.831   0.212  0.9519  1.5549 -0.2677
 5594TIP3    H216789   3.827   0.732   0.325 -1.4363 -1.6929 -2.4441
 5595TIP3   OH216790   4.171   3.926   3.534  0.2449  0.5733  0.0434
 5595TIP3    H116791   4.203   3.836   3.525  1.1495  1.0382 -1.7715
 5595TIP3    H216792   4.228   3.964   3.601  0.9774  0.2630 -0.3863
 5596TIP3   OH216793   3.266   2.084   4.096  0.2582  0.3199  0.6129
 5596TIP3    H116794   3.259   2.178   4.079  3.1144  0.4237 -0.4027
 5596TIP3    H216795   3.226   2.042   4.019  1.5729  0.7424 -0.3196
 5597TIP3   OH216796   0.160   4.968   4.007  0.7748 -0.5865  0.0527
 5597TIP3    H116797   0.207   5.048   4.030  0.4422 -0.7441  1.3545
 5597TIP3    H216798   0.136   4.980   3.915 -0.2438  1.3307  0.5169
 5598TIP3   OH216799   3.453   3.691   4.985  0.4694 -0.3106 -0.1567
 5598TIP3    H116800   3.401   3.621   5.022 -1.0399  0.8190 -0.0648
 5598TIP3    H216801   3.436   3.687   4.891  1.5158 -0.9409 -0.3404
 5599TIP3   OH216802   5.887   1.946   3.611 -0.1498 -0.9724 -0.0405
 5599TIP3    H116803   5.827   1.965   3.683 -0.0805 -1.6943  0.2086
 5599TIP3    H216804   5.865   2.012   3.545  0.7388  0.5929  1.1637
 5600TIP3   OH216805   4.037   5.852   3.643 -0.3092  0.7036  0.4379
 5600TIP3    H116806   4.017   5.923   3.580 -1.8878  1.1281  1.3529
 5600TIP3    H216807   4.030   5.894   3.729  1.1731 -0.0265  0.9481
 5601TIP3   OH216808   4.795   1.085   3.648 -0.3100  0.2022  0.2344
 5601TIP3    H116809   4.789   1.056   3.557 -2.4397  0.7359  0.1591
 5601TIP3    H216810   4.808   1.180   3.642  1.8397 -0.0289  0.5163
 5602TIP3   OH216811   1.861   5.162   3.985  0.5103  0.5722  0.4360
 5602TIP3    H116812   1.883   5.069   3.988  0.5352  0.5715  0.2359
 5602TIP3    H216813   1.769   5.166   4.011  0.8629  0.6208  1.7657
 5603TIP3   OH216814   2.734   5.331   2.438  0.1059  0.2722 -0.1863
 5603TIP3    H116815   2.640   5.332   2.417 -0.6387 -0.0935  2.6669
 5603TIP3    H216816   2.750   5.242   2.470  1.6036  0.1713 -1.1167
 5604TIP3   OH216817   5.320   0.596   2.238 -0.3712  0.0464 -0.4236
 5604TIP3    H116818   5.290   0.628   2.153 -0.0324  1.2534 -0.1142
 5604TIP3    H216819   5.383   0.662   2.267  2.0264 -1.9698 -0.6914
 5605TIP3   OH216820   3.862   1.778   2.834  0.3150 -0.7105 -0.1100
 5605TIP3    H116821   3.789   1.834   2.810  0.3819 -0.9092 -0.8127
 5605TIP3    H216822   3.937   1.814   2.785  1.1534  0.7027  2.1021
 5606TIP3   OH216823   4.045   5.745   2.450 -0.4532  0.6034  0.2234
 5606TIP3    H116824   4.051   5.838   2.468 -0.2011  0.7506 -0.6029
 5606TIP3    H216825   4.123   5.725   2.398 -0.0673 -0.2386  1.0953
 5607TIP3   OH216826   3.531   2.038   1.456 -0.1014 -0.2857  0.3164
 5607TIP3    H116827   3.486   2.064   1.536 -1.2291 -0.9222 -0.0895
 5607TIP3    H216828   3.567   2.120   1.421 -0.3119  0.1210  1.0340
 5608TIP3   OH216829   3.277   3.577   1.761  0.3516  0.4259 -0.4123
 5608TIP3    H116830   3.317   3.662   1.746  0.2838  0.4192 -0.6424
 5608TIP3    H216831   3.348   3.521   1.793  0.2054  0.8032  0.5891
 5609TIP3   OH216832   1.463   3.472   2.323 -0.4070  0.1806 -0.3146
 5609TIP3    H116833   1.462   3.529   2.247 -1.7275 -1.1755 -1.3946
 5609TIP3    H216834   1.433   3.527   2.395  0.5470  1.4041 -0.8107
 5610TIP3   OH216835   3.579   2.122   5.060 -0.1124  0.0935 -0.4628
 5610TIP3    H116836   3.499   2.110   5.009  0.1736  0.5804 -1.0453
 5610TIP3    H216837   3.551   2.121   5.151 -0.8449  0.7600 -0.6740
 5611TIP3   OH216838   3.773   1.982   1.250 -0.3534 -0.6385 -0.5077
 5611TIP3    H116839   3.748   1.952   1.337 -1.9906  0.6249 -0.4660
 5611TIP3    H216840   3.866   2.001   1.256 -0.5893  0.1806  1.2419
 5612TIP3   OH216841   1.923   3.573   0.923 -0.8982 -0.5314  0.5829
 5612TIP3    H116842   1.880   3.636   0.981 -2.0997 -0.5210 -0.2865
 5612TIP3    H216843   1.854   3.510   0.901 -0.0417 -1.4437  0.4353
 5613TIP3   OH216844   0.887   4.513   3.095 -0.3415  0.1689 -0.0909
 5613TIP3    H116845   0.820   4.577   3.072  0.2481  0.4186 -1.2100
 5613TIP3    H216846   0.839   4.438   3.127 -1.1926  0.2417 -1.1400
 5614TIP3   OH216847   1.474   0.902   0.191 -0.1872 -0.0942  0.1760
 5614TIP3    H116848   1.559   0.906   0.149  0.1966  0.2723  0.9759
 5614TIP3    H216849   1.492   0.870   0.280 -0.7639  0.8143  0.6405
 5615TIP3   OH216850   1.637   3.859   5.096  0.0325  0.5581  0.6126
 5615TIP3    H116851   1.550   3.831   5.124 -0.7734  2.0047 -0.2990
 5615TIP3    H216852   1.690   3.858   5.175 -0.4170 -1.6767  0.9397
 5616TIP3   OH216853   5.096   2.642   2.522 -0.2251 -0.4397  0.1121
 5616TIP3    H116854   5.174   2.588   2.530  0.8151  1.0224  0.1305
 5616TIP3    H216855   5.111   2.695   2.443 -0.7597  0.5282  0.6455
 5617TIP3   OH216856   4.432   5.450   4.872 -0.1170 -0.0789 -0.7682
 5617TIP3    H116857   4.387   5.380   4.919 -0.2867  1.3095  1.2388
 5617TIP3    H216858   4.487   5.493   4.938 -0.8519  2.3621 -1.6212
 5618TIP3   OH216859   6.297   1.861   1.523  0.1468 -0.0803  0.0483
 5618TIP3    H116860   6.278   1.950   1.494  0.5394 -0.3406 -1.0239
 5618TIP3    H216861   6.225   1.809   1.489 -1.0780  0.0588  2.1947
 5619TIP3   OH216862   5.841   2.938   1.161  0.2642 -0.0194 -0.3513
 5619TIP3    H116863   5.810   2.853   1.191  0.6260 -0.1963 -0.4763
 5619TIP3    H216864   5.889   2.919   1.081  2.3550 -0.0143  0.8222
 5620TIP3   OH216865   2.930   5.511   1.836 -0.7386  0.0488  0.1955
 5620TIP3    H116866   2.942   5.547   1.924 -2.5419  0.4337  0.3200
 5620TIP3    H216867   3.001   5.447   1.826  1.6350  2.4498  0.5664
 5621TIP3   OH216868   6.052   3.541   2.876 -0.2270 -0.2390 -0.5646
 5621TIP3    H116869   6.053   3.467   2.937  0.9167  1.0325  1.0571
 5621TIP3    H216870   6.017   3.505   2.795 -0.4189 -2.3630  0.3960
 5622TIP3   OH216871   2.169   2.382   5.136  0.1496  0.0078 -0.4894
 5622TIP3    H116872   2.257   2.345   5.131  1.3544  2.3672  1.1059
 5622TIP3    H216873   2.155   2.424   5.052  0.8542  0.1903 -0.5206
 5623TIP3   OH216874   3.091   4.101   0.502  0.7284 -0.0429  0.3112
 5623TIP3    H116875   3.178   4.088   0.541  0.8080  2.7749  1.3199
 5623TIP3    H216876   3.110   4.140   0.416  0.4866  0.5052  0.5018
 5624TIP3   OH216877   5.557   5.197   1.370  0.1038  0.0701 -0.1122
 5624TIP3    H116878   5.522   5.226   1.285 -1.6562 -2.4037 -0.3613
 5624TIP3    H216879   5.499   5.236   1.435 -0.1429 -0.1043 -0.2257
 5625TIP3   OH216880   4.872   2.379   1.511  0.1104 -0.2402  0.9929
 5625TIP3    H116881   4.952   2.332   1.533  0.6029 -0.3079 -0.8039
 5625TIP3    H216882   4.813   2.312   1.477  0.1880  0.1586  0.0405
 5626TIP3   OH216883   5.344   0.581   0.891  0.0204  0.1328 -0.1065
 5626TIP3    H116884   5.359   0.503   0.945  0.1339 -1.1801 -1.9368
 5626TIP3    H216885   5.289   0.549   0.819 -0.8714  2.0209 -0.3080
 5627TIP3   OH216886   5.100   5.954   1.841 -0.2365 -0.5800  0.3407
 5627TIP3    H116887   5.174   6.000   1.881 -0.1515 -0.9391  0.5992
 5627TIP3    H216888   5.051   5.918   1.915  1.2110 -3.2772  0.1092
 5628TIP3   OH216889   2.549   0.429   0.761 -0.5961  0.2863  0.1857
 5628TIP3    H116890   2.598   0.490   0.818  2.3598 -1.7540  0.0449
 5628TIP3    H216891   2.531   0.353   0.817 -1.1171 -0.1667 -0.5778
 5629TIP3   OH216892   4.273   2.648   5.029 -0.2888  0.2988 -0.1361
 5629TIP3    H116893   4.208   2.597   5.078  0.5047 -0.2286  0.4001
 5629TIP3    H216894   4.355   2.632   5.075 -0.1062  2.5688  0.4261
 5630TIP3   OH216895   5.957   3.421   1.823  0.1653 -0.2539 -0.5667
 5630TIP3    H116896   5.919   3.499   1.863  1.8515  0.4778 -0.2971
 5630TIP3    H216897   5.950   3.437   1.729 -0.1721 -0.1362 -0.5253
 5631TIP3   OH216898   2.905   3.781   4.102 -0.3236 -0.1516 -0.0030
 5631TIP3    H116899   2.944   3.855   4.149  0.6646 -0.0104 -0.9882
 5631TIP3    H216900   2.975   3.715   4.098  0.1598  0.3900 -2.4579
 5632TIP3   OH216901   0.973   4.301   0.319  0.6790  0.5477 -0.4205
 5632TIP3    H116902   0.999   4.378   0.369  0.9036 -0.4048  0.9759
 5632TIP3    H216903   0.881   4.287   0.342  0.2300  1.1578 -1.7232
 5633TIP3   OH216904   6.253   3.591   1.114 -0.1650 -0.5301  0.1321
 5633TIP3    H116905   6.234   3.578   1.207  0.1567  1.7982  0.5922
 5633TIP3    H216906   6.190   3.657   1.086  1.1428  0.4139 -0.7081
 5634TIP3   OH216907   2.851   5.266   0.931  0.1512  0.3378  0.2538
 5634TIP3    H116908   2.829   5.312   1.012  1.4888  2.8849 -0.7425
 5634TIP3    H216909   2.766   5.251   0.888 -0.2936  3.4159 -0.1311
 5635TIP3   OH216910   0.184   0.850   1.785 -0.0704  0.6491  0.3789
 5635TIP3    H116911   0.128   0.926   1.796  0.5907  1.0000  1.4681
 5635TIP3    H216912   0.259   0.867   1.842  1.3498  0.3732 -1.3375
 5636TIP3   OH216913   1.798   3.395   0.724 -0.5296  0.6554 -0.0765
 5636TIP3    H116914   1.706   3.392   0.697 -0.9071  0.7983  1.1096
 5636TIP3    H216915   1.844   3.437   0.651 -1.6006  1.6567 -0.2082
 5637TIP3   OH216916   5.589   2.777   4.281 -0.6271 -0.3366  0.1244
 5637TIP3    H116917   5.522   2.764   4.348 -0.8384  1.1367  0.2303
 5637TIP3    H216918   5.545   2.824   4.211 -0.4871 -2.0835 -1.2340
 5638TIP3   OH216919   2.756   5.543   5.020  0.3539 -0.3188 -0.0667
 5638TIP3    H116920   2.732   5.614   5.080 -2.7494 -0.9398 -0.4158
 5638TIP3    H216921   2.731   5.463   5.066 -0.0342 -0.9319 -1.2957
 5639TIP3   OH216922   3.930   5.175   1.808 -0.1945  0.6798 -0.0158
 5639TIP3    H116923   4.014   5.130   1.797 -0.6212 -1.0536  2.8226
 5639TIP3    H216924   3.866   5.116   1.767 -0.4859 -0.2432  1.6960
 5640TIP3   OH216925   4.836   5.369   0.069  0.4902 -0.2379 -0.4211
 5640TIP3    H116926   4.785   5.395  -0.007  0.8564  0.6149 -0.3863
 5640TIP3    H216927   4.771   5.355   0.138  0.3348  2.1220 -0.0045
 5641TIP3   OH216928   1.976   4.087   3.130 -0.6589 -0.4183  0.0722
 5641TIP3    H116929   1.901   4.118   3.079 -0.7286 -1.5159 -0.5295
 5641TIP3    H216930   1.937   4.048   3.209 -0.6789 -0.3645  0.0886
 5642TIP3   OH216931   3.870   1.098   2.781  0.3366 -0.0974 -0.4527
 5642TIP3    H116932   3.843   1.061   2.865  0.2843 -0.7355 -0.7431
 5642TIP3    H216933   3.799   1.158   2.757  0.7334  0.6934  0.3353
 5643TIP3   OH216934   0.408   0.104   0.443  0.3140 -0.2639  0.1574
 5643TIP3    H116935   0.479   0.069   0.389 -0.6036  1.1533 -2.1366
 5643TIP3    H216936   0.347   0.030   0.451 -1.1553  0.2318 -3.8216
 5644TIP3   OH216937   0.354   3.545   2.501 -0.4028  0.2094  0.4102
 5644TIP3    H116938   0.422   3.603   2.466 -0.1523  0.7893  1.7932
 5644TIP3    H216939   0.293   3.604   2.545 -1.4857 -0.3688 -0.2765
 5645TIP3   OH216940   0.636   4.335   1.884 -0.1190  0.0612  0.2074
 5645TIP3    H116941   0.684   4.252   1.892 -1.5201 -0.7582  0.5844
 5645TIP3    H216942   0.558   4.313   1.832  0.2232  1.5025 -0.9837
 5646TIP3   OH216943   4.029   0.590   3.421 -0.2543  0.1316  1.0107
 5646TIP3    H116944   3.941   0.575   3.454 -1.1196  3.3601  0.4482
 5646TIP3    H216945   4.025   0.565   3.328  0.0107 -1.4361  1.3800
 5647TIP3   OH216946   1.660   2.620   4.447 -0.4395 -0.4702  0.2364
 5647TIP3    H116947   1.634   2.624   4.539 -2.2815  2.4135 -0.2732
 5647TIP3    H216948   1.750   2.655   4.446 -0.6698  0.1620  0.8780
 5648TIP3   OH216949   2.626   5.558   2.288  0.2934  0.2772  0.1137
 5648TIP3    H116950   2.635   5.555   2.193  0.6851  0.1059  0.1522
 5648TIP3    H216951   2.716   5.564   2.320  0.2038 -0.3113  0.4947
 5649TIP3   OH216952   5.243   5.863   1.612 -0.0196 -0.5818 -0.1336
 5649TIP3    H116953   5.304   5.934   1.632  0.1567 -0.4541 -1.1134
 5649TIP3    H216954   5.185   5.860   1.689 -1.0510  1.6817 -0.7434
 5650TIP3   OH216955   1.675   4.092   3.145  0.1181 -0.1352  0.3237
 5650TIP3    H116956   1.623   4.157   3.193 -0.3382  0.2342 -0.6354
 5650TIP3    H216957   1.636   4.008   3.168 -0.5630  0.0961  0.0329
 5651TIP3   OH216958   1.778   5.150   2.509 -0.1624 -0.5126 -0.1099
 5651TIP3    H116959   1.746   5.240   2.517 -1.1535 -0.8077 -0.5489
 5651TIP3    H216960   1.861   5.149   2.555 -0.6010  0.3992  0.7162
 5652TIP3   OH216961   3.959   1.233   3.190  0.2419  0.1803 -0.0560
 5652TIP3    H116962   4.005   1.181   3.255 -1.8502 -1.1873  0.4409
 5652TIP3    H216963   4.022   1.244   3.119  2.0421  0.3399  1.4909
 5653TIP3   OH216964   2.498   0.988   2.813 -0.1769  0.2240  0.0681
 5653TIP3    H116965   2.504   0.893   2.828 -1.6402  0.1979  0.6254
 5653TIP3    H216966   2.548   1.002   2.732  1.0606 -0.8293  0.5979
 5654TIP3   OH216967   3.499   1.010   1.878 -0.9200 -0.0983 -0.1864
 5654TIP3    H116968   3.493   1.017   1.973 -0.2823 -0.1316 -0.1408
 5654TIP3    H216969   3.593   1.001   1.860 -1.0712 -0.5606 -0.7843
 5655TIP3   OH216970   1.184   3.168   4.227  0.1021  0.0355  0.2937
 5655TIP3    H116971   1.127   3.091   4.234 -0.8641  0.7587  0.6109
 5655TIP3    H216972   1.273   3.132   4.226 -0.3555 -1.1296 -0.4241
 5656TIP3   OH216973   4.550   0.190   1.554 -0.1254  0.2108 -0.0970
 5656TIP3    H116974   4.507   0.229   1.630 -0.7843  0.6100 -0.6646
 5656TIP3    H216975   4.479   0.149   1.505  0.5379 -1.8012  0.5174
 5657TIP3   OH216976   5.792   3.648   0.973  0.0079 -0.0895  0.3698
 5657TIP3    H116977   5.762   3.730   0.934 -0.0275  0.3437  1.2903
 5657TIP3    H216978   5.887   3.657   0.979 -0.0297  0.0282  0.7926
 5658TIP3   OH216979   3.931   4.369   4.360 -0.5247 -0.1741 -0.6392
 5658TIP3    H116980   3.842   4.359   4.326 -0.5870 -2.4167 -0.0185
 5658TIP3    H216981   3.936   4.306   4.432  0.3483  2.6574  2.0053
 5659TIP3   OH216982   4.213   0.448   2.123  0.1250  0.1216  0.1947
 5659TIP3    H116983   4.220   0.463   2.218  1.1640  1.0010  0.0035
 5659TIP3    H216984   4.169   0.526   2.090  0.5244  0.2052 -0.1436
 5660TIP3   OH216985   1.544   3.452   0.646 -0.1128  0.4394 -0.2385
 5660TIP3    H116986   1.497   3.475   0.726 -0.3121 -1.3209  0.1986
 5660TIP3    H216987   1.484   3.394   0.599  0.7449 -0.0647 -0.7450
 5661TIP3   OH216988   3.617   4.695   4.428  0.1760 -0.0877 -0.1773
 5661TIP3    H116989   3.693   4.740   4.464 -0.1281  0.0822  0.2478
 5661TIP3    H216990   3.616   4.720   4.335  0.3572  0.2912 -0.0760
 5662TIP3   OH216991   3.193   1.452   0.038  0.4444  0.4726 -0.0675
 5662TIP3    H116992   3.287   1.434   0.044  0.4006  0.7381  2.5022
 5662TIP3    H216993   3.154   1.368   0.014  1.4203  0.7739 -3.0890
 5663TIP3   OH216994   5.879   1.866   0.880 -0.1840 -0.2148 -0.0773
 5663TIP3    H116995   5.938   1.936   0.906  0.9772 -0.9306 -0.6741
 5663TIP3    H216996   5.924   1.786   0.907 -1.6525 -0.7269  0.9151
 5664TIP3   OH216997   6.171   2.611   2.680 -0.7269  0.1008  0.2004
 5664TIP3    H116998   6.085   2.589   2.644 -1.3206  1.2128  0.8971
 5664TIP3    H216999   6.183   2.549   2.753 -1.0789  0.1487  0.2991
 5665TIP3   OH217000   4.897   0.542   4.185  0.3425  0.0340  0.0202
 5665TIP3    H117001   4.856   0.627   4.201  1.1784  0.4419  0.0292
 5665TIP3    H217002   4.970   0.537   4.247 -0.9594 -1.6240  1.5183
 5666TIP3   OH217003   3.295   1.917   3.404 -0.4598 -0.5296  0.1435
 5666TIP3    H117004   3.315   1.894   3.313  0.1264 -1.8208  0.5696
 5666TIP3    H217005   3.215   1.968   3.399  0.1859  0.4075 -1.1914
 5667TIP3   OH217006   4.335   3.401   2.185  0.1733 -0.2162 -0.1318
 5667TIP3    H117007   4.422   3.368   2.162  0.2867  0.0183 -0.0362
 5667TIP3    H217008   4.309   3.349   2.261 -0.8410 -2.0663 -1.6432
 5668TIP3   OH217009   0.992   0.341   1.064  0.1838 -0.7788  0.1560
 5668TIP3    H117010   0.939   0.277   1.017  0.9772 -1.5486  0.2752
 5668TIP3    H217011   1.061   0.365   1.003  0.5541 -0.9117  0.5163
 5669TIP3   OH217012   6.267   5.260   3.074  0.2941 -0.5231 -0.4215
 5669TIP3    H117013   6.175   5.252   3.050  0.5237 -2.5984 -0.8498
 5669TIP3    H217014   6.314   5.220   3.001  1.5004  0.1190 -0.0145
 5670TIP3   OH217015   3.623   2.284   4.378 -0.5386 -0.0490  0.5760
 5670TIP3    H117016   3.587   2.243   4.457  0.7929 -0.0671  1.1944
 5670TIP3    H217017   3.706   2.323   4.407 -0.0519 -0.0188 -0.8088
 5671TIP3   OH217018   5.604   1.093   2.872 -0.2208 -0.3627  0.5772
 5671TIP3    H117019   5.700   1.100   2.881 -0.1894 -0.6933  0.5194
 5671TIP3    H217020   5.590   1.008   2.831 -0.5750 -0.6300  1.2322
 5672TIP3   OH217021   1.209   1.319   1.407 -0.5470 -0.3925  0.1727
 5672TIP3    H117022   1.202   1.230   1.372 -0.8810 -0.4684  0.4305
 5672TIP3    H217023   1.197   1.309   1.501 -2.5181  0.1429  0.0258
 5673TIP3   OH217024   0.712   1.614   3.900  0.3704  0.2981  0.3402
 5673TIP3    H117025   0.669   1.608   3.985  0.9967 -1.7776  0.5663
 5673TIP3    H217026   0.650   1.661   3.845 -1.9959 -2.0844  0.7791
 5674TIP3   OH217027   2.269   2.389   1.291  0.5835 -0.2469 -0.5421
 5674TIP3    H117028   2.257   2.373   1.385 -1.3289 -2.0316 -1.0053
 5674TIP3    H217029   2.263   2.484   1.282 -1.3408 -0.1617  0.9338
 5675TIP3   OH217030   2.700   4.062   0.517 -0.1469  0.6992  0.6540
 5675TIP3    H117031   2.710   3.992   0.452 -0.6334  1.1346  0.0882
 5675TIP3    H217032   2.688   4.017   0.600 -0.1733  0.1183  0.3390
 5676TIP3   OH217033   1.172   3.294   1.195 -0.4990 -0.3150  0.0087
 5676TIP3    H117034   1.109   3.343   1.142  0.0729  2.1472  1.4432
 5676TIP3    H217035   1.119   3.235   1.247 -1.4010 -0.0028 -0.5346
 5677TIP3   OH217036   2.183   3.496   1.384  0.7982  0.0953 -0.0432
 5677TIP3    H117037   2.242   3.503   1.308  0.1117 -1.0991 -0.7154
 5677TIP3    H217038   2.113   3.558   1.364  0.5940 -0.2502 -0.4194
 5678TIP3   OH217039   2.803   0.727   2.648  0.4510 -0.3057 -0.0767
 5678TIP3    H117040   2.827   0.715   2.740 -0.4239 -0.2789  0.1648
 5678TIP3    H217041   2.710   0.750   2.650  0.8867  1.6823 -0.8566
 5679TIP3   OH217042   0.143   3.681   3.649  0.3511  0.1092  0.0409
 5679TIP3    H117043   0.143   3.616   3.579  0.5877 -0.2665  0.3896
 5679TIP3    H217044   0.052   3.711   3.654  0.4783  0.6984 -0.9460
 5680TIP3   OH217045   1.225   4.702   2.508 -0.1355  0.6398 -0.2675
 5680TIP3    H117046   1.164   4.762   2.465  0.2154  0.7626 -0.5909
 5680TIP3    H217047   1.305   4.752   2.519 -0.8455  1.3718  2.4957
 5681TIP3   OH217048   3.884   2.764   3.858 -0.3219 -0.7804  0.1120
 5681TIP3    H117049   3.820   2.706   3.817 -2.3259  0.3258  1.4561
 5681TIP3    H217050   3.847   2.782   3.945  1.7143  0.1360  0.8453
 5682TIP3   OH217051   0.271   4.266   3.550 -0.1971 -0.4779  0.7698
 5682TIP3    H117052   0.330   4.340   3.560 -1.8500  1.0824 -0.4271
 5682TIP3    H217053   0.329   4.189   3.550  1.7934  0.9303 -0.0691
 5683TIP3   OH217054   0.523   3.708   0.632  0.1579 -0.1894 -0.6858
 5683TIP3    H117055   0.477   3.784   0.596 -0.7036 -0.8158 -0.9438
 5683TIP3    H217056   0.518   3.719   0.727 -0.0290  0.0347 -0.7224
 5684TIP3   OH217057   3.159   1.639   4.519 -0.0387  1.0020 -0.3113
 5684TIP3    H117058   3.122   1.706   4.461 -0.8691  0.6567 -0.2022
 5684TIP3    H217059   3.134   1.668   4.607 -0.7243  0.3677 -0.2887
 5685TIP3   OH217060   6.093   1.059   4.142  0.3838  0.3906 -0.1069
 5685TIP3    H117061   6.108   0.981   4.088  0.3799  0.5892 -0.3976
 5685TIP3    H217062   6.100   1.028   4.232 -1.9805 -0.4687 -0.1525
 5686TIP3   OH217063   4.845   5.773   1.510 -0.0736 -0.1534 -0.1001
 5686TIP3    H117064   4.919   5.795   1.453  0.4511 -0.9550  0.2607
 5686TIP3    H217065   4.801   5.701   1.466 -0.0967 -0.2889  0.1428
 5687TIP3   OH217066   2.411   4.449   1.985  0.0692  0.0614 -0.3956
 5687TIP3    H117067   2.497   4.457   2.025  0.4703 -1.3259 -0.9219
 5687TIP3    H217068   2.369   4.534   2.000  2.2290  1.4669 -1.7733
 5688TIP3   OH217069   4.906   3.580   4.330  0.0420 -0.0475  0.3248
 5688TIP3    H117070   4.828   3.526   4.319  1.3176 -1.8080 -0.5947
 5688TIP3    H217071   4.903   3.643   4.259 -1.9221  1.7848  1.9225
 5689TIP3   OH217072   4.998   3.289   0.436  0.3279  0.0773 -0.2146
 5689TIP3    H117073   5.091   3.278   0.457  0.6013  0.1973 -1.2762
 5689TIP3    H217074   4.993   3.268   0.342 -0.4714  1.4683 -0.5049
 5690TIP3   OH217075   3.384   3.923   5.135  0.1747  0.4214  0.0021
 5690TIP3    H117076   3.441   3.868   5.080 -1.8286 -0.1901 -1.5934
 5690TIP3    H217077   3.437   3.943   5.212  1.5807 -2.4067 -0.0870
 5691TIP3   OH217078   0.266   2.102   1.076 -0.2239  0.0901 -0.0324
 5691TIP3    H117079   0.213   2.176   1.107  0.8099  0.2314  1.5697
 5691TIP3    H217080   0.356   2.131   1.091  0.2874 -0.5063 -1.8216
 5692TIP3   OH217081   4.722   3.702   4.787 -0.3334  0.2124  0.8991
 5692TIP3    H117082   4.666   3.742   4.854  0.2631 -0.7835  2.0325
 5692TIP3    H217083   4.804   3.751   4.792 -0.8964  1.3439 -0.4154
 5693TIP3   OH217084   2.528   1.463   2.043  0.0857  0.1755  0.0245
 5693TIP3    H117085   2.435   1.468   2.019  0.4171 -0.9575 -1.6911
 5693TIP3    H217086   2.533   1.387   2.101 -0.1528  0.6616  0.6914
 5694TIP3   OH217087   3.472   1.166   3.027 -0.2154  0.0996 -0.2194
 5694TIP3    H117088   3.508   1.221   2.957 -1.6577  2.7563  0.9669
 5694TIP3    H217089   3.377   1.173   3.016 -0.4597 -0.1206  1.4731
 5695TIP3   OH217090   6.069   0.965   0.550  0.3062 -0.0495 -0.9963
 5695TIP3    H117091   6.104   0.995   0.467  1.6349  2.1035  0.2425
 5695TIP3    H217092   6.144   0.925   0.595  0.5470  1.8428  0.4435
 5696TIP3   OH217093   3.808   0.606   4.485  0.0997 -0.1561 -0.0906
 5696TIP3    H117094   3.800   0.665   4.559  2.2544  0.7630 -0.5407
 5696TIP3    H217095   3.901   0.604   4.464  0.2460 -3.9851  0.0937
 5697TIP3   OH217096   1.825   5.281   4.783  0.0500  0.3438  0.4640
 5697TIP3    H117097   1.878   5.280   4.863  0.3875 -0.0261  0.2350
 5697TIP3    H217098   1.877   5.329   4.719  0.6336 -1.0119 -0.1125
 5698TIP3   OH217099   1.540   0.481   2.769  0.1172  0.3016  0.1755
 5698TIP3    H117100   1.615   0.504   2.825 -1.4577 -0.1468  2.6339
 5698TIP3    H217101   1.578   0.434   2.695  2.2425 -0.1860  1.4989
 5699TIP3   OH217102   2.675   1.692   2.494 -0.0333  0.0058 -0.4660
 5699TIP3    H117103   2.581   1.697   2.512 -0.0245  0.1461 -0.4564
 5699TIP3    H217104   2.681   1.637   2.416 -0.1779  0.5585 -0.8742
 5700TIP3   OH217105   1.108   2.053   1.711 -0.4534 -0.2331  0.0764
 5700TIP3    H117106   1.032   2.108   1.695 -0.5332  0.0917  1.3942
 5700TIP3    H217107   1.085   1.967   1.675 -0.8900  0.2273 -0.7464
 5701TIP3   OH217108   0.247   0.857   0.763  0.0932 -0.1511  0.2807
 5701TIP3    H117109   0.197   0.776   0.774 -0.9968  0.4649 -0.0035
 5701TIP3    H217110   0.306   0.840   0.690 -2.3555  0.3115 -1.9448
 5702TIP3   OH217111   2.301   4.339   3.972 -0.1012 -0.1115  0.0565
 5702TIP3    H117112   2.240   4.359   4.044  1.5632 -0.7045  1.7101
 5702TIP3    H217113   2.346   4.421   3.956 -1.4977  0.4237 -1.4159
 5703TIP3   OH217114   3.624   4.160   3.091  0.3641  0.5544  0.3275
 5703TIP3    H117115   3.611   4.088   3.030 -1.2697  1.8835 -1.0056
 5703TIP3    H217116   3.671   4.122   3.165  0.0818 -1.6976 -0.5942
 5704TIP3   OH217117   1.779   5.692   1.639 -0.2158  0.5234  0.6970
 5704TIP3    H117118   1.796   5.664   1.729  0.4272  2.4853  1.2315
 5704TIP3    H217119   1.838   5.766   1.625 -2.4239  2.2133 -0.2802
 5705TIP3   OH217120   5.314   1.619   2.661  0.1296 -0.0545 -0.0926
 5705TIP3    H117121   5.362   1.583   2.586  0.2003  0.6437 -0.3879
 5705TIP3    H217122   5.325   1.553   2.730 -0.2311 -0.8753 -0.7977
 5706TIP3   OH217123   3.869   0.077   4.413  0.2039 -0.1921 -0.7200
 5706TIP3    H117124   3.881   0.149   4.475  1.2132 -0.6920 -0.3047
 5706TIP3    H217125   3.835   0.005   4.466 -1.3100  0.1123 -1.2302
 5707TIP3   OH217126   5.378   2.925   1.898 -0.6185  0.0684  0.5607
 5707TIP3    H117127   5.474   2.933   1.901 -0.4677  0.8461 -2.6781
 5707TIP3    H217128   5.346   3.009   1.929 -0.1563  0.5367 -0.1945
 5708TIP3   OH217129   5.132   4.570   1.449  0.3038 -0.0923  0.2961
 5708TIP3    H117130   5.164   4.497   1.503  0.7779  0.5426  0.8865
 5708TIP3    H217131   5.037   4.561   1.450  0.2916  0.0950  1.5071
 5709TIP3   OH217132   0.310   5.353   4.309 -0.3639  0.3315 -0.4655
 5709TIP3    H117133   0.281   5.370   4.398  1.9275 -0.0435  0.4154
 5709TIP3    H217134   0.306   5.438   4.266 -2.5179  0.3265 -0.3889
 5710TIP3   OH217135   1.330   4.298   4.023  0.3322 -0.7215 -0.0931
 5710TIP3    H117136   1.241   4.318   4.054  0.4676 -1.3669  0.7500
 5710TIP3    H217137   1.316   4.241   3.948  0.0317 -0.9277  0.1151
 5711TIP3   OH217138   0.760   3.853   0.343  0.6215 -0.0223  0.2404
 5711TIP3    H117139   0.833   3.904   0.308  0.1783  1.1122  0.9345
 5711TIP3    H217140   0.733   3.900   0.421 -0.7116 -0.5553  0.1258
 5712TIP3   OH217141   5.026   1.540   0.020 -0.4941 -0.3780  0.1068
 5712TIP3    H117142   5.030   1.503   0.108 -0.3245  0.5439  0.4953
 5712TIP3    H217143   4.934   1.566   0.009 -0.6909 -1.2021 -0.2986
 5713TIP3   OH217144   6.194   0.840   3.170  0.5304 -0.1667 -0.2211
 5713TIP3    H117145   6.182   0.934   3.154  1.6196  0.1467  0.7161
 5713TIP3    H217146   6.195   0.801   3.082  3.0669  1.0896 -0.8532
 5714TIP3   OH217147   2.362   4.674   2.998  0.4537 -0.0555 -0.1244
 5714TIP3    H117148   2.344   4.678   2.904  0.2646 -1.6943 -0.1932
 5714TIP3    H217149   2.395   4.585   3.011 -0.4835 -0.1885  1.5192
 5715TIP3   OH217150   0.339   2.992   4.248  0.1663 -0.1066  0.2684
 5715TIP3    H117151   0.336   2.944   4.165  1.0713  0.6979 -0.2515
 5715TIP3    H217152   0.324   3.083   4.224  1.7938  0.3417  0.7700
 5716TIP3   OH217153   1.957   2.166   1.939 -0.1269 -0.1865 -0.1434
 5716TIP3    H117154   2.006   2.208   2.009 -2.2242  0.3848  1.0594
 5716TIP3    H217155   1.926   2.084   1.977  1.0169 -1.2287 -1.3480
 5717TIP3   OH217156   4.807   5.019   2.439  0.5174 -0.4274 -0.1690
 5717TIP3    H117157   4.719   4.994   2.410  1.0039 -1.2545 -0.9717
 5717TIP3    H217158   4.812   4.988   2.529 -0.1073 -0.1134 -0.0163
 5718TIP3   OH217159   0.883   2.710   0.958 -0.0899  0.2723  0.6268
 5718TIP3    H117160   0.927   2.785   0.999 -0.6352  1.3295 -0.6421
 5718TIP3    H217161   0.812   2.749   0.908 -0.4275 -1.1150 -0.0082
 5719TIP3   OH217162   4.306   2.784   3.260  0.0239  0.2100  0.2911
 5719TIP3    H117163   4.294   2.836   3.181 -0.5398 -0.4884 -0.0900
 5719TIP3    H217164   4.268   2.838   3.330 -1.8171 -0.2526 -0.3069
 5720TIP3   OH217165   4.720   1.689   4.509 -0.0987 -0.4551 -0.4437
 5720TIP3    H117166   4.721   1.622   4.441  0.2145  1.0055 -1.9375
 5720TIP3    H217167   4.732   1.771   4.462 -0.2887  0.6509  1.3484
 5721TIP3   OH217168   1.444   4.464   2.557 -0.0609 -0.0918 -0.4735
 5721TIP3    H117169   1.510   4.479   2.489  0.7542 -1.4596 -0.0192
 5721TIP3    H217170   1.458   4.374   2.585 -1.1144  0.0908  0.7442
 5722TIP3   OH217171   4.013   3.660   4.942 -0.1590 -0.1546 -0.0896
 5722TIP3    H117172   4.049   3.619   4.862  1.1021  1.5435 -0.4491
 5722TIP3    H217173   3.919   3.662   4.927  0.1279  1.1884 -2.1142
 5723TIP3   OH217174   4.433   3.323   4.008  0.0117  0.8049  0.3140
 5723TIP3    H117175   4.338   3.312   4.002 -0.0876  2.1299 -1.0592
 5723TIP3    H217176   4.467   3.280   3.929  0.4038  1.7292 -0.0304
 5724TIP3   OH217177   4.800   4.650   2.017  0.8543  0.8616 -0.1273
 5724TIP3    H117178   4.766   4.579   1.964 -0.5059  0.2030  1.5279
 5724TIP3    H217179   4.820   4.720   1.954 -1.4025  0.4121 -1.4367
 5725TIP3   OH217180   3.820   2.402   2.868  0.0527  0.2907 -0.2287
 5725TIP3    H117181   3.798   2.398   2.961  0.8572 -1.9673 -0.0891
 5725TIP3    H217182   3.879   2.329   2.854 -0.8525 -0.0500 -2.7441
 5726TIP3   OH217183   2.237   5.702   0.671  0.6256  0.2020 -0.3153
 5726TIP3    H117184   2.195   5.638   0.729 -0.5438  0.8796 -0.3731
 5726TIP3    H217185   2.164   5.743   0.624  1.2469  2.1921  0.3540
 5727TIP3   OH217186   2.019   2.145   1.444  0.8229  0.2534 -0.4319
 5727TIP3    H117187   2.070   2.220   1.475 -0.5942  0.9901  0.1972
 5727TIP3    H217188   2.033   2.078   1.511  1.3764  0.2681 -0.5296
 5728TIP3   OH217189   2.094   1.567   1.482 -0.0733 -0.3729  0.3437
 5728TIP3    H117190   2.149   1.496   1.515  2.3951  1.8798  1.4578
 5728TIP3    H217191   2.048   1.600   1.559 -0.9990 -0.5501 -0.1143
 5729TIP3   OH217192   4.538   2.623   1.622  0.0597  0.4427 -0.2795
 5729TIP3    H117193   4.554   2.580   1.706 -1.2003  0.8557  0.1967
 5729TIP3    H217194   4.544   2.553   1.557  0.7268  0.0613  0.1836
 5730TIP3   OH217195   0.579   4.310   1.436  0.2122 -0.5437  0.3066
 5730TIP3    H117196   0.498   4.308   1.384  1.5675  0.6600 -1.9811
 5730TIP3    H217197   0.573   4.232   1.491 -2.3711 -0.6481  0.0202
 5731TIP3   OH217198   4.188   1.864   1.142  0.4793 -0.0656 -0.4550
 5731TIP3    H117199   4.220   1.827   1.225 -0.4462  1.1827  0.4866
 5731TIP3    H217200   4.137   1.793   1.103 -1.5439  0.2286  1.4791
 5732TIP3   OH217201   4.255   4.374   0.080 -0.2250  0.1189 -0.0933
 5732TIP3    H117202   4.170   4.365   0.036  0.1729  0.9608 -1.0799
 5732TIP3    H217203   4.257   4.466   0.108  0.9511  0.5092 -1.3742
 5733TIP3   OH217204   5.209   1.297   3.506 -0.0158 -0.1434  0.0566
 5733TIP3    H117205   5.177   1.221   3.457 -0.8576 -0.1949  0.6529
 5733TIP3    H217206   5.289   1.323   3.461 -0.2554 -0.7705 -0.7624
 5734TIP3   OH217207   0.564   0.342   0.060 -0.2945 -0.0837 -0.6614
 5734TIP3    H117208   0.622   0.414   0.033 -0.5444 -0.3820 -2.1003
 5734TIP3    H217209   0.479   0.383   0.073 -0.7795 -0.2502 -2.8187
 5735TIP3   OH217210   0.543   0.620   2.596 -0.2466  0.1224 -0.4750
 5735TIP3    H117211   0.632   0.597   2.621 -0.4805  2.2807  2.9450
 5735TIP3    H217212   0.552   0.701   2.546 -0.2754  1.2235  1.2178
 5736TIP3   OH217213   1.284   3.960   0.874 -0.1467  0.0347 -0.4999
 5736TIP3    H117214   1.351   4.004   0.927  0.2023 -0.0862 -0.8377
 5736TIP3    H217215   1.324   3.876   0.850 -0.7989 -0.4728  0.1238
 5737TIP3   OH217216   6.230   4.579   5.044 -0.8641 -0.3283  0.1924
 5737TIP3    H117217   6.310   4.554   4.997 -1.2581 -1.8051  0.2542
 5737TIP3    H217218   6.233   4.675   5.046  1.0944 -0.3468  0.5553
 5738TIP3   OH217219   3.454   1.133   0.059 -0.1510 -0.0930  0.1726
 5738TIP3    H117220   3.537   1.101   0.095  0.7416 -0.6086 -2.1473
 5738TIP3    H217221   3.469   1.226   0.044  0.0414 -0.1934 -0.2808
 5739TIP3   OH217222   4.302   3.080   0.304 -0.5288 -0.0210 -0.1067
 5739TIP3    H117223   4.238   3.100   0.236  1.0592  0.2621 -1.5730
 5739TIP3    H217224   4.332   2.992   0.284 -1.9338 -1.0166  1.8367
 5740TIP3   OH217225   0.801   3.674   4.090  0.3223  0.0784 -0.3772
 5740TIP3    H117226   0.806   3.655   4.184  2.1531 -1.2012 -0.6760
 5740TIP3    H217227   0.768   3.594   4.051 -1.0096  0.8054 -0.8072
 5741TIP3   OH217228   5.710   4.038   1.485  0.3656 -0.4853 -0.0120
 5741TIP3    H117229   5.737   4.037   1.577  1.4321  1.0115 -0.2636
 5741TIP3    H217230   5.626   4.084   1.486 -0.1284 -1.3775  0.3132
 5742TIP3   OH217231   1.225   3.272   1.556  0.0809  0.6198  0.4695
 5742TIP3    H117232   1.271   3.343   1.511 -0.1977 -0.1474 -1.0620
 5742TIP3    H217233   1.238   3.196   1.501 -1.1429 -0.1262  1.1765
 5743TIP3   OH217234   5.241   3.141   3.885 -0.3941  0.1173 -0.2468
 5743TIP3    H117235   5.313   3.081   3.867  0.0305  0.3179  0.7314
 5743TIP3    H217236   5.281   3.228   3.885 -0.5587  0.2054  0.6162
 5744TIP3   OH217237   6.104   5.624   0.347 -0.4517 -0.8726 -0.3472
 5744TIP3    H117238   6.061   5.554   0.395 -0.4519  0.5350  1.8743
 5744TIP3    H217239   6.189   5.588   0.323 -1.1133 -2.1836 -0.8092
 5745TIP3   OH217240   0.552   1.131   3.105  0.1967 -0.1073  0.0368
 5745TIP3    H117241   0.576   1.128   3.197  1.2947 -0.3904 -0.2470
 5745TIP3    H217242   0.529   1.041   3.083 -1.4919  0.2058  0.3779
 5746TIP3   OH217243   5.806   3.994   3.005  0.1231  0.1408 -0.5912
 5746TIP3    H117244   5.873   3.930   2.981  0.2766  0.0936 -0.0514
 5746TIP3    H217245   5.854   4.076   3.017  0.0552  0.1518 -0.3952
 5747TIP3   OH217246   3.210   2.266   1.201  0.2276  0.0861 -0.7622
 5747TIP3    H117247   3.186   2.348   1.157  1.2660  0.5839 -0.4272
 5747TIP3    H217248   3.194   2.283   1.293  0.4724 -0.0777 -0.6886
 5748TIP3   OH217249   2.364   4.783   3.349  0.2642 -0.2009 -0.0352
 5748TIP3    H117250   2.307   4.721   3.394  0.2614  1.1542  1.9535
 5748TIP3    H217251   2.304   4.836   3.296  0.0802 -0.8462 -0.4815
 5749TIP3   OH217252   5.438   1.163   2.193  0.0101 -0.0299 -0.1521
 5749TIP3    H117253   5.383   1.117   2.256  0.1823 -0.1742 -0.1058
 5749TIP3    H217254   5.478   1.093   2.141  0.6135  0.0448  0.2015
 5750TIP3   OH217255   5.552   5.218   3.724 -0.0431 -0.2424 -0.6531
 5750TIP3    H117256   5.468   5.232   3.767  0.3373 -0.2985  0.1243
 5750TIP3    H217257   5.587   5.139   3.766  0.8331  0.3365 -0.2800
 5751TIP3   OH217258   6.312   0.382   3.031 -0.2026 -0.2985  0.4614
 5751TIP3    H117259   6.334   0.416   3.118 -1.3369  1.8608 -0.0107
 5751TIP3    H217260   6.260   0.304   3.048  0.6252 -0.6110  1.6871
 5752TIP3   OH217261   5.119   4.024   3.030  0.1496 -0.1017 -0.3196
 5752TIP3    H117262   5.177   3.949   3.037 -0.5882 -0.5746  1.0597
 5752TIP3    H217263   5.139   4.078   3.107 -0.2186  0.4764 -0.6155
 5753TIP3   OH217264   5.021   4.241   0.999  0.4578  0.1664  0.0576
 5753TIP3    H117265   5.028   4.312   0.936 -0.6292  0.0456 -0.2273
 5753TIP3    H217266   5.025   4.284   1.084  1.9218  0.3321 -0.0631
 5754TIP3   OH217267   2.254   0.189   2.639  0.2263  0.1916 -0.0297
 5754TIP3    H117268   2.265   0.115   2.580 -0.0359 -0.3767  0.6244
 5754TIP3    H217269   2.260   0.266   2.582 -1.8987 -0.3663 -1.0845
 5755TIP3   OH217270   6.032   3.145   1.617  0.6730  0.9149 -0.2108
 5755TIP3    H117271   5.974   3.209   1.658 -0.0586 -0.8090  1.6479
 5755TIP3    H217272   5.976   3.068   1.602  2.2130 -0.4849  0.8057
 5756TIP3   OH217273   2.468   1.409   4.135  0.0891  0.1183 -0.4413
 5756TIP3    H117274   2.562   1.392   4.129 -0.0752 -1.3050  0.5470
 5756TIP3    H217275   2.426   1.325   4.118 -0.9097  0.1875  1.3725
 5757TIP3   OH217276   4.116   5.571   3.285  0.1066 -0.2830  0.2677
 5757TIP3    H117277   4.090   5.482   3.307  2.0286 -0.9212  0.1235
 5757TIP3    H217278   4.046   5.603   3.228 -0.8674 -1.4998  0.7362
 5758TIP3   OH217279   3.664   5.988   4.099  0.0513  0.0144  0.8902
 5758TIP3    H117280   3.674   5.913   4.040  2.8890  1.1738 -0.2620
 5758TIP3    H217281   3.664   5.950   4.187 -1.9722 -1.5568  0.2834
 5759TIP3   OH217282   5.217   5.856   3.852  0.4234 -0.0857  0.2917
 5759TIP3    H117283   5.137   5.836   3.804  2.1319 -0.3003 -2.6822
 5759TIP3    H217284   5.194   5.931   3.907 -1.7219 -0.0028 -0.6363
 5760TIP3   OH217285   2.412   0.663   1.836 -0.5872  0.2012 -0.6932
 5760TIP3    H117286   2.370   0.692   1.917  0.4999 -0.6904  0.2142
 5760TIP3    H217287   2.471   0.593   1.863  0.0106  0.0768 -2.2271
 5761TIP3   OH217288   1.750   3.775   3.360  0.3036  0.3936 -0.1492
 5761TIP3    H117289   1.824   3.747   3.307 -0.0917 -2.0012  0.4257
 5761TIP3    H217290   1.686   3.809   3.297  0.2675 -1.4011 -1.1441
 5762TIP3   OH217291   5.263   0.745   0.362  0.1908 -0.0009 -0.4122
 5762TIP3    H117292   5.259   0.730   0.456 -1.0251  1.5415 -0.1757
 5762TIP3    H217293   5.195   0.809   0.345  1.0873  0.5502 -2.1968
 5763TIP3   OH217294   3.281   4.247   1.624  0.3828  0.8514 -0.2751
 5763TIP3    H117295   3.273   4.275   1.533  0.8496 -0.5570 -0.7929
 5763TIP3    H217296   3.290   4.151   1.618  0.4499  0.7413  1.2472
 5764TIP3   OH217297   0.932   1.693   3.758 -0.2108 -0.3084  0.0304
 5764TIP3    H117298   0.851   1.666   3.802  1.2484 -1.6155  2.0839
 5764TIP3    H217299   0.912   1.780   3.724 -2.3421 -0.3930  0.8763
 5765TIP3   OH217300   3.840   1.617   2.372 -0.3718 -0.3873  0.2667
 5765TIP3    H117301   3.770   1.567   2.415  0.2461  0.2484  2.1405
 5765TIP3    H217302   3.920   1.590   2.417  0.6086 -0.9037 -1.6638
 5766TIP3   OH217303   5.134   5.809   3.375 -0.3878  0.7350  0.4600
 5766TIP3    H117304   5.060   5.750   3.369  1.0461 -1.1463  0.3635
 5766TIP3    H217305   5.105   5.878   3.435 -1.6984 -0.7623  1.6521
 5767TIP3   OH217306   5.368   3.884   3.364 -0.2824  0.2105  0.2313
 5767TIP3    H117307   5.459   3.895   3.338 -0.2605 -0.1524  0.1515
 5767TIP3    H217308   5.340   3.971   3.392  0.1907  0.2459  0.5917
 5768TIP3   OH217309   1.204   5.481   2.752  0.1836 -0.6278 -1.3150
 5768TIP3    H117310   1.240   5.402   2.792 -0.2868  0.9971  2.8308
 5768TIP3    H217311   1.113   5.458   2.732 -0.3195 -0.8677  1.0165
 5769TIP3   OH217312   3.780   2.001   1.870 -0.9370  0.1919  0.0682
 5769TIP3    H117313   3.788   2.066   1.800 -0.4375  0.8628  0.7291
 5769TIP3    H217314   3.774   1.917   1.825 -1.7643  0.6999 -0.8121
 5770TIP3   OH217315   0.279   2.561   3.842  0.1064  0.4447  0.2268
 5770TIP3    H117316   0.335   2.507   3.786  0.3795  0.3548  0.5834
 5770TIP3    H217317   0.318   2.553   3.929 -1.0268 -0.4307  0.6845
 5771TIP3   OH217318   4.189   4.859   4.165  0.2018  0.0052 -0.2329
 5771TIP3    H117319   4.149   4.928   4.217  0.3025 -0.1131  0.0014
 5771TIP3    H217320   4.183   4.891   4.074  2.9103  1.7169  0.0680
 5772TIP3   OH217321   1.177   0.235   2.628 -0.0426  0.4817 -0.4288
 5772TIP3    H117322   1.175   0.327   2.602 -0.2369  0.5264 -0.2528
 5772TIP3    H217323   1.180   0.187   2.545 -0.0236  0.6432 -0.5226
 5773TIP3   OH217324   2.765   5.613   4.755 -0.2234  0.4520 -0.0648
 5773TIP3    H117325   2.788   5.705   4.766  1.3366  0.2518 -1.1411
 5773TIP3    H217326   2.762   5.578   4.843  3.1560  0.7065  0.2920
 5774TIP3   OH217327   2.359   5.958   5.053 -0.1605 -0.3380  0.1233
 5774TIP3    H117328   2.347   6.050   5.027  0.6096 -0.3936 -0.4669
 5774TIP3    H217329   2.371   5.912   4.970  0.0368 -0.8860  0.4585
 5775TIP3   OH217330  -0.012   2.192   2.662 -0.1124  0.2176  1.1100
 5775TIP3    H117331  -0.003   2.101   2.634 -0.8964  0.3229  0.4827
 5775TIP3    H217332   0.053   2.239   2.610 -1.8845  0.4909 -1.0343
 5776TIP3   OH217333   0.045   2.911   0.840 -0.1417 -0.4087  0.1618
 5776TIP3    H117334   0.133   2.948   0.830 -0.3924 -0.3352 -2.2243
 5776TIP3    H217335  -0.012   2.986   0.853 -0.0019 -0.3789  0.6233
 5777TIP3   OH217336   1.572   4.446   3.049  0.2269 -0.0828 -0.1560
 5777TIP3    H117337   1.578   4.512   3.117 -0.3615  0.5806 -0.7303
 5777TIP3    H217338   1.663   4.426   3.027  0.4299 -0.4349  0.9251
 5778TIP3   OH217339   3.363   4.838   1.285  0.0417  0.4517 -0.6959
 5778TIP3    H117340   3.277   4.818   1.321  1.1337  0.8687  2.5082
 5778TIP3    H217341   3.355   4.820   1.192 -2.6011 -2.5416 -0.0658
 5779TIP3   OH217342   5.141   0.763   2.417 -0.2628 -0.9504  0.3843
 5779TIP3    H117343   5.132   0.669   2.431 -1.2476 -0.8041  0.7764
 5779TIP3    H217344   5.071   0.803   2.469  1.2230  0.1286  1.6616
 5780TIP3   OH217345   0.626   3.916   2.991  0.0696 -0.2390 -0.2441
 5780TIP3    H117346   0.535   3.931   3.017 -0.3440 -0.5428 -1.4253
 5780TIP3    H217347   0.676   3.923   3.072 -0.4849  3.9104 -0.0632
 5781TIP3   OH217348   3.087   2.271   3.847 -0.2933 -0.1072 -0.1289
 5781TIP3    H117349   3.038   2.233   3.774 -1.1357 -1.9970  1.3488
 5781TIP3    H217350   3.029   2.337   3.883  0.2782  1.1097 -1.3469
 5782TIP3   OH217351   4.563   2.853   4.247  0.5460 -0.0751 -0.6214
 5782TIP3    H117352   4.485   2.830   4.196  1.2415 -4.0608 -0.2188
 5782TIP3    H217353   4.538   2.835   4.338  2.2117 -3.0079 -0.6049
 5783TIP3   OH217354   3.899   0.841   3.921  0.1465 -0.6276  0.1822
 5783TIP3    H117355   3.915   0.786   3.997 -0.3634  1.0224  1.5335
 5783TIP3    H217356   3.905   0.930   3.954  1.6090  0.1797 -2.0719
 5784TIP3   OH217357   1.220   1.825   2.056 -0.3579 -0.2695 -0.2600
 5784TIP3    H117358   1.273   1.829   2.135 -0.7151 -0.6443 -0.0012
 5784TIP3    H217359   1.130   1.838   2.086 -0.3447  1.2848 -0.7963
 5785TIP3   OH217360   3.735   5.834   2.462  0.2580  0.2772  0.5632
 5785TIP3    H117361   3.763   5.749   2.429 -2.0030 -0.0306 -0.8276
 5785TIP3    H217362   3.799   5.896   2.428  0.4068 -0.5822 -0.7938
 5786TIP3   OH217363   5.931   1.184   0.829  0.1758 -0.0164  0.2947
 5786TIP3    H117364   5.965   1.096   0.812  0.4909  0.1314  0.1424
 5786TIP3    H217365   5.885   1.176   0.913  0.1833 -0.3315  0.2701
 5787TIP3   OH217366   2.163   2.328   1.559 -0.5983 -0.4290 -0.0972
 5787TIP3    H117367   2.125   2.296   1.642  1.7538  0.6558  1.5144
 5787TIP3    H217368   2.168   2.423   1.569  0.8420 -0.3759 -0.9292
 5788TIP3   OH217369   3.198   0.527   5.079  0.2699 -0.3295 -0.0804
 5788TIP3    H117370   3.147   0.532   4.998  1.0212  1.9080 -0.4887
 5788TIP3    H217371   3.133   0.528   5.149 -0.3152  0.4738 -0.6223
 5789TIP3   OH217372   0.107   1.844   2.386  0.4483  0.0369  0.5342
 5789TIP3    H117373   0.061   1.927   2.396 -0.5056 -0.6940  3.0869
 5789TIP3    H217374   0.087   1.796   2.467  2.6852 -1.8276  0.0847
 5790TIP3   OH217375   0.141   5.890   0.907 -0.1494  0.2544  0.3155
 5790TIP3    H117376   0.087   5.969   0.901  1.5098  1.4576  0.4045
 5790TIP3    H217377   0.106   5.831   0.840 -0.4744  1.6838 -0.8229
 5791TIP3   OH217378   0.572   4.360   4.691 -0.3026 -0.2329 -0.0747
 5791TIP3    H117379   0.609   4.280   4.729 -1.2321 -0.0189  1.3817
 5791TIP3    H217380   0.645   4.401   4.644  1.0828 -0.2872  1.9135
 5792TIP3   OH217381   4.332   0.787   2.484  0.1373  0.2476  0.2551
 5792TIP3    H117382   4.294   0.800   2.571 -0.1676 -1.4586  0.4096
 5792TIP3    H217383   4.417   0.830   2.489 -0.5653  1.6243  0.8431
 5793TIP3   OH217384   3.085   5.790   1.811 -0.0995 -0.4189 -0.3064
 5793TIP3    H117385   3.147   5.855   1.843  0.4843 -0.9061 -0.4414
 5793TIP3    H217386   3.008   5.801   1.868 -0.4884  1.1930 -1.0952
 5794TIP3   OH217387   6.106   4.524   0.379  0.3548 -0.1046  0.4288
 5794TIP3    H117388   6.177   4.514   0.316  0.5500  2.3583  0.1984
 5794TIP3    H217389   6.144   4.492   0.462  1.4561  0.4088  0.1392
 5795TIP3   OH217390   2.723   2.731   4.381 -0.1232  0.4138 -0.1654
 5795TIP3    H117391   2.789   2.668   4.351 -1.2517 -0.7868 -0.1836
 5795TIP3    H217392   2.761   2.769   4.460  0.4038 -0.6253  0.1049
 5796TIP3   OH217393   2.113   0.081   3.551 -0.2614  0.1724  0.0950
 5796TIP3    H117394   2.174   0.085   3.478  1.0401 -0.4302  1.1095
 5796TIP3    H217395   2.032   0.049   3.512  0.6439 -0.9506 -0.9612
 5797TIP3   OH217396   3.711   2.235   3.211 -0.1943 -0.5023 -0.1922
 5797TIP3    H117397   3.787   2.181   3.234 -0.4078 -0.2229  1.2757
 5797TIP3    H217398   3.638   2.196   3.260 -0.7119  0.0863 -0.4736
 5798TIP3   OH217399   5.163   5.362   3.858 -0.1744  0.2843  0.0341
 5798TIP3    H117400   5.068   5.358   3.843  0.0234 -0.6403 -1.1138
 5798TIP3    H217401   5.176   5.442   3.910 -1.5418  0.6144 -0.0976
 5799TIP3   OH217402   3.091   2.642   0.001 -0.3609 -0.8612 -0.7814
 5799TIP3    H117403   3.012   2.591   0.018 -0.9686  0.5109  0.8712
 5799TIP3    H217404   3.105   2.692   0.082  2.5015 -1.4031 -0.8220
 5800TIP3   OH217405   4.558   2.873   0.341 -0.3114 -0.3603 -0.2364
 5800TIP3    H117406   4.575   2.890   0.249 -1.9343  2.1662 -0.1713
 5800TIP3    H217407   4.486   2.810   0.341 -0.7056  0.0879 -0.7087
 5801TIP3   OH217408   4.021   4.286   3.974 -0.0281 -0.2440  0.1217
 5801TIP3    H117409   4.109   4.252   3.955  0.1622  0.8573 -1.0834
 5801TIP3    H217410   3.962   4.220   3.939  0.3115 -0.7845  0.5448
 5802TIP3   OH217411   2.119   0.058   0.154 -0.0607 -0.1073  0.1521
 5802TIP3    H117412   2.153  -0.023   0.192 -1.1565  0.1421  1.7478
 5802TIP3    H217413   2.193   0.119   0.158  0.1223 -0.3755  0.9827
 5803TIP3   OH217414   2.411   2.754   2.289  0.4265 -0.2368  0.7699
 5803TIP3    H117415   2.505   2.769   2.274 -0.1631  1.9731 -1.2940
 5803TIP3    H217416   2.392   2.672   2.243  1.0730  0.0092  0.0566
 5804TIP3   OH217417   4.833   4.016   1.304  0.2745  0.0508 -0.3662
 5804TIP3    H117418   4.780   4.096   1.307 -2.3372 -1.5641  2.1655
 5804TIP3    H217419   4.876   4.014   1.390 -0.1348 -1.4731 -0.1782
 5805TIP3   OH217420   3.038   5.204   3.299  0.4942  0.3331 -0.5712
 5805TIP3    H117421   3.051   5.109   3.293  1.7303  0.4393  0.0970
 5805TIP3    H217422   3.120   5.241   3.266  0.1932  1.1560 -0.4049
 5806TIP3   OH217423   3.847   4.753   1.572 -0.3569  0.3076  0.0290
 5806TIP3    H117424   3.829   4.670   1.616 -2.2347  1.2758  1.2051
 5806TIP3    H217425   3.796   4.748   1.491  1.1218 -0.4525 -0.9007
 5807TIP3   OH217426   0.536   0.560   4.621  0.0598  1.3016 -0.3103
 5807TIP3    H117427   0.479   0.535   4.548 -0.0642 -2.1503  0.8110
 5807TIP3    H217428   0.477   0.570   4.695  0.6098  0.4346  0.2555
 5808TIP3   OH217429   5.624   5.658   3.372 -0.4297 -0.3195  0.0540
 5808TIP3    H117430   5.648   5.649   3.464 -0.4956  2.5601  0.4338
 5808TIP3    H217431   5.549   5.718   3.372  1.2098  1.9477 -1.9602
 5809TIP3   OH217432   5.536   1.548   1.003 -0.1084  0.3541 -0.3454
 5809TIP3    H117433   5.570   1.636   0.988 -0.5734  0.3557 -1.5042
 5809TIP3    H217434   5.465   1.560   1.067 -0.7311  0.9481 -1.1378
 5810TIP3   OH217435   6.063   0.213   1.764 -0.9676 -0.1411  0.2352
 5810TIP3    H117436   6.019   0.272   1.702 -0.1431 -0.3128 -0.5297
 5810TIP3    H217437   6.034   0.125   1.737 -0.6298 -0.2137  0.1076
 5811TIP3   OH217438   0.582   5.701   4.857  0.4092 -0.0457  0.0546
 5811TIP3    H117439   0.542   5.657   4.931  0.3275 -0.7843 -0.4252
 5811TIP3    H217440   0.632   5.633   4.811 -0.2382  0.1942 -1.0567
 5812TIP3   OH217441   4.427   2.888   0.923  0.6471 -0.7631  0.2256
 5812TIP3    H117442   4.460   2.830   0.991  0.2480 -1.5694 -0.2552
 5812TIP3    H217443   4.396   2.830   0.854  0.4180  0.0247 -0.3583
 5813TIP3   OH217444   5.351   3.585   4.281 -0.3779 -0.2266  0.0746
 5813TIP3    H117445   5.373   3.668   4.238 -2.1254 -0.1512 -0.7764
 5813TIP3    H217446   5.314   3.531   4.211  0.5112 -1.6645  0.6632
 5814TIP3   OH217447   1.566   1.031   4.488  0.0381 -0.3307  0.1582
 5814TIP3    H117448   1.488   1.014   4.541 -1.0097 -1.0563 -1.5136
 5814TIP3    H217449   1.570   1.126   4.481 -1.9787 -0.3044 -1.4450
 5815TIP3   OH217450   3.756   2.657   1.771  0.1246 -0.1896 -0.3437
 5815TIP3    H117451   3.836   2.671   1.822  0.5819 -1.1094 -0.7953
 5815TIP3    H217452   3.709   2.589   1.819 -0.8228  0.9410  0.3932
 5816TIP3   OH217453   3.965   5.873   0.245 -0.1155 -0.1500  0.3455
 5816TIP3    H117454   4.017   5.865   0.325 -1.8290 -3.1027  1.3062
 5816TIP3    H217455   3.987   5.794   0.195 -1.2944  0.1445 -0.6773
 5817TIP3   OH217456   4.431   2.456   3.789  0.5082  0.1280 -0.4285
 5817TIP3    H117457   4.404   2.541   3.824 -2.2541 -0.5320 -0.7363
 5817TIP3    H217458   4.407   2.394   3.857 -2.8198 -0.9295 -2.3750
 5818TIP3   OH217459   0.740   0.222   1.253  0.1892 -0.5252 -0.4207
 5818TIP3    H117460   0.765   0.313   1.238 -0.7276 -0.2611 -0.4066
 5818TIP3    H217461   0.692   0.223   1.335  1.3503 -1.2588  0.2943
 5819TIP3   OH217462   2.223   5.668   1.946 -0.2511 -0.9011  0.1133
 5819TIP3    H117463   2.142   5.718   1.939  0.5560  0.5104  0.5450
 5819TIP3    H217464   2.285   5.713   1.889  0.7528 -0.8207  1.2168
 5820TIP3   OH217465   3.404   1.956   3.648  0.3133  0.2208 -0.2421
 5820TIP3    H117466   3.347   1.924   3.718  0.6106 -1.8790 -0.9010
 5820TIP3    H217467   3.349   1.955   3.569 -0.3288  3.5086 -0.0122
 5821TIP3   OH217468   0.606   0.057   4.875 -0.3059  0.4330  0.0826
 5821TIP3    H117469   0.531   0.107   4.844  0.0699  0.8296 -0.1998
 5821TIP3    H217470   0.579  -0.035   4.868 -1.2981  0.5957  1.3408
 5822TIP3   OH217471   6.110   5.385   3.257  0.0770 -0.5677 -0.1766
 5822TIP3    H117472   6.091   5.303   3.302 -1.0872 -0.6716 -0.8322
 5822TIP3    H217473   6.187   5.366   3.204  1.2928 -0.5260  1.4837
 5823TIP3   OH217474   6.220   3.799   4.567 -0.3041 -0.3607  0.0990
 5823TIP3    H117475   6.243   3.846   4.647  2.2818  1.8145 -1.7399
 5823TIP3    H217476   6.272   3.719   4.570  2.2222  1.1456 -0.6739
 5824TIP3   OH217477   2.389   3.595   0.636  0.3829  0.7809 -0.8487
 5824TIP3    H117478   2.299   3.592   0.667  0.4160  0.8070 -0.7507
 5824TIP3    H217479   2.438   3.541   0.698  0.9337  3.0247  0.7892
 5825TIP3   OH217480   0.110   5.006   0.097  0.0418 -0.2635 -0.0871
 5825TIP3    H117481   0.025   5.023   0.055  0.3794 -0.8356 -1.0158
 5825TIP3    H217482   0.104   4.916   0.128  0.1646 -0.1695  0.2142
 5826TIP3   OH217483   3.066   2.762   0.672  0.3489  0.0887  0.5160
 5826TIP3    H117484   3.058   2.833   0.736 -3.1583  2.0392 -1.7513
 5826TIP3    H217485   3.065   2.806   0.587 -1.1841 -2.5874 -0.9959
 5827TIP3   OH217486   5.228   2.157   2.261 -0.1782 -0.2270 -0.5798
 5827TIP3    H117487   5.298   2.155   2.196 -0.2770 -0.0887 -0.6922
 5827TIP3    H217488   5.168   2.087   2.234  0.3813 -0.9525  0.0437
 5828TIP3   OH217489   4.433   1.368   4.626  0.3161 -0.6568 -0.2325
 5828TIP3    H117490   4.399   1.341   4.711  0.1098  0.6235  0.1083
 5828TIP3    H217491   4.428   1.464   4.627 -0.0070 -0.6221 -1.8084
 5829TIP3   OH217492   2.872   0.862   2.407 -0.0977 -0.7061 -0.1930
 5829TIP3    H117493   2.845   0.811   2.331 -1.1191 -0.3472 -0.0815
 5829TIP3    H217494   2.855   0.806   2.482 -0.2381 -0.5958 -0.1426
 5830TIP3   OH217495   5.265   3.521   1.654 -0.3956 -0.0344  0.2352
 5830TIP3    H117496   5.244   3.614   1.644  0.8185  0.4956  2.1157
 5830TIP3    H217497   5.311   3.516   1.738  1.1924 -2.0557 -0.6745
 5831TIP3   OH217498   1.442   3.426   2.631  0.1294  0.5410  0.1187
 5831TIP3    H117499   1.484   3.348   2.595  0.2990 -0.1113  1.6466
 5831TIP3    H217500   1.415   3.400   2.719  0.9699  2.4875  0.9943
 5832TIP3   OH217501   3.277   5.673   3.573 -0.7361  0.2988  0.2896
 5832TIP3    H117502   3.218   5.738   3.534 -1.4795 -0.4858  0.0814
 5832TIP3    H217503   3.308   5.715   3.653  0.8460  1.9616 -1.1016
 5833TIP3   OH217504   4.166   2.201   0.827  0.0729  0.2904  0.2933
 5833TIP3    H117505   4.074   2.220   0.810 -0.1805 -1.6137 -0.7706
 5833TIP3    H217506   4.167   2.111   0.859  1.6288 -0.0753 -0.6615
 5834TIP3   OH217507   2.527   1.552   4.617  0.1164 -0.4920 -0.7680
 5834TIP3    H117508   2.619   1.557   4.644  0.1029 -0.7625 -0.6700
 5834TIP3    H217509   2.480   1.527   4.696 -0.0979  0.0606 -0.7169
 5835TIP3   OH217510   6.239   2.406   1.027 -0.2448  0.8269 -0.1030
 5835TIP3    H117511   6.245   2.501   1.025  1.0082  0.7668 -0.1424
 5835TIP3    H217512   6.276   2.378   0.943  0.0016  0.2889  0.1794
 5836TIP3   OH217513   1.072   4.439   2.453 -0.5130  0.4832 -0.0316
 5836TIP3    H117514   1.139   4.414   2.389 -2.8843  0.4852 -2.7292
 5836TIP3    H217515   1.097   4.528   2.480  0.9781  0.1822 -0.3133
 5837TIP3   OH217516   1.219   1.415   1.949  0.2041  0.2557  0.6745
 5837TIP3    H117517   1.158   1.439   2.019 -1.2590 -1.0671 -0.1055
 5837TIP3    H217518   1.273   1.346   1.987  0.0010  0.1529  0.7767
 5838TIP3   OH217519   1.078   1.468   4.213 -0.0258 -0.3200 -0.4848
 5838TIP3    H117520   1.149   1.525   4.242  0.4945 -0.8493 -0.6769
 5838TIP3    H217521   1.112   1.379   4.228 -1.0800 -0.5886  0.4404
 5839TIP3   OH217522   2.868   0.489   0.434  0.3749  0.3664 -0.7601
 5839TIP3    H117523   2.950   0.531   0.457 -0.8674  1.8008  1.3576
 5839TIP3    H217524   2.879   0.398   0.463  0.2882  1.2004  2.1757
 5840TIP3   OH217525   1.003   5.334   0.402 -0.0452  0.0599 -0.0672
 5840TIP3    H117526   1.051   5.377   0.332 -0.1409  0.8601  0.3461
 5840TIP3    H217527   0.940   5.277   0.357  1.1807 -0.9016 -0.6160
 5841TIP3   OH217528   5.500   4.108   4.710  0.6060 -0.0546 -0.4319
 5841TIP3    H117529   5.593   4.091   4.697  0.4689 -0.1714 -1.3976
 5841TIP3    H217530   5.490   4.120   4.804  1.8456  1.4609 -0.4455
 5842TIP3   OH217531   2.761   5.630   3.224  0.5675  0.1859  0.7070
 5842TIP3    H117532   2.837   5.688   3.228  1.5683 -0.9305 -0.8233
 5842TIP3    H217533   2.737   5.629   3.131 -0.3633 -0.6851  0.9397
 5843TIP3   OH217534   5.242   5.010   4.556 -0.0268  0.5511  0.1783
 5843TIP3    H117535   5.290   5.007   4.639 -0.9758  2.1167  0.8224
 5843TIP3    H217536   5.309   5.033   4.491  0.9519 -1.7992  0.2620
 5844TIP3   OH217537   2.153   5.373   3.654 -0.9727  0.3142  0.1730
 5844TIP3    H117538   2.098   5.327   3.592 -0.3037  1.5770 -1.4484
 5844TIP3    H217539   2.144   5.325   3.736 -3.3566 -0.3144 -0.3998
 5845TIP3   OH217540   0.923   5.173   0.609 -0.3201 -0.0864 -0.0087
 5845TIP3    H117541   0.832   5.202   0.620  0.0332  1.7624 -1.4319
 5845TIP3    H217542   0.948   5.205   0.522  1.6471 -0.7126  0.2758
 5846TIP3   OH217543   3.165   1.263   1.846  0.0818  0.3790  0.7473
 5846TIP3    H117544   3.193   1.199   1.781  0.1710  0.6058  0.5603
 5846TIP3    H217545   3.091   1.308   1.805 -0.6865 -0.3419  1.3111
 5847TIP3   OH217546   1.907   0.163   0.292 -0.3274  0.2493 -0.2827
 5847TIP3    H117547   1.879   0.072   0.297  1.5556 -0.3888 -0.6501
 5847TIP3    H217548   1.985   0.162   0.237 -2.4858  2.6734 -3.7762
 5848TIP3   OH217549   4.559   3.215   2.055  0.4599 -0.1378 -0.3456
 5848TIP3    H117550   4.564   3.301   2.013 -1.4411  0.8226  1.2326
 5848TIP3    H217551   4.474   3.180   2.028  0.5471 -0.8327  0.2527
 5849TIP3   OH217552   2.732   2.117   3.848  0.0615 -0.5234  0.1818
 5849TIP3    H117553   2.785   2.079   3.918 -0.2168 -0.5367  0.3835
 5849TIP3    H217554   2.713   2.206   3.877  1.4638  0.0855 -0.6917
 5850TIP3   OH217555   4.335   0.545   0.479  0.1708 -0.4250 -0.4597
 5850TIP3    H117556   4.240   0.553   0.494  0.0550 -0.2237 -1.2647
 5850TIP3    H217557   4.371   0.627   0.512 -0.1083  0.1118 -1.4538
 5851TIP3   OH217558   1.068   5.380   1.854  0.2512  0.0935  0.6315
 5851TIP3    H117559   0.975   5.402   1.844  0.0282 -0.9063  0.4337
 5851TIP3    H217560   1.091   5.415   1.940  0.0234  1.4240  0.1732
 5852TIP3   OH217561   0.839   1.515   2.378 -0.6518 -0.5874 -0.2999
 5852TIP3    H117562   0.828   1.589   2.437 -0.0413 -1.0113  0.3596
 5852TIP3    H217563   0.884   1.449   2.430  2.9466  0.1806 -2.0850
 5853TIP3   OH217564   0.728   4.862   4.458 -0.2548  0.1376 -0.5446
 5853TIP3    H117565   0.700   4.848   4.548 -0.4847 -2.3336 -0.9400
 5853TIP3    H217566   0.816   4.898   4.466 -0.2822 -0.0278  0.6721
 5854TIP3   OH217567   1.777   3.681   4.902 -0.1204 -0.5933  0.4571
 5854TIP3    H117568   1.766   3.636   4.986  0.3605 -1.0139  0.2968
 5854TIP3    H217569   1.803   3.613   4.841  0.5987 -0.1040  0.2060
 5855TIP3   OH217570   4.801   2.742   3.526  0.1249 -0.3852 -0.8696
 5855TIP3    H117571   4.710   2.725   3.550  0.2926 -2.2083 -1.4027
 5855TIP3    H217572   4.799   2.756   3.432  0.5898 -2.1569 -1.1676
 5856TIP3   OH217573   4.147   1.213   0.530  0.1638  0.9208 -0.0177
 5856TIP3    H117574   4.236   1.179   0.544 -0.4829 -1.2699 -0.7739
 5856TIP3    H217575   4.091   1.136   0.534 -1.6882  2.2131  0.0993
 5857TIP3   OH217576   2.494   3.658   3.528 -0.6744 -0.5259  0.2699
 5857TIP3    H117577   2.481   3.565   3.545  2.9729 -1.4344 -1.0495
 5857TIP3    H217578   2.469   3.701   3.610 -1.8698 -2.6788  1.1158
 5858TIP3   OH217579   4.599   5.024   4.401 -0.2018  0.7553 -0.7425
 5858TIP3    H117580   4.558   4.937   4.397 -0.7647  0.9749  0.0106
 5858TIP3    H217581   4.536   5.082   4.358 -1.5519  1.3837  1.8587
 5859TIP3   OH217582   2.084   0.859   4.685  0.6590 -0.3126  0.2596
 5859TIP3    H117583   2.175   0.846   4.713  0.1594 -1.7578  1.3429
 5859TIP3    H217584   2.064   0.782   4.632  0.1134  0.0848 -0.1215
 5860TIP3   OH217585   5.088   3.328   3.491  0.3918  0.0804  0.3815
 5860TIP3    H117586   5.144   3.405   3.479 -0.4904  0.4651 -1.5450
 5860TIP3    H217587   5.003   3.354   3.455 -0.7581 -0.8695  2.2388
 5861TIP3   OH217588   3.818   1.927   4.919 -0.4483  0.1778 -0.4469
 5861TIP3    H117589   3.793   1.901   4.831 -1.6899 -1.3426  0.3233
 5861TIP3    H217590   3.788   2.018   4.927 -0.9713  0.0890 -1.3276
 5862TIP3   OH217591   5.062   0.920   0.516  0.0939 -0.4688 -0.0353
 5862TIP3    H117592   5.025   0.989   0.572  0.3733 -1.5288  1.5319
 5862TIP3    H217593   5.068   0.844   0.574  0.8171 -1.5013 -1.4238
 5863TIP3   OH217594   1.845   2.152   0.949 -0.0749 -0.6515 -0.1835
 5863TIP3    H117595   1.777   2.218   0.960 -0.3663 -1.1153  0.8838
 5863TIP3    H217596   1.823   2.084   1.012  2.3045 -0.0244  1.4653
 5864TIP3   OH217597   6.230   3.233   1.981 -0.5100 -0.0276  0.2964
 5864TIP3    H117598   6.168   3.185   1.926  0.5945 -1.4706  0.2680
 5864TIP3    H217599   6.223   3.324   1.950 -1.2822 -0.4754 -0.9393
 5865TIP3   OH217600   0.250   2.498   0.870 -0.1128 -0.1740 -0.5067
 5865TIP3    H117601   0.300   2.534   0.796  1.5400  0.6190  0.9088
 5865TIP3    H217602   0.247   2.570   0.934 -1.0068 -1.0066  0.4260
 5866TIP3   OH217603   5.707   2.722   5.038  0.3114  0.1281  0.5368
 5866TIP3    H117604   5.792   2.683   5.057  0.0177 -0.6766  0.2223
 5866TIP3    H217605   5.643   2.655   5.060 -0.1083 -0.3874 -1.9499
 5867TIP3   OH217606   2.187   0.900   4.364  0.2849  0.4838 -0.5573
 5867TIP3    H117607   2.263   0.956   4.379  1.6318 -1.1509 -0.8664
 5867TIP3    H217608   2.193   0.833   4.433 -1.9834  1.3643  0.5883
 5868TIP3   OH217609   5.068   3.482   3.116  0.5477  0.0063 -0.0892
 5868TIP3    H117610   5.001   3.413   3.113  1.2087 -0.6469 -0.0900
 5868TIP3    H217611   5.151   3.434   3.120  0.9815  0.7999  0.6642
 5869TIP3   OH217612   1.032   1.445   0.795 -0.2839 -0.0411 -0.0980
 5869TIP3    H117613   1.032   1.360   0.840 -1.1945 -0.5076 -0.9579
 5869TIP3    H217614   0.965   1.496   0.841  0.9519  0.6010  1.0745
 5870TIP3   OH217615   0.892   2.384   4.870 -0.4293  0.1537 -0.1950
 5870TIP3    H117616   0.928   2.299   4.894  1.7301  1.0211 -0.1944
 5870TIP3    H217617   0.927   2.444   4.935  1.1232  1.6422 -2.2885
 5871TIP3   OH217618   1.658  -0.003   3.843 -0.2591  0.6979 -0.0274
 5871TIP3    H117619   1.659  -0.046   3.758  1.4127  0.9540 -0.1658
 5871TIP3    H217620   1.684   0.088   3.825  2.4657  0.2085  0.9603
 5872TIP3   OH217621   4.396   1.807   0.809  0.1728  0.2018 -0.0059
 5872TIP3    H117622   4.442   1.794   0.892  1.3124 -0.5490 -0.7352
 5872TIP3    H217623   4.446   1.757   0.746 -1.8634 -0.9560 -0.7827
 5873TIP3   OH217624   2.402   4.593   3.985 -0.1535  0.2178 -0.1555
 5873TIP3    H117625   2.394   4.609   4.080  0.4304  1.5996 -0.3111
 5873TIP3    H217626   2.495   4.602   3.967 -0.1897 -0.6171 -0.7761
 5874TIP3   OH217627   0.088   3.914   2.748  0.1022 -0.1122 -0.2243
 5874TIP3    H117628   0.090   3.977   2.676 -2.7980 -1.1633 -1.3898
 5874TIP3    H217629   0.003   3.927   2.789 -0.4239 -2.9277 -0.2408
 5875TIP3   OH217630   1.431   1.888   1.577 -0.2782  0.0647  0.3369
 5875TIP3    H117631   1.345   1.846   1.580  0.0748 -0.8951 -1.5113
 5875TIP3    H217632   1.463   1.885   1.667 -0.3164 -3.5697  0.3586
 5876TIP3   OH217633   5.447   3.233   4.232  0.1959  0.6372  0.0203
 5876TIP3    H117634   5.536   3.216   4.202  0.6841 -1.8526  2.4207
 5876TIP3    H217635   5.458   3.278   4.316 -0.9021  1.6091 -0.3254
 5877TIP3   OH217636   5.250   4.890   2.848  0.0559 -0.5777 -0.0024
 5877TIP3    H117637   5.263   4.963   2.788 -0.6107 -1.7484 -1.6202
 5877TIP3    H217638   5.181   4.920   2.908  1.5538  1.0547  1.0189
 5878TIP3   OH217639   0.606   4.553   1.171 -0.2955  0.0815 -0.1313
 5878TIP3    H117640   0.698   4.571   1.153 -0.9313  1.2818 -2.6765
 5878TIP3    H217641   0.606   4.507   1.255  2.5705  0.3234  0.0905
 5879TIP3   OH217642   5.021   4.659   0.362 -0.6057 -0.6077 -0.3574
 5879TIP3    H117643   5.000   4.667   0.269 -0.4755  0.0659 -0.3325
 5879TIP3    H217644   4.936   4.654   0.406 -0.7288  0.9060 -0.3621
 5880TIP3   OH217645   1.558   1.098   4.762 -0.6367 -0.0236 -0.6808
 5880TIP3    H117646   1.629   1.125   4.820 -1.2005 -1.1006  0.5612
 5880TIP3    H217647   1.592   1.113   4.674  0.7925  0.3014 -0.0992
 5881TIP3   OH217648   1.422   4.889   1.446  0.2699 -0.5562  0.6739
 5881TIP3    H117649   1.463   4.829   1.508  0.5953 -0.9947  0.0477
 5881TIP3    H217650   1.339   4.848   1.424  0.3005 -0.5627  0.5713
 5882TIP3   OH217651   5.455   5.429   1.742  0.3109  0.0615 -0.4293
 5882TIP3    H117652   5.518   5.436   1.814  0.2253 -1.7957 -0.1422
 5882TIP3    H217653   5.465   5.512   1.694  0.4309  1.3247  1.6329
 5883TIP3   OH217654   2.078   3.220   3.806 -0.0009  0.2742  0.3842
 5883TIP3    H117655   2.028   3.169   3.869 -2.0871  1.3045 -0.3380
 5883TIP3    H217656   2.013   3.248   3.741  1.8162  0.3213 -1.5369
 5884TIP3   OH217657   6.001   2.311   1.086  0.3225 -0.5768  0.1440
 5884TIP3    H117658   6.087   2.348   1.065 -0.3758  0.8227 -0.3776
 5884TIP3    H217659   5.939   2.370   1.045 -0.9988 -0.2417  2.4477
 5885TIP3   OH217660   3.560   5.684   4.007  0.1700  0.2403  0.0181
 5885TIP3    H117661   3.618   5.646   4.072  1.3564  0.5261 -0.8407
 5885TIP3    H217662   3.601   5.662   3.923 -2.5182 -2.2066 -0.8354
 5886TIP3   OH217663   2.788   3.419   2.117 -0.0758 -0.4853 -0.3419
 5886TIP3    H117664   2.700   3.395   2.145 -0.1360  0.3616  0.2474
 5886TIP3    H217665   2.842   3.407   2.195  0.1862 -0.2836 -0.4889
 5887TIP3   OH217666   5.101   3.194   1.169  0.2134 -0.3439 -0.1223
 5887TIP3    H117667   5.053   3.267   1.209 -0.0207 -0.0979 -0.8391
 5887TIP3    H217668   5.062   3.116   1.209 -1.6395 -0.2143 -1.5383
 5888TIP3   OH217669   1.595   4.325   3.668  1.1284 -0.5080 -0.1101
 5888TIP3    H117670   1.513   4.277   3.685 -0.1852  0.7234 -2.4001
 5888TIP3    H217671   1.575   4.415   3.693  0.9711  0.2281 -2.6069
 5889TIP3   OH217672   0.887   5.306   4.684  0.5353 -0.3801  0.6467
 5889TIP3    H117673   0.933   5.280   4.604 -0.3033 -0.9197  0.3301
 5889TIP3    H217674   0.880   5.225   4.734  0.2215 -0.2347  0.8406
 5890TIP3   OH217675   0.767   0.479   1.163  0.2078 -0.0669  0.4670
 5890TIP3    H117676   0.849   0.439   1.136 -0.5653 -0.5102 -1.3903
 5890TIP3    H217677   0.713   0.478   1.084 -0.9196  1.9186  1.1410
 5891TIP3   OH217678   4.611   5.453   3.242  0.2830  0.4877  0.1221
 5891TIP3    H117679   4.629   5.461   3.335 -0.2067  1.7231  0.1300
 5891TIP3    H217680   4.515   5.456   3.236  0.2728 -0.4382 -0.3541
 5892TIP3   OH217681   1.326   2.077   1.353 -0.1281  0.3030 -0.2041
 5892TIP3    H117682   1.367   2.051   1.436 -2.1017 -1.2132  0.3742
 5892TIP3    H217683   1.375   2.028   1.286  0.7858  0.7049  0.1496
 5893TIP3   OH217684   0.207  -0.020   4.555  0.3019 -0.0597 -0.3506
 5893TIP3    H117685   0.288  -0.038   4.602  0.5913 -0.3246 -0.9533
 5893TIP3    H217686   0.221   0.066   4.514  0.2871 -0.1156 -0.4731
 5894TIP3   OH217687   3.244   2.750   1.989 -0.6582 -0.0754 -0.0522
 5894TIP3    H117688   3.257   2.844   1.986 -1.1540  0.0669  1.4105
 5894TIP3    H217689   3.270   2.725   2.078  1.5221 -1.6669 -1.0428
 5895TIP3   OH217690   4.714   4.399   1.920 -0.4283  0.1227 -0.6587
 5895TIP3    H117691   4.783   4.363   1.865  0.0651 -2.1108  1.2692
 5895TIP3    H217692   4.725   4.356   2.004 -1.9462  2.4248  0.8480
 5896TIP3   OH217693   1.696   5.709   4.932  0.4744  0.6357 -0.7468
 5896TIP3    H117694   1.663   5.632   4.886  1.1595  0.0616 -0.3103
 5896TIP3    H217695   1.619   5.748   4.973  0.1942 -0.1064 -0.5569
 5897TIP3   OH217696   2.913   3.629   0.820  0.1587  0.4889 -0.5310
 5897TIP3    H117697   2.897   3.596   0.732  1.4404  1.2185 -1.0636
 5897TIP3    H217698   2.929   3.723   0.808 -0.4684  0.7473  0.5789
 5898TIP3   OH217699   3.956   4.217   1.862  0.1429 -0.2660 -0.4705
 5898TIP3    H117700   3.886   4.257   1.913  0.2495  0.1145 -0.6202
 5898TIP3    H217701   4.027   4.204   1.925  0.1349 -0.1512 -0.4378
 5899TIP3   OH217702   6.252   3.496   1.870  0.2568 -0.0675 -0.3510
 5899TIP3    H117703   6.307   3.572   1.887  0.5896 -0.6272  1.1916
 5899TIP3    H217704   6.163   3.527   1.884  0.3357  0.2166 -0.4637
 5900TIP3   OH217705   1.218   2.658   3.262 -0.2549  0.0359 -0.0163
 5900TIP3    H117706   1.267   2.586   3.303  0.7220  0.8209  0.2393
 5900TIP3    H217707   1.260   2.670   3.177 -1.3111 -0.5906 -0.6488
 5901TIP3   OH217708   0.272   1.945   0.870 -0.3620 -0.4368 -0.2561
 5901TIP3    H117709   0.365   1.920   0.875 -0.1478  0.2076 -0.8815
 5901TIP3    H217710   0.262   2.012   0.938 -0.1632  0.0916 -0.7375
 5902TIP3   OH217711   3.682   1.085   3.682  0.2842 -0.5438 -0.1456
 5902TIP3    H117712   3.739   1.010   3.664 -0.6744 -1.4592  0.5497
 5902TIP3    H217713   3.618   1.052   3.745 -0.8471  0.5454 -0.6942
 5903TIP3   OH217714   5.584   2.515   3.913 -0.0747 -0.1288 -0.1786
 5903TIP3    H117715   5.570   2.434   3.864  2.1102 -0.6176 -0.1118
 5903TIP3    H217716   5.673   2.542   3.889  0.3924  0.6067  2.1262
 5904TIP3   OH217717   3.474   5.856   5.120  0.3725  0.0773 -0.3704
 5904TIP3    H117718   3.527   5.886   5.194  0.7362  1.9010 -1.3225
 5904TIP3    H217719   3.529   5.871   5.043 -0.1300 -1.4592 -1.0813
 5905TIP3   OH217720   3.677   5.449   2.988  0.1226 -0.6078 -0.1255
 5905TIP3    H117721   3.614   5.381   3.013 -0.0307 -0.7220 -0.7796
 5905TIP3    H217722   3.630   5.531   3.002  0.0276 -0.6723 -0.0634
 5906TIP3   OH217723   5.360   3.895   4.217  0.2165 -0.2203  0.1984
 5906TIP3    H117724   5.456   3.896   4.213  0.1881 -0.8055 -1.1986
 5906TIP3    H217725   5.340   3.900   4.310  1.6772 -2.7689  0.7452
 5907TIP3   OH217726   3.100   3.843   3.102  0.8953 -0.2428  0.0025
 5907TIP3    H117727   3.035   3.912   3.099  1.1743 -0.0029 -0.7487
 5907TIP3    H217728   3.054   3.767   3.139  0.4359  0.1690  0.2785
 5908TIP3   OH217729   2.698   1.255   4.134  0.8251 -0.0076 -0.6055
 5908TIP3    H117730   2.658   1.171   4.159  1.0905 -0.6564 -2.2645
 5908TIP3    H217731   2.740   1.238   4.050  3.3393  1.0500  0.3299
 5909TIP3   OH217732   1.031   1.230   4.933 -0.2488  0.1747 -0.4833
 5909TIP3    H117733   1.061   1.234   5.024 -0.6900  0.2186 -0.3386
 5909TIP3    H217734   1.110   1.208   4.883 -0.1248 -0.4406 -0.0253
 5910TIP3   OH217735   0.729   3.036   4.485 -0.8199 -0.3024 -0.2732
 5910TIP3    H117736   0.713   3.040   4.579  0.7195  0.1166 -0.0096
 5910TIP3    H217737   0.716   3.126   4.454  0.8955  0.0493 -0.0518
 5911TIP3   OH217738   1.484   1.216   3.771  0.3798  0.2592 -0.5924
 5911TIP3    H117739   1.419   1.274   3.812  1.3580 -0.2532  1.8342
 5911TIP3    H217740   1.561   1.222   3.828  0.9069 -2.5595 -0.8625
 5912TIP3   OH217741   5.031   2.692   1.463  0.0198  0.0124  0.5646
 5912TIP3    H117742   5.026   2.642   1.545  0.3304  0.1691  0.6792
 5912TIP3    H217743   5.006   2.629   1.395 -2.2454  0.3864  0.9612
 5913TIP3   OH217744   1.654   4.790   0.392  0.4147  0.0461  0.2027
 5913TIP3    H117745   1.601   4.718   0.357  1.3156 -1.4358  1.7446
 5913TIP3    H217746   1.601   4.826   0.463  1.3294 -1.3135  1.6213
 5914TIP3   OH217747   2.568   4.153   0.810  0.0456 -0.5258 -0.0767
 5914TIP3    H117748   2.541   4.165   0.719 -1.5627 -0.3034  0.3976
 5914TIP3    H217749   2.501   4.095   0.847 -0.2090  0.6231  1.3568
 5915TIP3   OH217750   3.628   1.445   2.513 -0.4979  0.0362 -0.4541
 5915TIP3    H117751   3.631   1.350   2.512 -1.4791 -0.0586  1.5118
 5915TIP3    H217752   3.587   1.469   2.430 -1.4330 -1.3249 -0.4143
 5916TIP3   OH217753   4.775   2.023   4.682  0.5234  0.2860 -0.0033
 5916TIP3    H117754   4.807   2.113   4.678  0.0123  0.5478  1.3617
 5916TIP3    H217755   4.854   1.970   4.694  0.6718  0.7519  1.2684
 5917TIP3   OH217756   0.214   4.566   3.226 -0.2633  0.6465  0.4412
 5917TIP3    H117757   0.282   4.513   3.185  0.1806  1.2056  0.4366
 5917TIP3    H217758   0.168   4.506   3.285  0.7742  0.4524  1.0753
 5918TIP3   OH217759   0.805   1.748   2.818 -0.0333 -0.0446  0.5054
 5918TIP3    H117760   0.900   1.736   2.823  0.1430  0.4354 -1.0949
 5918TIP3    H217761   0.788   1.827   2.870  0.1715 -1.0733  2.2392
 5919TIP3   OH217762   4.609   1.429   1.788 -0.0502 -0.2558 -0.7066
 5919TIP3    H117763   4.572   1.473   1.711  0.7775  1.2894 -0.2434
 5919TIP3    H217764   4.689   1.388   1.756 -1.7073 -3.1527 -1.5827
 5920TIP3   OH217765   2.704   1.464   3.845 -0.5141  0.2544 -0.5733
 5920TIP3    H117766   2.738   1.375   3.846 -0.7720  0.1496 -0.9945
 5920TIP3    H217767   2.613   1.455   3.817 -0.7998  0.5599  0.2314
 5921TIP3   OH217768   2.963   1.147   3.503  0.1406  0.0724  0.5026
 5921TIP3    H117769   2.984   1.056   3.479 -0.9564  0.1914 -1.1088
 5921TIP3    H217770   3.042   1.179   3.545  0.6899 -1.5218  0.7726
 5922TIP3   OH217771   3.403   3.274   0.425 -0.0993  0.1044 -0.0981
 5922TIP3    H117772   3.319   3.239   0.456 -0.3243  1.1533  0.5248
 5922TIP3    H217773   3.463   3.259   0.497 -0.7197  2.9220  1.1532
 5923TIP3   OH217774   0.251   2.138   2.147  0.2244 -0.6039 -0.6013
 5923TIP3    H117775   0.274   2.049   2.123  0.2944 -0.6378 -0.4135
 5923TIP3    H217776   0.334   2.186   2.144  0.1411 -0.4764 -0.9880
 5924TIP3   OH217777   1.448   4.407   4.300  0.7616  0.2892 -0.3070
 5924TIP3    H117778   1.491   4.321   4.304  2.8799  1.2152 -1.6319
 5924TIP3    H217779   1.403   4.408   4.216  0.3898  0.3232 -0.1089
 5925TIP3   OH217780   5.226   4.994   0.893 -0.5103  0.4184 -0.6702
 5925TIP3    H117781   5.208   5.035   0.808 -2.0107 -0.8856 -1.0177
 5925TIP3    H217782   5.307   4.945   0.879 -1.2401 -0.5608 -1.6722
 5926TIP3   OH217783   6.316   1.762   2.627 -0.1151 -0.1847  0.6063
 5926TIP3    H117784   6.317   1.784   2.720 -1.8737 -0.5482  0.7564
 5926TIP3    H217785   6.261   1.830   2.588  0.6831  0.0144 -0.1990
 5927TIP3   OH217786   3.393   2.016   0.071  0.2371 -0.4143  0.5013
 5927TIP3    H117787   3.317   1.996   0.017  0.6328 -0.1008 -0.1825
 5927TIP3    H217788   3.376   1.971   0.154 -0.2877 -1.0528  0.0557
 5928TIP3   OH217789   4.805   5.837   0.615 -0.2821 -0.4110 -0.1127
 5928TIP3    H117790   4.797   5.896   0.690 -0.7765 -1.4347  0.6683
 5928TIP3    H217791   4.869   5.771   0.643  1.4929  0.6039 -1.5694
 5929TIP3   OH217792   0.188   3.253   2.940  0.2707 -0.7201  0.2163
 5929TIP3    H117793   0.127   3.316   2.902 -1.3355 -1.0517  2.0832
 5929TIP3    H217794   0.172   3.259   3.035  1.5850 -2.4101  0.5938
 5930TIP3   OH217795   5.268   5.840   0.889  0.1119  0.7813 -0.5248
 5930TIP3    H117796   5.280   5.900   0.816  0.8335  0.7581 -0.4365
 5930TIP3    H217797   5.329   5.871   0.956  0.3222  0.0939 -0.3916
 5931TIP3   OH217798   2.389   2.855   1.775 -0.0757 -0.4136  0.1514
 5931TIP3    H117799   2.353   2.779   1.728 -2.0431 -0.2233  1.2067
 5931TIP3    H217800   2.321   2.877   1.838  0.6784  1.9287  0.2259
 5932TIP3   OH217801   3.696   0.512   1.081 -0.5580 -0.5153 -0.2177
 5932TIP3    H117802   3.668   0.444   1.143 -2.3718 -0.3566 -0.7969
 5932TIP3    H217803   3.699   0.592   1.134  0.0732 -0.7534  0.1243
 5933TIP3   OH217804   0.855   5.656   1.526  0.1639  0.3291  0.8517
 5933TIP3    H117805   0.873   5.705   1.606  2.2520  0.4062  0.3951
 5933TIP3    H217806   0.937   5.660   1.476 -0.4286 -1.4273 -0.3821
 5934TIP3   OH217807   3.653   2.095   2.440  0.6865 -0.3017 -0.3350
 5934TIP3    H117808   3.644   2.151   2.517 -0.4743 -1.5157  0.4442
 5934TIP3    H217809   3.691   2.014   2.473 -0.7150 -1.2003 -0.8361
 5935TIP3   OH217810   2.977   3.165   2.067 -0.3288  0.2186  1.0020
 5935TIP3    H117811   3.034   3.215   2.008 -0.1294  1.1101  1.9161
 5935TIP3    H217812   2.901   3.222   2.079 -0.9863 -0.5425  0.5662
 5936TIP3   OH217813   4.151   4.619   2.392  0.2007  0.2138  0.3026
 5936TIP3    H117814   4.090   4.553   2.425  2.3418 -1.3390  1.3863
 5936TIP3    H217815   4.175   4.588   2.304  1.5132 -0.7189  0.9685
 5937TIP3   OH217816   1.746   4.857   0.136 -0.5008  0.1587 -0.1443
 5937TIP3    H117817   1.719   4.858   0.228 -1.6950  0.0717 -0.4762
 5937TIP3    H217818   1.694   4.927   0.095  0.5394  0.6644 -0.6185
 5938TIP3   OH217819   4.759   1.948   3.669 -0.0328  0.6710  0.1824
 5938TIP3    H117820   4.719   1.877   3.718  0.6925 -0.6179 -1.0329
 5938TIP3    H217821   4.851   1.923   3.661  0.2203  1.7012 -0.3688
 5939TIP3   OH217822   3.628   2.770   5.138 -0.3751 -0.5179 -0.4029
 5939TIP3    H117823   3.564   2.831   5.174  0.3222 -0.0723  0.1152
 5939TIP3    H217824   3.703   2.778   5.196  1.2657  1.0654 -2.5990
 5940TIP3   OH217825   5.434   0.885   4.605 -0.2753 -0.1689 -0.6497
 5940TIP3    H117826   5.421   0.828   4.681 -0.6066  0.4352 -0.2521
 5940TIP3    H217827   5.517   0.930   4.622 -0.2543 -0.1743 -0.7355
 5941TIP3   OH217828   6.000   3.785   3.018  0.0207  0.4307 -0.3079
 5941TIP3    H117829   6.015   3.710   2.962 -2.0118  1.2390 -2.0342
 5941TIP3    H217830   6.017   3.753   3.107  0.0055 -1.8048 -1.0680
 5942TIP3   OH217831   5.559   0.829   0.510  0.0937  0.6922 -0.1775
 5942TIP3    H117832   5.547   0.915   0.471  0.4758  0.2627 -1.2850
 5942TIP3    H217833   5.644   0.799   0.476  0.2672  0.1489  0.7060
 5943TIP3   OH217834   4.129   5.270   1.090  0.0887  0.1889  0.2051
 5943TIP3    H117835   4.199   5.206   1.099  1.0394  1.3108  1.0325
 5943TIP3    H217836   4.152   5.320   1.012 -0.5495 -0.3195 -0.3264
 5944TIP3   OH217837   1.567   3.602   3.511 -0.6952 -0.3414 -0.3129
 5944TIP3    H117838   1.632   3.645   3.456  0.2194 -1.3799 -0.0926
 5944TIP3    H217839   1.486   3.609   3.462 -0.0117 -0.7696 -1.5583
 5945TIP3   OH217840   2.829   0.575   0.153 -0.0050  0.3330 -0.3888
 5945TIP3    H117841   2.907   0.538   0.195 -0.5328 -1.4562 -0.9077
 5945TIP3    H217842   2.797   0.641   0.215  0.8904 -0.1833  0.6566
 5946TIP3   OH217843   5.714   0.118   1.341 -0.4068  0.4186 -0.4668
 5946TIP3    H117844   5.698   0.206   1.375 -0.2678  1.1883 -2.3228
 5946TIP3    H217845   5.653   0.109   1.268 -1.9335 -1.8512  0.9584
 5947TIP3   OH217846   3.941   3.989   2.281 -0.0190  0.7253  0.2285
 5947TIP3    H117847   4.026   3.946   2.272 -1.1951 -1.4601 -1.4522
 5947TIP3    H217848   3.894   3.935   2.345 -1.1781  0.0087 -1.1757
 5948TIP3   OH217849   2.360   0.742   1.363 -0.2072 -0.4265 -0.5166
 5948TIP3    H117850   2.308   0.708   1.436 -0.5353  1.7990  0.3587
 5948TIP3    H217851   2.296   0.771   1.298  0.0655 -1.3485 -1.2268
 5949TIP3   OH217852   4.621   2.832   1.988 -0.5234 -0.3686  0.0220
 5949TIP3    H117853   4.555   2.836   2.057  1.8254 -0.7037  2.4602
 5949TIP3    H217854   4.674   2.911   2.001  0.2042 -0.6288 -1.1878
 5950TIP3   OH217855   4.847   5.384   1.760  0.3155  0.0597  0.1973
 5950TIP3    H117856   4.802   5.335   1.691  0.7045 -0.0805  0.0445
 5950TIP3    H217857   4.870   5.318   1.825  0.1766  0.1538  0.3434
 5951TIP3   OH217858   2.387   5.860   1.136 -0.1633  0.2131 -0.3823
 5951TIP3    H117859   2.482   5.853   1.128 -0.1491  0.8349 -0.8160
 5951TIP3    H217860   2.353   5.777   1.100  0.2416 -0.3761  0.5662
 5952TIP3   OH217861   4.104   3.314   1.255  0.5080 -0.2597  0.1825
 5952TIP3    H117862   4.025   3.266   1.278 -0.3337  1.7448  1.7890
 5952TIP3    H217863   4.124   3.286   1.166 -1.2027 -1.8344  0.2361
 5953TIP3   OH217864   1.618   0.359   2.541 -0.4380  0.2999  0.4562
 5953TIP3    H117865   1.527   0.385   2.528 -1.0997 -1.8491  0.4241
 5953TIP3    H217866   1.657   0.365   2.454 -0.7525  0.4707  0.3233
 5954TIP3   OH217867   0.996   0.738   4.349  0.4043 -0.1248 -0.3362
 5954TIP3    H117868   1.016   0.760   4.440  2.4727  2.4493 -1.2998
 5954TIP3    H217869   0.919   0.790   4.327 -0.7234 -1.5225  0.1757
 5955TIP3   OH217870   5.382   5.882   0.513  0.0098 -0.1568  0.2854
 5955TIP3    H117871   5.438   5.942   0.561 -0.1623  0.2484 -0.0117
 5955TIP3    H217872   5.437   5.805   0.497  1.3069  1.1249 -2.0229
 5956TIP3   OH217873   3.587   3.450   0.323 -0.3154 -0.0667 -0.2997
 5956TIP3    H117874   3.516   3.391   0.347 -1.3616  1.8568  1.7668
 5956TIP3    H217875   3.543   3.526   0.283  0.5891  0.9147  0.4975
 5957TIP3   OH217876   3.032   1.876   5.034  0.2056  0.3313  0.0169
 5957TIP3    H117877   3.087   1.915   5.102  0.8152  0.1795 -0.3820
 5957TIP3    H217878   2.972   1.946   5.008 -0.2968  0.2706  0.9865
 5958TIP3   OH217879   2.882   0.327   4.750  0.5933  0.7165 -0.0712
 5958TIP3    H117880   2.976   0.323   4.769  0.9584  0.3111 -1.8138
 5958TIP3    H217881   2.878   0.351   4.657 -1.0324  0.6610 -0.0272
 5959TIP3   OH217882   1.352   5.499   2.077 -0.1615 -0.8169  0.0846
 5959TIP3    H117883   1.358   5.531   1.987  0.4489  1.1283  0.7648
 5959TIP3    H217884   1.259   5.508   2.099 -0.0349  0.4628  0.2047
 5960TIP3   OH217885   0.456   2.371   1.095 -0.5849  0.6047 -0.5378
 5960TIP3    H117886   0.362   2.361   1.112 -0.5190 -1.0409 -1.0096
 5960TIP3    H217887   0.488   2.424   1.169 -1.0485 -2.8584  2.4131
 5961TIP3   OH217888   3.501   2.267   1.123 -0.2166 -0.1522 -0.2010
 5961TIP3    H117889   3.426   2.222   1.160 -0.3739  1.2031  1.1996
 5961TIP3    H217890   3.498   2.355   1.160  1.7048  0.1332 -0.6032
 5962TIP3   OH217891   0.673   1.938   2.997  0.2516 -0.0433  0.6829
 5962TIP3    H117892   0.647   1.999   2.928  4.6281  0.4358 -0.8372
 5962TIP3    H217893   0.694   1.993   3.072  1.5245  0.1058  0.2369
 5963TIP3   OH217894   5.653   3.527   2.285 -0.3672  0.1144 -0.5750
 5963TIP3    H117895   5.608   3.451   2.322  1.0251 -0.2077  0.5633
 5963TIP3    H217896   5.675   3.581   2.362 -1.5404  1.8135 -1.3745
 5964TIP3   OH217897   5.460  -0.020   4.015  0.7396  0.6781 -0.6789
 5964TIP3    H117898   5.470   0.035   3.937 -1.5285 -1.5557 -2.6851
 5964TIP3    H217899   5.387   0.019   4.063  0.1478  0.3435 -1.2922
 5965TIP3   OH217900   3.699   2.745   3.293  0.6816 -0.2126  0.1934
 5965TIP3    H117901   3.770   2.794   3.335 -0.2847  1.1516  0.3058
 5965TIP3    H217902   3.736   2.713   3.211  1.7383 -0.4627  0.7521
 5966TIP3   OH217903   5.104   1.214   2.323  0.0599  0.3539  0.1027
 5966TIP3    H117904   5.143   1.294   2.289  0.6826 -0.1507 -0.4133
 5966TIP3    H217905   5.177   1.151   2.324 -0.1981  0.0503  1.3608
 5967TIP3   OH217906   5.059   2.545   0.402  0.0978  0.1420  0.5152
 5967TIP3    H117907   5.020   2.626   0.432 -1.1371  0.7620 -2.4642
 5967TIP3    H217908   5.138   2.535   0.455 -0.2104  2.7809  1.5761
 5968TIP3   OH217909   6.111   0.082   3.447 -0.1060  0.2575 -0.5441
 5968TIP3    H117910   6.151   0.169   3.451 -0.0084  0.2276 -0.9045
 5968TIP3    H217911   6.029   0.095   3.399 -0.0022  0.1167 -0.7592
 5969TIP3   OH217912   0.478   1.161   4.098 -0.2837  0.1851  0.3414
 5969TIP3    H117913   0.496   1.122   4.012  0.2674 -0.8904  0.9252
 5969TIP3    H217914   0.445   1.249   4.078 -0.5625 -0.1977 -0.9807
 5970TIP3   OH217915   0.902   0.077   3.156  0.7779  0.4026 -0.2186
 5970TIP3    H117916   0.987   0.048   3.188 -0.4468  0.2869  3.3030
 5970TIP3    H217917   0.896   0.169   3.183  0.9836  1.4562 -3.3415
 5971TIP3   OH217918   0.876   1.817   4.273 -0.7716 -0.4947 -0.2073
 5971TIP3    H117919   0.892   1.912   4.276 -3.5957  0.0947 -0.7755
 5971TIP3    H217920   0.902   1.791   4.185  1.9396 -0.7266  0.5866
 5972TIP3   OH217921   1.910   4.877   3.916  0.2259  0.4701 -0.1588
 5972TIP3    H117922   1.997   4.862   3.882 -0.3455  0.0808 -1.5034
 5972TIP3    H217923   1.896   4.806   3.979  0.8383  0.4965  0.0125
 5973TIP3   OH217924   0.103   0.810   5.090  0.3324 -0.2114 -0.0042
 5973TIP3    H117925   0.160   0.885   5.072  1.6364 -0.9372  0.9361
 5973TIP3    H217926   0.094   0.809   5.185 -0.2624 -0.8327 -0.0609
 5974TIP3   OH217927   4.246   0.838   2.214  0.2345 -0.3144 -0.0408
 5974TIP3    H117928   4.191   0.762   2.198  0.6984 -0.5928 -0.3591
 5974TIP3    H217929   4.293   0.818   2.295 -1.4150  0.6875  1.2287
 5975TIP3   OH217930   1.907   2.716   3.683  0.5889 -0.3601  0.6912
 5975TIP3    H117931   1.995   2.682   3.663  0.5288 -0.6692  0.9399
 5975TIP3    H217932   1.912   2.810   3.663  0.1467 -0.8387 -2.0837
 5976TIP3   OH217933   3.476   1.365   1.941  0.1356  0.0759 -0.5928
 5976TIP3    H117934   3.506   1.311   1.868 -0.1674 -1.6639  0.5154
 5976TIP3    H217935   3.536   1.343   2.013  0.9703  2.3892 -0.4828
 5977TIP3   OH217936   0.495   1.018   2.549 -0.1029  0.2651  0.1909
 5977TIP3    H117937   0.495   0.936   2.599 -0.6579  1.1981  1.8274
 5977TIP3    H217938   0.477   1.085   2.615  2.6184  1.9939 -0.6577
 5978TIP3   OH217939   5.871   3.286   5.116 -0.0249  0.1520 -0.3350
 5978TIP3    H117940   5.934   3.340   5.164 -1.0041  0.6073  0.4657
 5978TIP3    H217941   5.823   3.238   5.183 -0.9828  0.3105 -0.8854
 5979TIP3   OH217942   1.363   0.816   1.977 -0.2108 -1.1667  0.1570
 5979TIP3    H117943   1.439   0.873   1.966 -1.2351  0.3093  0.4755
 5979TIP3    H217944   1.391   0.731   1.941  1.4071 -0.5260 -0.1639
 5980TIP3   OH217945   0.432   4.365   3.111 -0.1213  0.3188  0.2427
 5980TIP3    H117946   0.521   4.336   3.129  0.1150  1.5688  1.2714
 5980TIP3    H217947   0.376   4.299   3.152  0.3534  0.0554  0.4725
 5981TIP3   OH217948   6.204   5.295   2.705  0.7189  0.1514  0.1702
 5981TIP3    H117949   6.286   5.311   2.658  0.3598  0.4852 -0.3525
 5981TIP3    H217950   6.139   5.346   2.658  0.0847 -0.6150  0.1998
 5982TIP3   OH217951   4.043   2.257   1.510  0.3053 -0.5131  0.2734
 5982TIP3    H117952   4.091   2.230   1.431 -0.8229 -0.9514 -0.2874
 5982TIP3    H217953   4.026   2.350   1.498 -0.0898 -0.6356 -0.1299
 5983TIP3   OH217954   5.479   2.223   2.636 -0.0557  0.4351  0.1756
 5983TIP3    H117955   5.482   2.185   2.724  0.7016 -1.4716 -0.6114
 5983TIP3    H217956   5.414   2.171   2.589 -1.1177  2.0129 -0.1816
 5984TIP3   OH217957   4.585   3.934   3.847  0.3968 -0.0175  0.1614
 5984TIP3    H117958   4.576   3.878   3.770 -1.1330 -0.8150  0.8749
 5984TIP3    H217959   4.505   3.919   3.897  1.5216  0.1801  2.1214
 5985TIP3   OH217960   2.690   5.872   1.155  0.0497  0.4510 -0.1685
 5985TIP3    H117961   2.720   5.947   1.104 -0.0795  1.4848  1.2500
 5985TIP3    H217962   2.727   5.796   1.109  0.8107  1.4077 -1.1827
 5986TIP3   OH217963   0.424   1.385   1.097 -0.3874 -0.3869  0.6278
 5986TIP3    H117964   0.436   1.362   1.190 -0.9248  2.3713  1.4776
 5986TIP3    H217965   0.498   1.443   1.078  0.3817 -1.8726 -1.0603
 5987TIP3   OH217966   1.961   4.132   1.965  0.1876  0.2059  0.1380
 5987TIP3    H117967   1.983   4.041   1.982  0.8430 -0.2049 -2.4845
 5987TIP3    H217968   1.915   4.161   2.044 -1.3289 -2.8031  0.5021
 5988TIP3   OH217969   3.394   1.236   0.954 -0.0918 -0.6113  0.3835
 5988TIP3    H117970   3.335   1.253   1.027 -0.9908 -0.0615 -0.4422
 5988TIP3    H217971   3.391   1.141   0.941 -0.0261 -0.6953  0.9703
 5989TIP3   OH217972   0.702   0.283   1.524  0.1918 -0.1485 -0.5727
 5989TIP3    H117973   0.781   0.228   1.527  0.5156  0.3508  0.8102
 5989TIP3    H217974   0.634   0.228   1.562  0.8519  0.8363  2.3041
 5990TIP3   OH217975   3.110   4.066   4.132  0.2763 -0.0124  0.3065
 5990TIP3    H117976   3.059   4.089   4.210 -0.1577  0.1067 -0.0119
 5990TIP3    H217977   3.104   4.144   4.076 -2.1747 -1.2323 -1.3112
 5991TIP3   OH217978   6.263   4.338   4.285  0.0204 -0.8688 -0.3197
 5991TIP3    H117979   6.242   4.422   4.244  0.1529 -1.2725 -1.2381
 5991TIP3    H217980   6.312   4.361   4.364  0.3182 -0.0985 -0.7215
 5992TIP3   OH217981   0.802   3.856   1.762 -0.5810  0.3868  0.2705
 5992TIP3    H117982   0.747   3.828   1.835 -0.3067 -1.5847 -0.2312
 5992TIP3    H217983   0.739   3.885   1.695 -1.0936 -1.8697 -0.3117
 5993TIP3   OH217984   3.337   4.032   4.855 -0.8091  0.3968 -0.2779
 5993TIP3    H117985   3.330   4.032   4.950  0.8150 -1.1771 -0.1156
 5993TIP3    H217986   3.260   3.984   4.825 -1.1044  0.5287  0.2635
 5994TIP3   OH217987   3.148   1.492   4.873 -0.0703  0.4182  0.2008
 5994TIP3    H117988   3.096   1.568   4.899 -1.2082  0.3093 -1.5807
 5994TIP3    H217989   3.102   1.417   4.911 -0.6835  0.4059 -0.5358
 5995TIP3   OH217990   1.293   1.199   0.531 -0.1717 -0.0901  0.4835
 5995TIP3    H117991   1.374   1.152   0.509 -0.4449 -1.2113  1.7608
 5995TIP3    H217992   1.312   1.242   0.614 -0.5761  0.4441  0.3039
 5996TIP3   OH217993   2.444   1.862   3.677  0.1531  0.6725  0.3992
 5996TIP3    H117994   2.409   1.952   3.673 -1.5605  0.1313  1.7952
 5996TIP3    H217995   2.500   1.861   3.755  0.2355  0.5519  0.3388
 5997TIP3   OH217996   2.714   2.271   4.551 -0.4303 -0.5876  0.4291
 5997TIP3    H117997   2.770   2.272   4.628 -0.3376  0.9055  0.3785
 5997TIP3    H217998   2.626   2.250   4.585 -0.3377 -0.2221  0.8976
 5998TIP3   OH217999   0.942   4.385   0.964 -0.0308 -0.3800  0.3878
 5998TIP3    H118000   0.886   4.341   0.900 -2.3115  0.0861  1.9433
 5998TIP3    H218001   0.924   4.341   1.047  1.3745  0.2870  1.0806
 5999TIP3   OH218002   2.202   5.881   0.880  0.4280 -0.1012  1.0083
 5999TIP3    H118003   2.249   5.818   0.826  1.2847  0.4999  1.0334
 5999TIP3    H218004   2.198   5.960   0.827 -1.1068 -0.3181  0.7650
 6000TIP3   OH218005   0.355   3.509   0.185 -0.5478  0.3261  0.3068
 6000TIP3    H118006   0.268   3.523   0.224 -0.0068  0.5937  1.4593
 6000TIP3    H218007   0.403   3.590   0.204 -0.3522  0.5844 -1.2046
 6001TIP3   OH218008   2.126   0.730   0.518  0.3005 -0.0197  0.3463
 6001TIP3    H118009   2.137   0.656   0.577  1.3715 -0.5232 -0.4483
 6001TIP3    H218010   2.032   0.748   0.520  0.2325 -0.3808  1.7446
 6002TIP3   OH218011   3.873   1.835   2.181  0.0241 -0.2676  0.7436
 6002TIP3    H118012   3.860   1.763   2.243 -1.7013  1.1161  2.0784
 6002TIP3    H218013   3.787   1.876   2.173  1.0814  2.0601  0.5335
 6003TIP3   OH218014   5.868   1.241   4.822 -0.5505  0.0277  0.0687
 6003TIP3    H118015   5.957   1.214   4.800 -0.3983  1.0411 -0.6629
 6003TIP3    H218016   5.844   1.301   4.752 -3.1101 -2.7665 -1.6641
 6004TIP3   OH218017   2.420   3.624   1.190 -0.3078  0.2620 -0.0209
 6004TIP3    H118018   2.472   3.701   1.169 -1.0806  1.0345  0.7879
 6004TIP3    H218019   2.483   3.553   1.199  0.4215  0.8136 -0.7084
 6005TIP3   OH218020   3.603   2.963   0.122 -0.2778  0.4782  0.2831
 6005TIP3    H118021   3.670   3.014   0.168 -0.4620  0.2771  0.7822
 6005TIP3    H218022   3.523   2.980   0.171 -0.5637  0.6036 -0.2276
 6006TIP3   OH218023   2.584   3.944   5.031 -0.1517 -0.4973 -0.0248
 6006TIP3    H118024   2.534   4.025   5.040  2.6117  1.2906  0.5737
 6006TIP3    H218025   2.566   3.914   4.941 -2.6465 -0.3127  0.3612
 6007TIP3   OH218026   4.217   1.503   1.761  0.3830  0.3487 -0.4597
 6007TIP3    H118027   4.261   1.588   1.769 -0.9667  0.8719  3.0007
 6007TIP3    H218028   4.223   1.465   1.848 -0.2086 -2.5779 -1.5901
 6008TIP3   OH218029   1.459   5.679   5.124 -0.6956 -0.6225 -0.0826
 6008TIP3    H118030   1.413   5.748   5.172 -0.2130 -0.7641  0.5930
 6008TIP3    H218031   1.403   5.602   5.132 -0.4824 -0.7207  0.5040
 6009TIP3   OH218032   3.529   2.825   1.786 -0.1217  0.7448 -0.3321
 6009TIP3    H118033   3.485   2.795   1.707  0.7017  0.6144 -0.7599
 6009TIP3    H218034   3.617   2.786   1.781 -0.1208  0.5657  0.7507
 6010TIP3   OH218035   2.997   1.400   2.074 -0.3821 -0.1096 -0.3479
 6010TIP3    H118036   3.017   1.493   2.074 -0.0949 -0.1586  0.5453
 6010TIP3    H218037   3.072   1.359   2.031  1.6286 -0.2927  2.9606
 6011TIP3   OH218038   2.854   3.231   0.686  0.3825 -0.0625 -0.1989
 6011TIP3    H118039   2.924   3.295   0.696 -0.7717  1.3582 -0.7152
 6011TIP3    H218040   2.779   3.283   0.655 -0.6925 -1.6267 -0.3311
 6012TIP3   OH218041   2.448   3.279   3.321 -0.2406 -0.0686  0.2426
 6012TIP3    H118042   2.439   3.339   3.247  0.2321  0.4820  0.6205
 6012TIP3    H218043   2.533   3.237   3.306  0.3701  0.8337  1.0164
 6013TIP3   OH218044   0.900   5.075   1.461 -0.6730  0.5084 -0.0989
 6013TIP3    H118045   0.904   5.064   1.556  0.4897  2.3974  0.1237
 6013TIP3    H218046   0.834   5.012   1.432  0.6086 -1.8023  1.6614
 6014TIP3   OH218047   2.961   0.729   4.246  0.1988 -0.1794 -0.2277
 6014TIP3    H118048   3.009   0.707   4.166 -3.4246  1.7899 -3.2745
 6014TIP3    H218049   2.921   0.647   4.274  4.2606 -1.7210  2.0090
 6015TIP3   OH218050   4.443   5.471   3.909 -0.8709 -0.3864  0.0791
 6015TIP3    H118051   4.450   5.379   3.886  0.0080  0.0649 -1.6039
 6015TIP3    H218052   4.486   5.518   3.837  1.5395  1.1824  2.3156
 6016TIP3   OH218053   5.455   0.448   3.120  0.5660 -0.3937  0.2613
 6016TIP3    H118054   5.500   0.528   3.092  0.9465 -0.5012  0.5624
 6016TIP3    H218055   5.403   0.474   3.196 -1.2158  0.1233 -1.0475
 6017TIP3   OH218056   5.618   1.685   2.142  0.1152 -0.1920 -0.2664
 6017TIP3    H118057   5.693   1.669   2.200 -1.7707 -2.6934  1.7592
 6017TIP3    H218058   5.603   1.601   2.099 -2.0694 -0.1028  0.1817
 6018TIP3   OH218059   3.878   3.977   4.273  0.3995  0.1876  0.1908
 6018TIP3    H118060   3.959   3.927   4.277  0.2137 -0.1435 -0.1374
 6018TIP3    H218061   3.810   3.914   4.295  0.0002 -0.1157 -1.7604
 6019TIP3   OH218062   4.897   2.889   0.918 -0.3184  0.4810 -0.3369
 6019TIP3    H118063   4.942   2.837   0.852  1.1519 -0.3686  1.2437
 6019TIP3    H218064   4.805   2.864   0.911  0.1955 -1.5725 -0.3163
 6020TIP3   OH218065   4.109   3.543   4.019 -0.5875  0.0934 -0.3096
 6020TIP3    H118066   4.190   3.552   4.070 -1.2395 -2.4845  1.3998
 6020TIP3    H218067   4.136   3.494   3.941 -0.3246 -0.0219 -0.1523
 6021TIP3   OH218068   3.580   5.200   3.071  0.1992 -0.4550 -0.6041
 6021TIP3    H118069   3.507   5.141   3.087 -0.1218  0.4563  1.6444
 6021TIP3    H218070   3.658   5.146   3.085 -0.0526 -0.9082 -0.9276
 6022TIP3   OH218071   0.039   0.831   3.666 -0.4815 -0.5061 -0.3965
 6022TIP3    H118072   0.081   0.833   3.581  1.4576  0.8312  0.5185
 6022TIP3    H218073  -0.042   0.880   3.654  0.3067  0.6358 -1.2332
 6023TIP3   OH218074   1.530   4.661   1.820  0.0292  0.0248  0.1863
 6023TIP3    H118075   1.523   4.579   1.770 -1.2034 -1.0433  1.9816
 6023TIP3    H218076   1.595   4.642   1.887  0.6729  0.9723 -0.1623
 6024TIP3   OH218077   5.611   4.995   3.157  0.0472  0.4910 -0.6977
 6024TIP3    H118078   5.565   4.911   3.158 -0.9895  1.0394  0.3326
 6024TIP3    H218079   5.702   4.972   3.137  0.3539 -1.1965  2.0422
 6025TIP3   OH218080   4.293   4.410   2.867 -0.0188  0.7129  0.3071
 6025TIP3    H118081   4.265   4.334   2.918 -3.3064  1.0571 -0.7814
 6025TIP3    H218082   4.249   4.484   2.908  2.1078  1.9458  0.5430
 6026TIP3   OH218083   0.071   1.914   1.769  0.2173 -0.8202 -0.0946
 6026TIP3    H118084   0.030   1.893   1.686  0.7454 -3.2021  0.1656
 6026TIP3    H218085  -0.001   1.917   1.832  0.0333 -1.1229 -0.2889
 6027TIP3   OH218086   5.180   1.345   4.063 -0.2489  0.1586 -0.3743
 6027TIP3    H118087   5.237   1.417   4.092  0.0437 -0.5422  0.8798
 6027TIP3    H218088   5.215   1.319   3.978  0.5561  0.5255 -0.1634
 6028TIP3   OH218089   2.730   3.388   3.030  0.3957  0.2366 -0.2864
 6028TIP3    H118090   2.788   3.318   2.998 -0.1895 -0.2582 -0.2745
 6028TIP3    H218091   2.717   3.444   2.954 -0.2793 -0.4561 -0.7016
 6029TIP3   OH218092   5.414   1.846   3.102 -0.1800 -0.6515  0.1430
 6029TIP3    H118093   5.325   1.875   3.123 -0.5375 -0.4835 -1.4966
 6029TIP3    H218094   5.405   1.795   3.022  1.1604 -0.9506  0.1577
 6030TIP3   OH218095   6.053   2.655   2.976 -0.2789 -0.2151  0.2877
 6030TIP3    H118096   6.076   2.644   3.069  1.5469 -0.7868 -0.1918
 6030TIP3    H218097   6.033   2.567   2.946  0.9214 -0.3015 -0.2860
 6031TIP3   OH218098   0.493   4.109   3.935 -0.1183  0.3454  0.1128
 6031TIP3    H118099   0.413   4.065   3.908 -0.1458  0.5058 -0.0734
 6031TIP3    H218100   0.465   4.171   4.002 -0.4882  1.8326 -1.3518
 6032TIP3   OH218101   4.258   2.609   2.363 -0.3183  0.0975  0.3326
 6032TIP3    H118102   4.207   2.587   2.286 -1.0301  1.2489  0.4531
 6032TIP3    H218103   4.195   2.611   2.435 -0.1844  1.8096  0.4393
 6033TIP3   OH218104   0.083   2.489   2.644 -0.2694  0.5836  0.8100
 6033TIP3    H118105   0.175   2.496   2.670  0.1045  0.5895 -0.4340
 6033TIP3    H218106   0.038   2.557   2.695  0.2988  0.1632  1.8914
 6034TIP3   OH218107   4.746   4.866   2.669  0.8081  0.0378  0.4009
 6034TIP3    H118108   4.736   4.792   2.729  0.1655  0.0413  0.3008
 6034TIP3    H218109   4.671   4.859   2.610  0.0540  1.4694  1.1392
 6035TIP3   OH218110   5.045   1.846   2.591 -0.1580 -0.0655  0.4161
 6035TIP3    H118111   5.052   1.936   2.621 -0.9709  0.2810 -0.3772
 6035TIP3    H218112   5.114   1.837   2.525 -0.1750  0.0223  0.3863
 6036TIP3   OH218113   3.912   2.278   0.386  0.1705  0.3877  0.2373
 6036TIP3    H118114   3.921   2.307   0.295  0.7313 -0.7330 -0.0778
 6036TIP3    H218115   4.001   2.263   0.416 -0.0932 -1.0232  0.3726
 6037TIP3   OH218116   1.429   2.349   3.096 -0.2685  0.1986 -0.3568
 6037TIP3    H118117   1.396   2.260   3.110 -1.0323  0.7068  1.3797
 6037TIP3    H218118   1.434   2.386   3.184  1.1748  1.4939 -0.9455
 6038TIP3   OH218119   2.768   2.556   0.708 -0.1141 -0.0848  0.4138
 6038TIP3    H118120   2.687   2.572   0.659  0.5734  0.1768 -0.6584
 6038TIP3    H218121   2.837   2.555   0.642  0.7163 -0.7672  1.2561
 6039TIP3   OH218122   2.730   4.428   3.101 -0.0909 -0.1398 -0.3220
 6039TIP3    H118123   2.753   4.507   3.051  3.4560  0.6822  2.2502
 6039TIP3    H218124   2.794   4.363   3.072  0.5654 -0.3227  1.4562
 6040TIP3   OH218125   5.202   2.988   0.731  0.2106  0.1787  0.0768
 6040TIP3    H118126   5.157   3.055   0.783  0.1029  0.3097 -0.1855
 6040TIP3    H218127   5.140   2.915   0.727  0.0263  0.3537 -0.2727
 6041TIP3   OH218128   6.248   1.629   3.804  0.3357 -0.2529 -0.1134
 6041TIP3    H118129   6.195   1.708   3.791  0.1711 -0.3949 -0.3128
 6041TIP3    H218130   6.221   1.596   3.890  0.2541 -0.2059 -0.1210
 6042TIP3   OH218131   1.104   0.042   0.278  0.1753  0.0408 -0.2117
 6042TIP3    H118132   1.115  -0.017   0.353 -0.2494  2.4005  1.8072
 6042TIP3    H218133   1.010   0.047   0.265  0.2525 -0.4566 -1.0211
 6043TIP3   OH218134   1.292   4.639   3.080 -0.0506  0.0050  0.3184
 6043TIP3    H118135   1.289   4.630   3.175  0.0228 -1.2683  0.2287
 6043TIP3    H218136   1.370   4.589   3.054  0.6066  1.3194 -0.3260
 6044TIP3   OH218137   6.029   3.617   4.987 -0.2171  0.0201  0.5011
 6044TIP3    H118138   5.962   3.605   5.054  0.2151  0.8706  1.1029
 6044TIP3    H218139   6.111   3.625   5.036  0.5485 -2.3456 -0.2760
 6045TIP3   OH218140   6.247   3.158   0.937  0.0906  0.7557 -0.3805
 6045TIP3    H118141   6.205   3.125   1.017  2.1186  1.2719  0.9786
 6045TIP3    H218142   6.212   3.247   0.928 -0.3082  0.6228 -0.1729
 6046TIP3   OH218143   2.874   5.794   3.911 -0.2606 -0.4101 -0.8580
 6046TIP3    H118144   2.913   5.870   3.867  0.4596  0.3155  0.9443
 6046TIP3    H218145   2.908   5.718   3.864  1.4717  0.2924 -0.8141
 6047TIP3   OH218146   1.243   5.180   4.066 -0.1197 -0.0196 -0.3305
 6047TIP3    H118147   1.165   5.130   4.044 -0.1911  0.5712 -1.5860
 6047TIP3    H218148   1.287   5.130   4.135 -1.4994 -0.4526  0.2553
 6048TIP3   OH218149   5.292   2.461   2.624 -0.4344 -0.0546 -0.0264
 6048TIP3    H118150   5.292   2.437   2.717 -1.8960  0.3371  0.1014
 6048TIP3    H218151   5.331   2.386   2.580  1.1178  0.1229  0.9676
 6049TIP3   OH218152   6.152   2.654   2.200 -0.2179  0.6997  0.0572
 6049TIP3    H118153   6.194   2.720   2.145 -0.1726  0.6179 -0.0059
 6049TIP3    H218154   6.203   2.574   2.186  3.0888  1.7403  4.0071
 6050TIP3   OH218155   2.712   3.584   3.328 -0.1991  0.0253 -0.4461
 6050TIP3    H118156   2.638   3.622   3.377  0.8456  1.4475  0.0982
 6050TIP3    H218157   2.754   3.526   3.391 -0.5293 -0.3590 -0.5789
 6051TIP3   OH218158   4.200   3.667   1.438 -0.3612  0.1016  0.5538
 6051TIP3    H118159   4.253   3.645   1.514  2.3900 -0.9772 -1.5149
 6051TIP3    H218160   4.156   3.585   1.415 -1.0102  0.3693  0.8078
 6052TIP3   OH218161   3.414   3.424   3.921  0.2199 -0.2203  0.2764
 6052TIP3    H118162   3.398   3.457   3.832  0.2244 -0.5665  0.1463
 6052TIP3    H218163   3.326   3.405   3.955  0.2934 -1.7255 -0.2862
 6053TIP3   OH218164   1.275   4.628   4.590  0.3602  0.5004 -0.4716
 6053TIP3    H118165   1.198   4.685   4.584  0.8286  1.1779 -0.0977
 6053TIP3    H218166   1.270   4.590   4.677  1.9167  2.7048  0.6690
 6054TIP3   OH218167   2.292   2.836   4.439 -0.5842 -0.1891  0.1820
 6054TIP3    H118168   2.256   2.924   4.438 -0.1101  0.0110 -0.9994
 6054TIP3    H218169   2.271   2.802   4.526 -1.1271  0.9341  0.5032
 6055TIP3   OH218170   4.938   0.974   2.910  0.5025 -0.0413  0.2709
 6055TIP3    H118171   5.023   0.982   2.867  0.4068 -0.1160  0.0646
 6055TIP3    H218172   4.941   0.889   2.954  0.2757 -0.3697 -0.3263
 6056TIP3   OH218173   4.335   5.408   4.191 -0.0084 -0.0879  0.6106
 6056TIP3    H118174   4.246   5.380   4.172 -0.8668 -0.0601  4.0306
 6056TIP3    H218175   4.335   5.502   4.175 -0.8033  0.0267  1.2358
 6057TIP3   OH218176   4.425   0.095   0.353 -0.0627  0.3259 -0.0767
 6057TIP3    H118177   4.339   0.081   0.315 -0.6319  3.1772 -0.1107
 6057TIP3    H218178   4.478   0.128   0.280  0.1917  1.3102  0.5316
 6058TIP3   OH218179   2.414   1.766   1.610 -0.7378  0.1069  0.5501
 6058TIP3    H118180   2.413   1.845   1.665  0.7535  0.5454 -0.0059
 6058TIP3    H218181   2.351   1.784   1.540  0.5939  1.4257 -0.3658
 6059TIP3   OH218182   5.271   4.569   0.891  0.1908 -0.2177  0.2132
 6059TIP3    H118183   5.308   4.628   0.956 -0.0242 -1.7813  1.8398
 6059TIP3    H218184   5.185   4.607   0.870 -0.4608 -0.5086  2.1298
 6060TIP3   OH218185   0.324   0.408   5.020 -0.2952  0.6123 -0.3186
 6060TIP3    H118186   0.354   0.356   5.095  0.8598 -0.2644 -1.3239
 6060TIP3    H218187   0.285   0.344   4.961 -2.8795  1.5340  0.2566
 6061TIP3   OH218188   1.442   4.041   2.166  0.2732  0.3087 -0.1832
 6061TIP3    H118189   1.507   4.102   2.200  1.2253 -0.2223 -0.9910
 6061TIP3    H218190   1.491   3.983   2.108 -0.3427 -1.9652  1.3983
 6062TIP3   OH218191   4.342   5.439   3.203 -0.1703 -0.0266  0.0359
 6062TIP3    H118192   4.298   5.521   3.222  0.4132 -0.0034  1.4000
 6062TIP3    H218193   4.300   5.407   3.123  0.8620  2.4922 -1.6225
 6063TIP3   OH218194   3.457   3.275   1.592  0.3086 -0.3052  0.5252
 6063TIP3    H118195   3.405   3.195   1.599 -0.8980  0.3090 -0.8937
 6063TIP3    H218196   3.519   3.256   1.522  0.4583 -0.2358  0.6410
 6064TIP3   OH218197   1.774   1.489   0.058 -0.4398  0.2374  0.0390
 6064TIP3    H118198   1.761   1.395   0.055 -0.5403 -0.0243  3.9308
 6064TIP3    H218199   1.868   1.500   0.075 -0.4439  0.8395 -0.2842
 6065TIP3   OH218200   0.914   1.261   2.536  0.2694  0.0683 -0.1709
 6065TIP3    H118201   1.000   1.240   2.572 -0.0628 -0.3334  0.4019
 6065TIP3    H218202   0.889   1.184   2.486  0.3749  0.3071 -0.5960
 6066TIP3   OH218203   2.478   1.625   2.987 -0.0509 -0.4017  0.0319
 6066TIP3    H118204   2.509   1.539   2.960  0.7002 -0.0351 -0.3161
 6066TIP3    H218205   2.388   1.611   3.015 -0.1588 -1.1651 -0.6792
 6067TIP3   OH218206   6.311   5.284   0.307  0.5206 -0.7685 -0.8028
 6067TIP3    H118207   6.231   5.247   0.271 -0.6790  0.0164  0.9309
 6067TIP3    H218208   6.291   5.302   0.399  1.8619  1.7042 -0.8854
 6068TIP3   OH218209   1.244   2.408   3.715  0.2268 -0.5978 -0.1357
 6068TIP3    H118210   1.316   2.347   3.733  0.3939 -0.5913 -0.7577
 6068TIP3    H218211   1.251   2.475   3.783 -0.2068 -1.4863  0.8100
 6069TIP3   OH218212   2.588   3.206   2.157  0.4606 -0.2902  0.4196
 6069TIP3    H118213   2.502   3.166   2.141  0.8112 -0.2854 -1.7742
 6069TIP3    H218214   2.634   3.141   2.211 -0.2445 -1.2049 -0.0370
 6070TIP3   OH218215   3.582   4.898   1.457  0.4272  0.5851 -0.0669
 6070TIP3    H118216   3.515   4.914   1.391  0.4998  2.1462  0.1977
 6070TIP3    H218217   3.633   4.825   1.423 -0.8218 -0.0139 -0.7148
 6071TIP3   OH218218   0.171   1.385   4.485 -0.2823 -0.2165 -0.0433
 6071TIP3    H118219   0.222   1.309   4.456  0.6515  0.2078  0.4492
 6071TIP3    H218220   0.124   1.414   4.407  1.0403  0.0065 -0.7861
 6072TIP3   OH218221   2.007   1.444   2.618  0.3839 -0.2243 -0.0851
 6072TIP3    H118222   1.986   1.528   2.658  2.7962  0.1385  0.5961
 6072TIP3    H218223   2.023   1.385   2.691 -0.3751 -1.0449 -0.5605
 6073TIP3   OH218224   3.262   1.536   1.935 -0.4556 -0.2336  0.4409
 6073TIP3    H118225   3.339   1.480   1.947  0.9588  1.5054 -0.0042
 6073TIP3    H218226   3.215   1.496   1.862  0.7035 -0.6669 -0.1023
 6074TIP3   OH218227   0.570   3.693   1.916 -0.4435 -0.2960  0.3757
 6074TIP3    H118228   0.590   3.635   1.989  1.3994  0.2117  0.3252
 6074TIP3    H218229   0.537   3.773   1.957  1.5228  0.3714  0.7983
 6075TIP3   OH218230   2.862   3.269   4.268 -0.0657 -0.5662  0.0967
 6075TIP3    H118231   2.934   3.306   4.319 -0.6891 -0.8477  1.2165
 6075TIP3    H218232   2.812   3.345   4.239  0.4050 -0.3922 -0.2561
 6076TIP3   OH218233   6.211   0.370   3.417 -0.9482  0.7569  0.1684
 6076TIP3    H118234   6.237   0.440   3.477 -1.5110 -0.5421  2.0266
 6076TIP3    H218235   6.118   0.383   3.404 -0.8686  0.9071 -0.2465
 6077TIP3   OH218236   0.736   1.429   5.179  0.1501 -0.2824  0.3420
 6077TIP3    H118237   0.797   1.502   5.169 -0.5835  0.9068  3.5640
 6077TIP3    H218238   0.651   1.466   5.158  0.0241 -0.8042 -0.0781
 6078TIP3   OH218239   3.061   2.057   3.365 -0.5675  0.1131 -0.4100
 6078TIP3    H118240   3.012   2.106   3.299 -1.6729  2.1013  1.7406
 6078TIP3    H218241   3.004   1.984   3.388 -0.8776  0.3093 -0.5458
 6079TIP3   OH218242   2.104   4.938   1.320  0.1662 -0.2052  0.2723
 6079TIP3    H118243   2.185   4.949   1.270  0.2281  1.7423  0.7275
 6079TIP3    H218244   2.038   4.986   1.270 -0.8093 -1.9425 -0.2059
 6080TIP3   OH218245   4.751   0.906   0.168  0.2786 -0.1668 -0.3418
 6080TIP3    H118246   4.753   0.998   0.142  0.0578 -0.2746 -0.7462
 6080TIP3    H218247   4.803   0.861   0.102 -0.5636 -0.4890 -0.8040
 6081TIP3   OH218248   0.686   2.413   5.177  0.7309 -0.2419 -0.3461
 6081TIP3    H118249   0.744   2.407   5.101  2.1776 -1.2402  0.7988
 6081TIP3    H218250   0.686   2.326   5.215 -1.5817 -0.2878 -0.2916
 6082TIP3   OH218251   3.549   1.717   2.580  0.0057  0.0480 -0.4575
 6082TIP3    H118252   3.628   1.768   2.567 -0.2537  0.8113  0.8295
 6082TIP3    H218253   3.580   1.629   2.601  0.4944  0.2167 -0.4623
 6083TIP3   OH218254   0.121   1.023   3.369  0.1134 -0.9279  0.1465
 6083TIP3    H118255   0.028   1.009   3.385  0.3159 -1.5282  0.8248
 6083TIP3    H218256   0.124   1.106   3.320 -0.7388 -0.6759  0.4947
 6084TIP3   OH218257   5.082   4.795   2.360  0.2299  0.0200 -0.4444
 6084TIP3    H118258   5.000   4.749   2.341  1.6447 -2.1251 -1.8511
 6084TIP3    H218259   5.059   4.888   2.359 -1.6968 -0.3569 -3.6553
 6085TIP3   OH218260   4.141   3.337   0.162 -0.2478  0.0212  0.0060
 6085TIP3    H118261   4.153   3.251   0.122 -0.8235  0.1659 -0.4942
 6085TIP3    H218262   4.086   3.322   0.238 -0.6973 -0.0002 -0.3188
 6086TIP3   OH218263   4.704   4.228   1.407  0.2835  0.1708 -0.2289
 6086TIP3    H118264   4.668   4.199   1.491  0.0456 -1.1534 -0.7780
 6086TIP3    H218265   4.685   4.322   1.405 -0.5290  0.0495  0.7876
 6087TIP3   OH218266   2.582   2.330   2.454  0.4115 -0.3685 -0.1497
 6087TIP3    H118267   2.653   2.266   2.463  0.7268  0.1710  1.6495
 6087TIP3    H218268   2.522   2.291   2.391  1.0574 -1.9990  0.2038
 6088TIP3   OH218269   4.158   3.845   1.053  0.3385 -0.2285 -0.1136
 6088TIP3    H118270   4.216   3.769   1.058  0.4644 -0.0828  0.8701
 6088TIP3    H218271   4.139   3.854   0.960  0.6913 -1.1837 -0.2949
 6089TIP3   OH218272   2.529   0.991   4.964 -0.3204 -0.0201 -0.0674
 6089TIP3    H118273   2.528   0.916   5.024  1.8730  0.9962  1.3635
 6089TIP3    H218274   2.508   1.066   5.019 -0.8297  0.6309 -1.1289
 6090TIP3   OH218275   4.575   4.342   3.776 -0.0170 -0.3680  0.8933
 6090TIP3    H118276   4.528   4.404   3.832  1.9580  1.7644  0.3162
 6090TIP3    H218277   4.594   4.268   3.834 -0.8523  0.3420  2.1164
 6091TIP3   OH218278   5.422   5.810   3.344  0.0087 -0.1707  0.3818
 6091TIP3    H118279   5.331   5.816   3.371  0.0506 -0.3978  0.5766
 6091TIP3    H218280   5.454   5.900   3.348  0.0174 -0.2007  1.1052
 6092TIP3   OH218281   4.833   5.452   2.242 -0.8133  0.5929  0.0080
 6092TIP3    H118282   4.767   5.449   2.173 -0.0398  1.3294 -0.7970
 6092TIP3    H218283   4.784   5.471   2.322 -1.8314 -1.0625 -0.1645
 6093TIP3   OH218284   6.049   0.763   2.530  0.5085 -0.0824 -0.2652
 6093TIP3    H118285   6.003   0.836   2.571  0.3357 -0.4645  0.2404
 6093TIP3    H218286   6.056   0.788   2.438  0.6423  0.6599 -0.0590
 6094TIP3   OH218287   1.462   5.178   3.124  0.0935  0.5980  0.1141
 6094TIP3    H118288   1.419   5.093   3.112  0.2220  0.3661  1.2528
 6094TIP3    H218289   1.480   5.208   3.035 -2.2074  0.5852 -0.4156
 6095TIP3   OH218290   5.301   2.321   2.852  0.4250  0.9343  0.3948
 6095TIP3    H118291   5.230   2.338   2.914 -0.7673  0.0177 -0.6646
 6095TIP3    H218292   5.332   2.234   2.874  1.3209  1.3869  0.9384
 6096TIP3   OH218293   1.218   4.303   3.610  0.2415  0.4328 -0.2483
 6096TIP3    H118294   1.255   4.249   3.680 -2.0827  0.3436  1.0113
 6096TIP3    H218295   1.180   4.240   3.549 -2.0496  0.4659  0.9843
 6097TIP3   OH218296   1.702   4.054   4.483  0.6163  0.4253  0.5803
 6097TIP3    H118297   1.670   3.966   4.504 -0.1699  0.6142  0.2087
 6097TIP3    H218298   1.796   4.042   4.468  0.7164 -0.1659  1.5695
 6098TIP3   OH218299   3.507   1.041   1.239 -0.1713 -0.3104 -0.2410
 6098TIP3    H118300   3.444   1.009   1.175  0.8193 -1.9897 -0.4237
 6098TIP3    H218301   3.479   1.001   1.322 -0.7079  0.8441  0.1553
 6099TIP3   OH218302   5.464   3.316   5.181  0.5348 -0.2074 -0.0985
 6099TIP3    H118303   5.548   3.330   5.138  1.7282 -0.9862  1.8231
 6099TIP3    H218304   5.424   3.243   5.135  1.7091 -0.9461  0.0324
 6100TIP3   OH218305   1.023   2.483   4.348  0.5182  0.5267 -0.0549
 6100TIP3    H118306   1.048   2.452   4.260 -0.9820  0.1298 -0.3685
 6100TIP3    H218307   1.080   2.434   4.407  0.1457 -0.7635 -0.7168
 6101TIP3   OH218308   2.191   3.383   3.049  0.1423 -0.2099  0.1467
 6101TIP3    H118309   2.197   3.310   3.110  2.3393  0.1927  0.5132
 6101TIP3    H218310   2.181   3.460   3.105  0.3459 -0.0040 -0.0977
 6102TIP3   OH218311   3.862   5.993   1.625 -0.1213 -0.3330 -0.4382
 6102TIP3    H118312   3.901   6.051   1.560 -0.6811  0.3437 -0.1865
 6102TIP3    H218313   3.856   5.908   1.581  1.1688 -0.3344 -0.6398
 6103TIP3   OH218314   1.482   5.828   2.322 -0.3347  0.0390 -0.1029
 6103TIP3    H118315   1.431   5.817   2.242 -0.0135  0.1082 -0.3203
 6103TIP3    H218316   1.455   5.755   2.378  0.0576 -0.5038 -0.6119
 6104TIP3   OH218317   1.460   5.518   2.664 -0.0410  0.1186  0.3267
 6104TIP3    H118318   1.365   5.516   2.678  0.0218  1.3697  1.1044
 6104TIP3    H218319   1.492   5.584   2.726  1.5910 -1.6184  1.4330
 6105TIP3   OH218320   2.337   4.897   1.669  0.2123  0.1732 -0.3246
 6105TIP3    H118321   2.330   4.855   1.584  0.1606 -0.7646  0.1245
 6105TIP3    H218322   2.262   4.864   1.718  0.2624  0.6726  0.0954
 6106TIP3   OH218323   5.193   1.813   4.983  0.5081 -0.2072 -0.0842
 6106TIP3    H118324   5.259   1.797   4.915  0.3987  1.3250 -0.5836
 6106TIP3    H218325   5.244   1.848   5.057  0.5165 -1.0813  0.3384
 6107TIP3   OH218326   3.310   5.541   0.122 -0.0045  0.2029  0.2551
 6107TIP3    H118327   3.277   5.619   0.166  0.3528  1.3416 -1.4097
 6107TIP3    H218328   3.390   5.569   0.078  0.3771 -1.2197 -0.0273
 6108TIP3   OH218329   3.661   0.630   3.949 -0.0431 -0.1387  0.5186
 6108TIP3    H118330   3.640   0.620   4.042  0.4534  1.0064  0.7690
 6108TIP3    H218331   3.666   0.724   3.936 -0.7924 -0.2663 -0.8354
 6109TIP3   OH218332   1.671   5.002   1.849 -0.2689  0.3079 -0.0814
 6109TIP3    H118333   1.627   5.087   1.846 -0.4120  0.2409 -3.1092
 6109TIP3    H218334   1.610   4.942   1.806  0.7362 -0.8461  0.0432
 6110TIP3   OH218335   1.341   2.553   2.325 -0.6227  0.0380  0.1762
 6110TIP3    H118336   1.416   2.577   2.271 -1.0155  0.4756 -0.1820
 6110TIP3    H218337   1.328   2.629   2.382 -0.0029 -0.5486  1.1345
 6111TIP3   OH218338   0.977   2.918   4.226 -0.0265  0.1261 -0.1477
 6111TIP3    H118339   0.903   2.970   4.258 -1.2815 -2.4403  1.4049
 6111TIP3    H218340   0.946   2.883   4.142  0.9442  2.0044 -1.3574
 6112TIP3   OH218341   3.022   0.070   0.332 -0.4851 -0.5996 -0.3884
 6112TIP3    H118342   3.037   0.010   0.259 -0.3125 -0.3075 -0.5945
 6112TIP3    H218343   3.061   0.027   0.408  1.5030  0.1898 -0.9178
 6113TIP3   OH218344   5.355   5.878   0.044  0.5793 -0.0878 -0.1983
 6113TIP3    H118345   5.418   5.888  -0.027  0.8705 -1.2187 -0.1243
 6113TIP3    H218346   5.372   5.951   0.103 -0.6038  1.7023 -1.9677
 6114TIP3   OH218347   2.530   2.062   2.552 -0.1388 -0.2376  0.0420
 6114TIP3    H118348   2.457   2.116   2.583  1.3894  2.1858 -0.3118
 6114TIP3    H218349   2.494   2.013   2.477 -1.6016  0.2505  0.4058
 6115TIP3   OH218350   1.113   3.955   0.662 -0.6603 -0.7115  0.4092
 6115TIP3    H118351   1.033   3.958   0.714  0.5591  1.8469  2.3572
 6115TIP3    H218352   1.184   3.956   0.726  0.9343  3.0321 -1.0777
 6116TIP3   OH218353   5.018   0.906   0.249  0.2651  0.5359 -0.6670
 6116TIP3    H118354   5.033   0.921   0.343  0.2384  1.4225 -0.7979
 6116TIP3    H218355   4.926   0.929   0.236  0.3555  0.7273 -0.9686
 6117TIP3   OH218356   1.931   4.669   4.626 -0.4306 -0.1295 -0.5157
 6117TIP3    H118357   1.873   4.664   4.701  0.4406  1.3222  0.2856
 6117TIP3    H218358   1.895   4.740   4.572 -1.6835 -1.8491 -2.0887
 6118TIP3   OH218359   4.826   5.933   2.821  0.2933  0.1282 -0.0593
 6118TIP3    H118360   4.897   5.983   2.861  0.3222 -0.1598  0.2573
 6118TIP3    H218361   4.839   5.943   2.727  1.1756 -0.4979 -0.0107
 6119TIP3   OH218362   1.792   4.606   1.942  0.2335 -0.6134 -0.2841
 6119TIP3    H118363   1.872   4.640   1.982  0.7493 -1.3264 -0.6747
 6119TIP3    H218364   1.815   4.517   1.914 -0.7110 -0.8430 -0.3657
 6120TIP3   OH218365   6.058   4.223   2.841 -0.1863 -0.0012 -0.1756
 6120TIP3    H118366   6.091   4.265   2.761 -2.1155  1.2241 -0.3933
 6120TIP3    H218367   6.103   4.139   2.844  2.3137  1.2327 -0.8148
 6121TIP3   OH218368   0.800   2.682   4.624 -0.1995 -0.2684 -0.2350
 6121TIP3    H118369   0.876   2.726   4.585  0.1582 -0.7693 -0.1066
 6121TIP3    H218370   0.780   2.733   4.702  0.5844 -0.6812  0.2409
 6122TIP3   OH218371   5.473   1.515   2.459  0.3001 -0.4599  0.3178
 6122TIP3    H118372   5.436   1.514   2.371 -1.4053 -1.6955  1.0031
 6122TIP3    H218373   5.464   1.425   2.490  3.6863 -0.8297  0.6815
 6123TIP3   OH218374   5.513   4.262   1.154 -0.3745 -0.1077 -0.6766
 6123TIP3    H118375   5.538   4.280   1.063  1.2437  3.0421  0.2566
 6123TIP3    H218376   5.436   4.317   1.169 -0.7069 -0.7056 -0.1451
 6124TIP3   OH218377   6.227   4.659   4.189  0.1186 -0.1058  0.0178
 6124TIP3    H118378   6.186   4.618   4.113 -1.8514  3.1225 -0.8625
 6124TIP3    H218379   6.171   4.634   4.263 -1.1024  0.8865 -0.5199
 6125TIP3   OH218380   2.298   2.361   3.908  0.4593  0.1376  0.0227
 6125TIP3    H118381   2.281   2.266   3.904 -0.2243  0.2672 -0.3403
 6125TIP3    H218382   2.347   2.380   3.828 -1.9981  0.5671 -1.4843
 6126TIP3   OH218383   4.352   3.549   4.151 -0.1213 -0.0533 -0.1669
 6126TIP3    H118384   4.327   3.503   4.231 -0.8968  0.1090 -0.3093
 6126TIP3    H218385   4.393   3.482   4.096 -1.1165 -0.5573 -0.3202
 6127TIP3   OH218386   2.270   3.181   4.700 -0.1625 -0.1075 -0.0344
 6127TIP3    H118387   2.288   3.253   4.640  0.7717 -0.4955 -0.2312
 6127TIP3    H218388   2.318   3.204   4.780  0.5757 -0.7496 -0.2784
 6128TIP3   OH218389   0.663   4.634   4.284 -0.2940  0.3940  0.0515
 6128TIP3    H118390   0.697   4.557   4.330 -2.7863 -0.1807  1.0838
 6128TIP3    H218391   0.699   4.708   4.332  0.2205 -0.1548  0.5257
 6129TIP3   OH218392   3.486   4.940   4.884 -0.5302 -0.1031  0.5615
 6129TIP3    H118393   3.576   4.922   4.910 -0.4709 -1.7443 -0.6721
 6129TIP3    H218394   3.434   4.913   4.960  0.0575  3.7183  2.5926
 6130TIP3   OH218395   2.697   3.317   2.701  0.3118  0.2180 -0.0543
 6130TIP3    H118396   2.720   3.253   2.768 -0.4787 -0.4227 -0.3780
 6130TIP3    H218397   2.632   3.273   2.647  1.4275  0.4425 -1.6811
 6131TIP3   OH218398   0.647   4.410   2.409 -0.2279  0.5638 -0.3572
 6131TIP3    H118399   0.646   4.336   2.469 -0.6215  1.6031  0.9623
 6131TIP3    H218400   0.709   4.385   2.341 -0.6154 -1.1118 -0.1356
 6132TIP3   OH218401   3.688   3.402   4.404  0.3668 -0.5000 -0.0887
 6132TIP3    H118402   3.690   3.327   4.345 -0.2437 -0.2141 -0.4960
 6132TIP3    H218403   3.775   3.406   4.442 -0.0005 -2.2945  1.0774
 6133TIP3   OH218404   2.670   0.750   0.612 -0.3640 -0.2074  0.0599
 6133TIP3    H118405   2.596   0.774   0.557  0.2514  1.3857 -0.1444
 6133TIP3    H218406   2.747   0.765   0.556  0.2679  1.2535  1.2246
 6134TIP3   OH218407  -0.016   2.799   1.229  0.2089  0.5602  0.1819
 6134TIP3    H118408   0.028   2.882   1.210  0.6534  1.0753  3.0370
 6134TIP3    H218409   0.041   2.755   1.292 -1.9285 -0.0556  1.8205
 6135TIP3   OH218410   2.683   1.066   2.328  0.4142 -0.3214  0.5611
 6135TIP3    H118411   2.756   1.009   2.305 -0.5012 -0.8428 -1.2604
 6135TIP3    H218412   2.715   1.154   2.313  1.3036 -0.4060  1.7944
 6136TIP3   OH218413   3.580   1.732   0.438 -0.3840 -0.1021 -0.0068
 6136TIP3    H118414   3.655   1.792   0.441 -1.7821  1.7899 -0.6901
 6136TIP3    H218415   3.559   1.724   0.345 -0.6913 -1.0477  0.1378
 6137TIP3   OH218416   1.668   0.875   1.066  0.3951 -0.1876 -0.3051
 6137TIP3    H118417   1.656   0.872   1.160 -0.7622 -0.3890 -0.4472
 6137TIP3    H218418   1.763   0.876   1.054  0.5550 -0.3402  0.8460
 6138TIP3   OH218419   0.220   3.722   5.151  0.0374  0.4146  0.9482
 6138TIP3    H118420   0.206   3.806   5.194 -1.3484  0.1742  1.0275
 6138TIP3    H218421   0.188   3.657   5.215 -3.1416  0.1020 -0.7297
 6139TIP3   OH218422   5.512   4.935   0.778 -0.3744  0.1470  0.4129
 6139TIP3    H118423   5.585   4.889   0.737 -0.6621 -1.6982  1.8431
 6139TIP3    H218424   5.552   4.988   0.847 -0.2698  0.2282  0.2908
 6140TIP3   OH218425   3.601   1.910   2.114 -0.0016 -0.2699 -0.2230
 6140TIP3    H118426   3.608   1.815   2.115  3.2559 -0.1212  0.9111
 6140TIP3    H218427   3.604   1.934   2.021  1.2749 -1.1975 -0.4421
 6141TIP3   OH218428   2.378   4.026   2.487  0.0055  0.1949 -0.5052
 6141TIP3    H118429   2.324   3.999   2.562  1.1368  0.8464  0.5917
 6141TIP3    H218430   2.322   4.085   2.437 -0.7724 -0.2535 -0.1756
 6142TIP3   OH218431   2.495   4.919   0.817 -0.1342  0.8498  0.5527
 6142TIP3    H118432   2.493   4.987   0.750  0.8002  2.5683  2.1619
 6142TIP3    H218433   2.426   4.945   0.879 -1.3542 -1.0034  0.0277
 6143TIP3   OH218434   0.706   4.331   0.771 -0.0049 -0.0952  0.2912
 6143TIP3    H118435   0.699   4.401   0.706 -0.5401 -2.2413 -2.1102
 6143TIP3    H218436   0.624   4.337   0.820 -0.0605  0.9163  0.1058
 6144TIP3   OH218437   3.505   1.583   3.043 -0.4646 -0.0443  0.0630
 6144TIP3    H118438   3.483   1.626   2.961  2.2083 -0.7759 -1.1755
 6144TIP3    H218439   3.555   1.648   3.093 -0.6251 -0.1430  0.3589
 6145TIP3   OH218440   2.283   1.379   1.238  0.1984  0.2394 -0.0560
 6145TIP3    H118441   2.347   1.372   1.167 -0.8592  1.4504 -1.1716
 6145TIP3    H218442   2.335   1.401   1.315  1.2331  0.1717 -0.7100
 6146TIP3   OH218443   0.330   5.809   1.732  0.4620 -0.3126 -0.2075
 6146TIP3    H118444   0.238   5.796   1.711  0.3858  1.0046 -0.7448
 6146TIP3    H218445   0.377   5.773   1.657  0.3314  0.4328 -0.6492
 6147TIP3   OH218446   1.964   4.325   3.506 -0.6022  0.4479 -0.7782
 6147TIP3    H118447   2.005   4.329   3.419 -0.7610  0.8438 -0.8376
 6147TIP3    H218448   1.919   4.241   3.507  0.9541 -0.4227 -0.3737
 6148TIP3   OH218449   6.023   0.258   2.234  0.0089  0.3909  0.3715
 6148TIP3    H118450   6.118   0.253   2.220 -0.2930 -2.0335 -1.5619
 6148TIP3    H218451   5.990   0.301   2.155 -0.6461 -0.6263  0.0749
 6149TIP3   OH218452   5.176   3.996   5.067 -0.0651  0.4737 -0.3948
 6149TIP3    H118453   5.254   3.953   5.034  1.0503  2.2111 -0.1830
 6149TIP3    H218454   5.143   3.939   5.136  2.0047  0.4670  0.6652
 6150TIP3   OH218455   4.594   0.709   4.239  0.1862 -0.7551  0.0556
 6150TIP3    H118456   4.577   0.746   4.152 -2.4876 -0.8564  0.4674
 6150TIP3    H218457   4.679   0.746   4.264 -0.1299  1.2335 -1.5460
 6151TIP3   OH218458   5.497   3.952   3.749 -0.1038  0.1308 -0.0781
 6151TIP3    H118459   5.443   3.991   3.681  0.6236 -3.4227 -3.0575
 6151TIP3    H218460   5.437   3.931   3.820 -1.6307  0.8239 -1.1282
 6152TIP3   OH218461   1.911   5.320   1.311  0.1678  0.0394  0.3640
 6152TIP3    H118462   1.854   5.375   1.258  1.0742  1.2460  0.5902
 6152TIP3    H218463   1.890   5.345   1.402  0.7859  0.2294  0.4587
 6153TIP3   OH218464   1.222   3.253   3.072  0.1285  0.7901  0.3367
 6153TIP3    H118465   1.135   3.291   3.086 -0.2747  0.3606 -0.8201
 6153TIP3    H218466   1.209   3.192   2.998  1.6950  1.7129 -0.7556
 6154TIP3   OH218467   5.019   0.845   3.236 -0.2373  0.8515 -0.4327
 6154TIP3    H118468   4.941   0.820   3.187  0.7060  0.4392 -1.8049
 6154TIP3    H218469   5.038   0.769   3.290 -1.8563  1.6813  1.4166
 6155TIP3   OH218470   3.911   0.092   0.680 -0.0747 -0.1061  0.0429
 6155TIP3    H118471   3.816   0.100   0.688 -0.0612  2.6210 -1.1364
 6155TIP3    H218472   3.927   0.097   0.585  1.3051  1.7496  0.3120
 6156TIP3   OH218473   6.037   3.767   1.052 -0.1963  0.2369 -0.0829
 6156TIP3    H118474   6.089   3.846   1.035 -0.3872  0.6640  1.1774
 6156TIP3    H218475   5.972   3.794   1.117 -1.5873 -0.4649 -1.1399
 6157TIP3   OH218476   2.820   2.501   1.592 -0.2696 -0.7920  0.0524
 6157TIP3    H118477   2.903   2.482   1.550 -0.4209 -1.2861 -0.0245
 6157TIP3    H218478   2.832   2.588   1.631 -0.0895 -0.3828 -0.9023
 6158TIP3   OH218479   4.446   4.911   3.363 -0.1483 -0.1402 -0.4445
 6158TIP3    H118480   4.412   4.894   3.275 -0.1690 -0.8912 -0.2955
 6158TIP3    H218481   4.467   4.824   3.398 -0.3408  0.1376  0.3722
 6159TIP3   OH218482   5.757   4.664   1.980 -0.0953  0.1410 -0.6817
 6159TIP3    H118483   5.729   4.753   1.960 -1.1556  0.1958  0.8549
 6159TIP3    H218484   5.676   4.618   2.003  0.7772 -0.1952  2.1308
 6160TIP3   OH218485   3.704   3.583   1.739 -0.0753 -0.1055 -0.1365
 6160TIP3    H118486   3.791   3.624   1.749 -0.1803  0.0016  0.3953
 6160TIP3    H218487   3.644   3.647   1.777 -0.3928 -0.1690 -0.5334
 6161TIP3   OH218488   5.005   3.967   2.790  0.4357 -0.0471  0.0218
 6161TIP3    H118489   4.952   3.892   2.818  1.7358 -1.5742 -1.3465
 6161TIP3    H218490   5.048   3.996   2.870  0.1645 -1.0047  0.5409
 6162TIP3   OH218491   3.952   2.151   4.631  0.7069 -0.3229  0.1462
 6162TIP3    H118492   4.020   2.116   4.573 -0.7460  0.1394 -1.9856
 6162TIP3    H218493   3.886   2.082   4.635 -0.8334  0.9304 -1.7225
 6163TIP3   OH218494   2.711   4.769   0.865 -0.0178  0.2447  0.4341
 6163TIP3    H118495   2.641   4.833   0.853 -0.2677  0.4992  2.8093
 6163TIP3    H218496   2.670   4.685   0.846 -0.5299  0.5238  0.2858
 6164TIP3   OH218497   0.626   3.527   3.955  0.1575 -1.0497  0.2737
 6164TIP3    H118498   0.643   3.503   3.863 -0.5747 -2.1282  0.3936
 6164TIP3    H218499   0.532   3.546   3.958  0.3877  0.1153  0.5813
 6165TIP3   OH218500   5.849   0.874   2.751 -0.3727  0.3790  0.4212
 6165TIP3    H118501   5.848   0.806   2.818 -1.2810 -1.3282 -1.2299
 6165TIP3    H218502   5.761   0.874   2.715 -0.0357  1.5872 -0.4753
 6166TIP3   OH218503   4.338   0.345   0.022  0.6053 -0.5623  0.5930
 6166TIP3    H118504   4.390   0.271   0.054  0.8989  0.1435  1.7943
 6166TIP3    H218505   4.340   0.409   0.093  1.4592  1.1930 -0.9297
 6167TIP3   OH218506   1.225   5.959   4.177 -0.4518 -0.0718  0.0786
 6167TIP3    H118507   1.166   6.032   4.160  1.4839  1.0967 -2.1722
 6167TIP3    H218508   1.217   5.902   4.101  0.4719 -0.4890  0.2689
 6168TIP3   OH218509   3.377   4.804   1.005 -0.4136  0.0700 -0.1963
 6168TIP3    H118510   3.464   4.831   0.974 -0.5078 -0.6787 -1.1649
 6168TIP3    H218511   3.318   4.829   0.934 -1.0629  0.9828  0.6542
 6169TIP3   OH218512   4.968   3.018   0.297 -0.0664  0.0205  0.6441
 6169TIP3    H118513   5.059   2.990   0.308 -0.0637  0.4969  1.9985
 6169TIP3    H218514   4.917   2.945   0.332 -0.2125 -0.1611  0.0662
 6170TIP3   OH218515   4.601   4.197   3.008 -0.2308  0.0238 -0.1581
 6170TIP3    H118516   4.632   4.280   2.970  1.5381 -0.8801 -0.7931
 6170TIP3    H218517   4.676   4.164   3.057 -0.2341 -2.0939 -1.4482
 6171TIP3   OH218518   1.724   0.315   2.038 -0.2346 -0.4215  0.4020
 6171TIP3    H118519   1.694   0.378   1.973 -0.0075  0.1030  0.8064
 6171TIP3    H218520   1.819   0.309   2.024 -0.2481 -0.6481  0.3911
 6172TIP3   OH218521   2.384   5.490   0.530  0.0254 -0.2740 -0.3533
 6172TIP3    H118522   2.339   5.542   0.596  1.5501 -0.1045  0.5871
 6172TIP3    H218523   2.373   5.399   0.558  0.8220 -0.1926  0.2673
 6173TIP3   OH218524   0.710   0.287   3.372 -0.7707 -0.1348 -0.4466
 6173TIP3    H118525   0.802   0.275   3.346 -0.1380 -1.5881  2.1284
 6173TIP3    H218526   0.709   0.372   3.415 -1.0151  0.5742 -1.7923
 6174TIP3   OH218527   4.531   2.658   3.348 -0.4526 -0.1025 -0.1985
 6174TIP3    H118528   4.588   2.644   3.272 -1.3240 -0.7361 -0.7559
 6174TIP3    H218529   4.459   2.711   3.315 -1.1208 -0.8378  0.0442
 6175TIP3   OH218530   0.120   4.710   2.873 -0.5083 -0.2902  0.3875
 6175TIP3    H118531   0.073   4.692   2.955 -0.8555  1.4477  0.6063
 6175TIP3    H218532   0.201   4.753   2.901  0.2741 -1.3827 -0.1116
 6176TIP3   OH218533   1.735   1.239   3.306 -0.5354  0.8075 -0.2094
 6176TIP3    H118534   1.686   1.157   3.307 -0.6788  0.7868 -2.7000
 6176TIP3    H218535   1.668   1.308   3.306 -0.4164  1.0089  1.9610
 6177TIP3   OH218536   4.807   3.186   0.179  0.3065  0.4988  0.3349
 6177TIP3    H118537   4.868   3.147   0.242 -0.3245  0.1741  0.7636
 6177TIP3    H218538   4.760   3.252   0.230 -0.0890  0.3508  0.1623
 6178TIP3   OH218539   0.700   5.905   0.766 -0.4995 -0.0383  0.4809
 6178TIP3    H118540   0.711   5.838   0.834 -1.1965  0.9878  1.6544
 6178TIP3    H218541   0.766   5.883   0.700 -0.0612 -1.3076  1.2970
 6179TIP3   OH218542   5.472   2.692   2.422  0.0627 -0.0559  0.2113
 6179TIP3    H118543   5.391   2.645   2.404 -0.3350  0.7901 -0.2797
 6179TIP3    H218544   5.454   2.737   2.505 -0.0800  0.3609 -0.0438
 6180TIP3   OH218545   0.197   0.745   3.905  0.1702  0.3979 -0.3675
 6180TIP3    H118546   0.135   0.680   3.939 -0.9771  1.7855  0.2635
 6180TIP3    H218547   0.160   0.771   3.821  0.7161  0.1320 -0.6950
 6181TIP3   OH218548   3.250   2.588   3.191  0.2406  0.5761 -0.0067
 6181TIP3    H118549   3.315   2.657   3.193  0.1961  0.6330 -0.5549
 6181TIP3    H218550   3.298   2.509   3.215 -0.1212  1.1009  2.7967
 6182TIP3   OH218551   0.999   3.247   0.835 -0.8342 -0.3036  0.0969
 6182TIP3    H118552   1.078   3.298   0.856 -1.1725  0.4749 -0.4754
 6182TIP3    H218553   0.937   3.271   0.904 -1.1097  0.3502 -0.3622
 6183TIP3   OH218554   2.693   5.618   0.095  0.7052  0.7523  0.1822
 6183TIP3    H118555   2.598   5.603   0.091  0.1703  3.6056 -2.8612
 6183TIP3    H218556   2.731   5.540   0.055 -0.5683  0.4590 -0.5303
 6184TIP3   OH218557   3.399   1.683   0.197  0.2696 -0.4344  0.3459
 6184TIP3    H118558   3.381   1.597   0.157  0.9185  0.1509 -1.3095
 6184TIP3    H218559   3.484   1.709   0.160  0.0692  0.9376  0.7924
 6185TIP3   OH218560   3.717   2.558   1.094 -0.2652  0.3885 -0.1073
 6185TIP3    H118561   3.704   2.495   1.023 -1.0143  1.4305 -0.9232
 6185TIP3    H218562   3.639   2.548   1.150  1.3609 -2.0644  1.9461
 6186TIP3   OH218563   1.154   1.233   2.652  0.1228 -0.0271  0.1657
 6186TIP3    H118564   1.128   1.150   2.692 -0.9522 -0.7717 -1.9364
 6186TIP3    H218565   1.218   1.270   2.713  0.8805 -2.5335  1.0146
 6187TIP3   OH218566   1.562   5.033   0.097  0.0298  0.1942 -0.5260
 6187TIP3    H118567   1.555   5.048   0.002  0.6294 -1.4080 -0.8429
 6187TIP3    H218568   1.507   4.956   0.113 -0.0057  0.4071  0.4326
 6188TIP3   OH218569   3.619   0.497   3.319 -0.2309  0.3783 -0.1089
 6188TIP3    H118570   3.554   0.554   3.276 -0.6454 -0.2902 -0.3821
 6188TIP3    H218571   3.567   0.426   3.356  0.3296 -0.0564 -0.1493
 6189TIP3   OH218572   5.854   4.782   4.005 -0.1432  0.6813 -0.2291
 6189TIP3    H118573   5.932   4.777   3.950 -0.1663 -0.5543 -0.1578
 6189TIP3    H218574   5.864   4.864   4.054  0.6358  1.0035 -0.9088
 6190TIP3   OH218575   3.595   2.057   3.020 -0.0408 -0.2547 -0.2132
 6190TIP3    H118576   3.533   2.103   3.076 -0.5187  0.8944 -1.6366
 6190TIP3    H218577   3.680   2.096   3.040 -0.1946  0.0860 -0.2200
 6191TIP3   OH218578   1.041   1.083   2.286 -0.3149  0.1472  0.1553
 6191TIP3    H118579   1.054   1.070   2.380  0.3962 -0.4688 -0.0246
 6191TIP3    H218580   1.112   1.142   2.259 -0.2540 -0.0343 -0.0834
 6192TIP3   OH218581   4.419   4.765   3.097 -0.1901  0.2366 -0.0550
 6192TIP3    H118582   4.338   4.731   3.058  0.5236  0.9322 -2.2772
 6192TIP3    H218583   4.459   4.688   3.139 -0.9632 -0.5858 -0.7860
 6193TIP3   OH218584   6.266   3.663   0.069  0.0274 -0.5033  0.1877
 6193TIP3    H118585   6.347   3.661   0.120 -0.4206  0.1997  0.9519
 6193TIP3    H218586   6.201   3.622   0.126 -0.3060 -0.4362 -0.1428
 6194TIP3   OH218587   0.430   1.231   3.519  0.1201  0.1171  0.1469
 6194TIP3    H118588   0.501   1.282   3.480 -1.1209  2.4746  0.7754
 6194TIP3    H218589   0.368   1.297   3.551 -1.7130 -1.8238  0.8232
 6195TIP3   OH218590   1.649   5.406   2.478 -0.2030 -0.1993 -0.1342
 6195TIP3    H118591   1.632   5.455   2.398  1.4706  1.0809  0.2475
 6195TIP3    H218592   1.590   5.444   2.543 -0.8959 -0.6105 -0.5121
 6196TIP3   OH218593   2.858   1.259   1.861 -0.2239  0.0161 -0.6105
 6196TIP3    H118594   2.871   1.320   1.934  1.0920 -0.1151 -0.7164
 6196TIP3    H218595   2.868   1.172   1.900 -1.3935 -0.1409 -0.6024
 6197TIP3   OH218596   4.388   2.697   3.879  0.3547  0.5351 -0.3361
 6197TIP3    H118597   4.303   2.684   3.921  0.5195 -1.1319 -0.4506
 6197TIP3    H218598   4.401   2.792   3.879  0.1289  0.6712  2.9121
 6198TIP3   OH218599   4.889   2.511   3.162  0.7734 -0.4434  0.1055
 6198TIP3    H118600   4.857   2.485   3.076 -0.2231  0.5744  0.1403
 6198TIP3    H218601   4.850   2.447   3.222  2.4187 -1.8707 -0.2838
 6199TIP3   OH218602   0.595   0.823   0.028  0.3404 -0.1855  0.3485
 6199TIP3    H118603   0.546   0.870  -0.039  0.4281  1.3092  1.2713
 6199TIP3    H218604   0.529   0.785   0.085  0.1150  2.1402  1.8092
 6200TIP3   OH218605   2.726   2.130  -0.014 -0.4221 -0.0475  0.5321
 6200TIP3    H118606   2.656   2.176   0.032 -1.7414 -2.1336  0.7481
 6200TIP3    H218607   2.797   2.124   0.051 -0.7525  0.4815  0.9511
 6201TIP3   OH218608   5.468   1.656   1.345 -0.2544  0.6421  0.2171
 6201TIP3    H118609   5.536   1.709   1.305 -0.6872  2.2193  1.5033
 6201TIP3    H218610   5.503   1.630   1.430  0.0564 -1.4128 -0.4839
 6202TIP3   OH218611   4.383   3.786   0.772 -0.2726 -0.2237 -0.2675
 6202TIP3    H118612   4.290   3.772   0.754 -0.5068 -0.8492  1.2787
 6202TIP3    H218613   4.400   3.736   0.852  1.2769  0.3034 -0.2318
 6203TIP3   OH218614   5.165   2.039   1.848 -0.4262  0.0179  0.4719
 6203TIP3    H118615   5.072   2.021   1.861 -0.3348 -0.1437  0.9153
 6203TIP3    H218616   5.169   2.130   1.818 -0.7530 -0.0964  0.0830
 6204TIP3   OH218617   3.778   3.830   2.668 -0.6040 -0.2052  0.2394
 6204TIP3    H118618   3.683   3.830   2.652 -0.4615 -1.0689 -0.7160
 6204TIP3    H218619   3.787   3.786   2.753 -1.1073  0.6732  0.7641
 6205TIP3   OH218620   2.773   0.321   3.787  0.4022  0.3408 -0.7819
 6205TIP3    H118621   2.740   0.235   3.759  2.9007 -0.7683 -0.5855
 6205TIP3    H218622   2.845   0.340   3.728 -0.3421  2.5507 -1.0625
 6206TIP3   OH218623   2.924   2.952   4.166 -0.4616 -0.1402  0.1848
 6206TIP3    H118624   2.934   3.030   4.112 -1.1247 -0.3681 -0.2849
 6206TIP3    H218625   2.973   2.971   4.246 -0.1589  0.5311 -0.1585
 6207TIP3   OH218626   0.782   4.923   2.768 -0.3861 -0.1320 -0.3189
 6207TIP3    H118627   0.811   4.880   2.687 -0.7556 -1.3076  0.1476
 6207TIP3    H218628   0.798   4.858   2.836 -1.4920  0.2716  0.3468
 6208TIP3   OH218629   5.478   4.442   3.820 -0.3387 -0.6992  0.5219
 6208TIP3    H118630   5.475   4.533   3.852 -0.0084 -0.9453  1.2780
 6208TIP3    H218631   5.536   4.397   3.882  0.8244 -1.0618 -0.7693
 6209TIP3   OH218632   0.092   5.037   2.997 -0.0302 -0.3985  0.5031
 6209TIP3    H118633   0.117   5.108   3.057  0.3506 -0.5162  0.4852
 6209TIP3    H218634   0.172   4.985   2.988  0.2484  0.2443 -0.9835
 6210TIP3   OH218635   4.215   3.911   2.223 -0.2692 -0.0789  0.6976
 6210TIP3    H118636   4.209   3.819   2.247  0.5512  0.2231  2.1799
 6210TIP3    H218637   4.267   3.951   2.292  0.4882  1.2670 -0.5829
 6211TIP3   OH218638   1.383   0.896   1.341  0.2863 -0.6192  0.4635
 6211TIP3    H118639   1.477   0.880   1.353  0.2399 -0.4097  1.1417
 6211TIP3    H218640   1.342   0.857   1.418 -0.4715 -3.2460 -1.1760
 6212TIP3   OH218641   5.865   5.582   5.003 -0.0011  0.0186 -0.8871
 6212TIP3    H118642   5.876   5.523   5.078  0.6341 -0.4468 -1.3404
 6212TIP3    H218643   5.950   5.623   4.992 -0.2889  0.6180 -0.9256
 6213TIP3   OH218644   5.913   0.946   0.229 -0.5228  0.0842  0.2647
 6213TIP3    H118645   5.968   0.868   0.237  0.0629  0.5664  0.9520
 6213TIP3    H218646   5.966   1.009   0.180 -0.1965  0.7866  1.4990
 6214TIP3   OH218647   1.045   4.569   3.644 -0.6676 -0.5017 -0.4057
 6214TIP3    H118648   1.102   4.493   3.653 -1.0302 -0.7706 -0.3596
 6214TIP3    H218649   1.073   4.610   3.562  0.1006 -0.1926 -0.0007
 6215TIP3   OH218650   5.998   0.977   2.006 -0.0088  0.4068  0.4212
 6215TIP3    H118651   6.069   0.920   1.975 -1.4248 -0.7930 -0.7573
 6215TIP3    H218652   6.037   1.027   2.077  1.7026 -1.0426  0.5712
 6216TIP3   OH218653   1.041   1.110   3.494 -0.3295  0.4863  0.0267
 6216TIP3    H118654   1.014   1.162   3.569  1.2828 -0.6422  1.4624
 6216TIP3    H218655   1.112   1.160   3.454  1.7410 -0.8063  1.8508
 6217TIP3   OH218656   2.051   5.232   0.735  0.1487  0.5586  0.9045
 6217TIP3    H118657   2.013   5.209   0.820 -2.1253 -1.5342 -0.5544
 6217TIP3    H218658   1.976   5.249   0.679  1.5488  0.7518 -0.9980
 6218TIP3   OH218659   0.386   3.460   0.585 -0.3736 -0.1587  0.2703
 6218TIP3    H118660   0.348   3.469   0.498  0.2346  0.3815  0.0503
 6218TIP3    H218661   0.448   3.533   0.592  1.2120 -1.4369  0.2982
 6219TIP3   OH218662   1.993   3.025   0.625 -0.2377 -0.4398 -0.0822
 6219TIP3    H118663   2.082   3.058   0.620 -0.0743 -0.0740  3.2866
 6219TIP3    H218664   1.998   2.950   0.684 -2.2401  0.0894  0.8565
 6220TIP3   OH218665   5.652   4.895   2.238  0.1994 -0.1960  0.2756
 6220TIP3    H118666   5.660   4.818   2.294 -0.6044  0.2129  0.9768
 6220TIP3    H218667   5.578   4.876   2.180 -1.2475  0.7824  1.7215
 6221TIP3   OH218668   5.940   2.625   1.075  0.0402 -0.4007 -0.0937
 6221TIP3    H118669   6.026   2.668   1.071 -0.8464  1.4122 -0.3203
 6221TIP3    H218670   5.910   2.622   0.984 -1.2861  1.4547  0.2416
 6222TIP3   OH218671   1.974   0.010   4.725  0.2982 -0.3698  0.7466
 6222TIP3    H118672   1.950   0.039   4.637  1.0684 -1.8073  0.0192
 6222TIP3    H218673   2.070   0.017   4.727  0.2576  0.0360  1.6235
 6223TIP3   OH218674   2.618   3.772   2.697  0.2443  0.0315 -0.0455
 6223TIP3    H118675   2.668   3.694   2.675  0.0397  0.0769 -0.6971
 6223TIP3    H218676   2.567   3.791   2.618 -0.1316  0.4958  0.3024
 6224TIP3   OH218677   3.992   1.656   1.069 -0.4796 -0.0385 -0.0009
 6224TIP3    H118678   3.925   1.684   1.006 -0.2243  1.0030  0.1630
 6224TIP3    H218679   3.945   1.648   1.152 -0.7418 -1.0434 -0.2376
 6225TIP3   OH218680   0.956   0.729   1.390 -0.1907 -0.1547 -0.1683
 6225TIP3    H118681   0.928   0.638   1.395  2.0057 -0.9085 -0.3511
 6225TIP3    H218682   0.957   0.749   1.296  3.0331 -1.3209 -0.5278
 6226TIP3   OH218683   5.241   0.693   1.992 -0.0464  0.2160 -0.3006
 6226TIP3    H118684   5.260   0.607   1.954  2.2292  0.8551 -0.7424
 6226TIP3    H218685   5.258   0.755   1.921 -0.8766  1.1091  0.2511
 6227TIP3   OH218686   4.082   5.014   4.904 -0.6101  0.1613 -0.4851
 6227TIP3    H118687   4.169   5.015   4.944  0.5610  3.1507 -2.6483
 6227TIP3    H218688   4.021   5.020   4.978  1.3124  3.1451  1.0807
 6228TIP3   OH218689   6.178   4.748   2.745  0.4641  0.5820 -0.6094
 6228TIP3    H118690   6.193   4.798   2.825 -0.8184  1.2522 -0.7644
 6228TIP3    H218691   6.155   4.660   2.775 -0.9153  1.0683 -0.1817
 6229TIP3   OH218692   0.376   5.165   5.007  0.3332  0.0167 -0.0248
 6229TIP3    H118693   0.439   5.202   5.069  0.2216 -0.4256  0.3549
 6229TIP3    H218694   0.427   5.146   4.929  0.4968  0.4798 -0.0373
 6230TIP3   OH218695   0.607   2.662   3.195 -0.1649 -0.0396  0.2015
 6230TIP3    H118696   0.542   2.617   3.141 -2.2819 -0.5739  2.9489
 6230TIP3    H218697   0.641   2.594   3.253  1.6569  0.6067 -0.0339
 6231TIP3   OH218698   3.246   5.053   1.719  0.7407 -0.6886  0.3857
 6231TIP3    H118699   3.206   5.104   1.649 -0.7464  0.5600  2.0588
 6231TIP3    H218700   3.224   4.962   1.697  0.1652 -0.3201 -0.6628
 6232TIP3   OH218701   3.300   4.150   0.818 -0.2750  0.2398 -0.0113
 6232TIP3    H118702   3.286   4.241   0.792 -1.5894 -0.2580 -1.1297
 6232TIP3    H218703   3.334   4.108   0.739 -1.3334 -0.6132 -0.0311
 6233TIP3   OH218704   0.417   2.753   2.407  0.0821  0.0427 -0.2674
 6233TIP3    H118705   0.393   2.786   2.494 -1.0209 -0.6062 -0.3050
 6233TIP3    H218706   0.484   2.814   2.376 -1.5302  1.9845 -0.1440
 6234TIP3   OH218707   6.191   2.380   3.169  0.3355  0.1037 -0.5506
 6234TIP3    H118708   6.254   2.413   3.105 -0.0584 -0.7728 -1.4216
 6234TIP3    H218709   6.126   2.449   3.176 -0.7535 -0.6039 -2.7306
 6235TIP3   OH218710   3.512   0.260   3.790  0.0525 -0.1760  0.5608
 6235TIP3    H118711   3.496   0.277   3.883 -0.6423  1.7064  0.1480
 6235TIP3    H218712   3.484   0.169   3.777 -0.8453 -0.1325  1.9761
 6236TIP3   OH218713   3.804   5.514   0.691 -0.1269 -0.0599 -0.3412
 6236TIP3    H118714   3.821   5.578   0.622 -0.9461 -0.1701 -0.6627
 6236TIP3    H218715   3.835   5.556   0.771  0.1617  0.3719 -0.6749
 6237TIP3   OH218716   5.769   4.925   1.243  0.0081  0.1934 -0.1151
 6237TIP3    H118717   5.784   4.877   1.325 -1.3540 -2.4181 -1.2934
 6237TIP3    H218718   5.698   4.986   1.264 -0.3575 -0.4720  0.6419
 6238TIP3   OH218719   3.247   5.053   4.158  0.3013 -0.0191  0.0516
 6238TIP3    H118720   3.315   5.119   4.171  0.6827 -0.6726  1.6515
 6238TIP3    H218721   3.277   5.001   4.084 -0.6308  2.3242 -2.1085
 6239TIP3   OH218722   5.540   0.292   0.914 -0.5257  0.0123 -0.2438
 6239TIP3    H118723   5.555   0.256   1.001 -1.0781  0.6919  0.1411
 6239TIP3    H218724   5.485   0.369   0.929 -0.9137 -0.0587 -1.2249
 6240TIP3   OH218725   1.247   0.009   4.212  0.2234 -0.0299  0.2048
 6240TIP3    H118726   1.288   0.013   4.125  0.0064  1.1947  0.1469
 6240TIP3    H218727   1.256   0.098   4.247 -1.6878  0.0754  0.5103
 6241TIP3   OH218728   4.238   1.316   2.533 -0.5511 -0.5172 -0.1703
 6241TIP3    H118729   4.290   1.250   2.487  0.0454 -0.7805  0.8384
 6241TIP3    H218730   4.152   1.275   2.544 -0.9663 -0.1227 -1.7502
 6242TIP3   OH218731   5.674   0.248   4.060 -0.1820  0.0618  0.4003
 6242TIP3    H118732   5.747   0.299   4.094 -0.3034  1.2177 -0.9371
 6242TIP3    H218733   5.697   0.157   4.078  2.6057  0.1966 -1.6966
 6243TIP3   OH218734   4.035   4.740   5.014  0.4077  0.5649 -0.4622
 6243TIP3    H118735   3.948   4.701   5.024  0.0833  0.4867 -2.9743
 6243TIP3    H218736   4.046   4.793   5.093 -1.1582 -0.8037  0.7483
 6244TIP3   OH218737   0.205   5.482   3.454 -0.2189  0.3669 -0.2834
 6244TIP3    H118738   0.229   5.534   3.377 -0.0132  0.5317 -0.1090
 6244TIP3    H218739   0.115   5.506   3.473  0.3138  1.7661  0.6708
 6245TIP3   OH218740   2.002   5.328   3.178 -0.8040 -0.7968  0.3047
 6245TIP3    H118741   1.946   5.399   3.147 -0.7594 -0.8858  0.0193
 6245TIP3    H218742   1.941   5.257   3.198 -0.6637 -1.7463 -2.2325
 6246TIP3   OH218743   0.962   3.706   3.482 -0.0855  0.7463  0.7544
 6246TIP3    H118744   0.942   3.617   3.453  1.5362  0.4371  0.4416
 6246TIP3    H218745   0.881   3.755   3.470 -1.0312 -0.7049  1.0085
 6247TIP3   OH218746   5.038   3.244   1.570 -0.3042 -0.1570  0.0716
 6247TIP3    H118747   5.112   3.240   1.630 -0.0935 -0.2396 -0.1918
 6247TIP3    H218748   5.030   3.154   1.536 -0.6279 -0.1886  0.2220
 6248TIP3   OH218749   4.059   4.128   0.044  0.1344  0.1040  0.2345
 6248TIP3    H118750   4.130   4.079   0.003  0.0383 -0.5821  0.8681
 6248TIP3    H218751   4.039   4.197  -0.019 -1.3926 -2.0877 -1.8832
 6249TIP3   OH218752   0.377   2.388   3.646 -0.1025 -0.3532  0.0802
 6249TIP3    H118753   0.301   2.428   3.603 -0.5533  1.4532  2.3603
 6249TIP3    H218754   0.407   2.321   3.584 -1.8604  0.7429 -2.1101
 6250TIP3   OH218755   1.201   3.618   5.181 -0.0103 -0.1126  0.0356
 6250TIP3    H118756   1.174   3.605   5.090 -1.0877  0.1972  0.2947
 6250TIP3    H218757   1.227   3.531   5.211 -1.5609 -0.6271  0.0097
 6251TIP3   OH218758   4.071   1.071   2.200 -0.1048 -0.5733 -0.5411
 6251TIP3    H118759   4.120   0.989   2.208  0.9068 -0.0046 -0.8082
 6251TIP3    H218760   4.112   1.130   2.263 -2.0156 -0.7980  1.0248
 6252TIP3   OH218761   4.537   2.367   2.310 -0.4615  0.3495 -0.3204
 6252TIP3    H118762   4.541   2.462   2.324  2.1173  0.7461 -2.7853
 6252TIP3    H218763   4.610   2.334   2.362 -1.8029 -0.4647  1.1278
 6253TIP3   OH218764   1.457   5.429   1.567  0.5205 -0.6431  0.7355
 6253TIP3    H118765   1.458   5.480   1.486 -1.1761  1.4348  1.9167
 6253TIP3    H218766   1.364   5.424   1.591  1.0029 -0.9576  2.6796
 6254TIP3   OH218767   2.597   5.736   3.808 -0.3621 -0.4227 -0.2140
 6254TIP3    H118768   2.570   5.826   3.789 -1.6307 -0.9247 -0.9056
 6254TIP3    H218769   2.678   5.745   3.858 -0.5813  1.1057 -0.1014
 6255TIP3   OH218770   5.592   2.096   4.483  0.1672  0.1751 -0.0885
 6255TIP3    H118771   5.587   2.020   4.540  0.1583  0.4014  0.2155
 6255TIP3    H218772   5.538   2.073   4.407  0.3557 -0.2101 -0.1050
 6256TIP3   OH218773   3.588   3.573   1.322 -0.4622 -0.0611  0.0750
 6256TIP3    H118774   3.513   3.520   1.350  0.1648  0.1243  2.3901
 6256TIP3    H218775   3.664   3.517   1.339  0.0608  0.6970  0.2725
 6257TIP3   OH218776   0.237   0.527   1.437 -0.2649  0.1254  0.4209
 6257TIP3    H118777   0.246   0.564   1.525  0.7435  1.4828 -0.2043
 6257TIP3    H218778   0.314   0.472   1.426  0.2138  0.8685 -0.0103
 6258TIP3   OH218779   4.633   5.096   0.121 -0.5554  0.2535  0.3978
 6258TIP3    H118780   4.688   5.056   0.054 -0.5630 -0.1004  0.6006
 6258TIP3    H218781   4.596   5.022   0.169  2.0197  0.4422  2.9203
 6259TIP3   OH218782   0.940   2.114   4.378  0.3615  0.0688  0.0221
 6259TIP3    H118783   0.854   2.157   4.379  0.8951  1.2333 -1.1363
 6259TIP3    H218784   0.999   2.179   4.414  1.2144  0.4259 -1.8978
 6260TIP3   OH218785   1.360   0.414   0.785 -0.1275 -0.0941 -0.0128
 6260TIP3    H118786   1.366   0.507   0.765  2.2474 -0.7045 -2.8492
 6260TIP3    H218787   1.440   0.395   0.835  0.2257 -0.8617 -0.8424
 6261TIP3   OH218788   0.075   3.707   3.995  0.2318  0.0790 -1.0254
 6261TIP3    H118789   0.015   3.778   3.975 -0.8553 -0.7701 -0.8814
 6261TIP3    H218790   0.132   3.742   4.063 -0.2263  0.8394 -1.0203
 6262TIP3   OH218791   5.213   1.144   1.280 -0.1435  0.3152  0.2692
 6262TIP3    H118792   5.280   1.101   1.333  0.0116  1.6166  1.1620
 6262TIP3    H218793   5.130   1.119   1.321 -0.1221  0.0004  0.1255
 6263TIP3   OH218794   4.866   1.324   1.745  0.2702  0.3303  0.4199
 6263TIP3    H118795   4.920   1.323   1.824  1.2120 -2.5506 -0.1574
 6263TIP3    H218796   4.923   1.293   1.675 -1.7360 -1.7375 -0.4409
 6264TIP3   OH218797   4.601   4.607   4.599  0.4725  0.6384  0.9046
 6264TIP3    H118798   4.518   4.631   4.557  1.2767  2.5945  0.3139
 6264TIP3    H218799   4.595   4.512   4.612 -0.8790  0.3510 -1.2912
 6265TIP3   OH218800   4.314   1.887   2.876 -0.5608 -0.7423  0.1595
 6265TIP3    H118801   4.410   1.894   2.874 -0.6577  0.9415 -0.3932
 6265TIP3    H218802   4.285   1.971   2.912 -1.8169 -1.4592  0.8636
 6266TIP3   OH218803   0.769   4.068   1.041  0.5548 -0.7965 -0.2384
 6266TIP3    H118804   0.841   4.092   0.984 -0.1406 -0.4125 -0.9669
 6266TIP3    H218805   0.811   4.025   1.116  1.4469 -1.8076 -1.2790
 6267TIP3   OH218806   6.253   4.612   1.058 -0.0179  0.1773 -0.5009
 6267TIP3    H118807   6.347   4.598   1.071 -0.6705 -2.1996  3.0354
 6267TIP3    H218808   6.235   4.695   1.102  0.2589  0.0754 -0.1900
 6268TIP3   OH218809   2.430   0.571   4.209  0.4161 -0.5456 -0.6295
 6268TIP3    H118810   2.444   0.567   4.114  1.2469 -0.4506 -0.5254
 6268TIP3    H218811   2.502   0.626   4.241  0.5625 -1.1612  0.1331
 6269TIP3   OH218812   0.723   2.878   0.308  0.3933  0.0618 -0.0819
 6269TIP3    H118813   0.719   2.964   0.266 -1.1299 -0.7578 -1.7354
 6269TIP3    H218814   0.814   2.869   0.335  1.0619  1.3446 -1.7434
 6270TIP3   OH218815   0.311   2.956   0.137  0.2928 -0.6587  0.1957
 6270TIP3    H118816   0.262   2.962   0.054  0.6260  0.6000  0.0616
 6270TIP3    H218817   0.391   3.006   0.121  1.3003 -2.0678  0.6591
 6271TIP3   OH218818   3.500   0.099   5.022 -0.0734  0.6235  0.1443
 6271TIP3    H118819   3.594   0.109   5.009  0.0206 -0.5162 -0.1770
 6271TIP3    H218820   3.471   0.046   4.948 -0.5309 -1.1241  1.4946
 6272TIP3   OH218821   0.634   3.120   0.541 -0.4458  0.1899  0.6370
 6272TIP3    H118822   0.545   3.118   0.507 -0.0338 -0.0952 -0.4787
 6272TIP3    H218823   0.689   3.098   0.466  0.5243 -0.2564  1.4453
 6273TIP3   OH218824   6.090   0.311   4.578  0.3201 -0.1289 -0.2089
 6273TIP3    H118825   6.117   0.374   4.645 -0.4580  0.1743 -0.1679
 6273TIP3    H218826   6.096   0.226   4.621 -2.4440  0.2258  1.0743
 6274TIP3   OH218827   0.645   1.910   4.417 -0.1016  0.5955  0.1466
 6274TIP3    H118828   0.615   1.826   4.451 -1.7583  0.4156 -1.6166
 6274TIP3    H218829   0.723   1.889   4.366 -0.3372  0.1868 -0.0461
 6275TIP3   OH218830   5.667   5.417   2.230  0.2810  0.4581 -0.1122
 6275TIP3    H118831   5.605   5.352   2.264  0.5063 -0.6077 -1.6243
 6275TIP3    H218832   5.701   5.461   2.307 -0.3632 -0.7903  0.9237
 6276TIP3   OH218833   6.251   2.989   4.190  0.7840  0.3214 -0.0936
 6276TIP3    H118834   6.225   3.072   4.150  1.4385  1.3661  1.5514
 6276TIP3    H218835   6.337   3.007   4.228  0.3376 -0.6947  1.4718
 6277TIP3   OH218836   0.292   5.583   4.101 -0.1848 -0.4220  0.7574
 6277TIP3    H118837   0.198   5.574   4.084 -0.3929  0.2346  1.4956
 6277TIP3    H218838   0.323   5.642   4.032  0.0310 -1.9324 -0.4958
 6278TIP3   OH218839   5.157   4.894   1.330  0.5391  0.0712  0.0554
 6278TIP3    H118840   5.246   4.859   1.329  0.5737  0.1051 -1.9272
 6278TIP3    H218841   5.164   4.980   1.290 -0.7197 -1.0225 -2.7722
 6279TIP3   OH218842   0.689   3.219   3.418 -0.5605 -0.2890  0.4823
 6279TIP3    H118843   0.600   3.183   3.410 -1.1061  1.0402  0.2939
 6279TIP3    H218844   0.745   3.142   3.425 -1.5524 -1.2111 -1.0614
 6280TIP3   OH218845   4.828   5.827   3.501 -0.4365  0.0072 -0.5422
 6280TIP3    H118846   4.818   5.921   3.487 -1.3310 -0.3682 -2.9039
 6280TIP3    H218847   4.738   5.793   3.499 -0.0828 -0.9692 -0.2780
 6281TIP3   OH218848   0.393   0.237   0.677 -0.5432 -0.2099 -0.5108
 6281TIP3    H118849   0.408   0.248   0.583  0.5374  1.4042 -0.1757
 6281TIP3    H218850   0.469   0.188   0.708 -1.1320 -1.1663 -0.5298
 6282TIP3   OH218851   3.860   2.440   2.038  0.9272  0.2505 -0.4276
 6282TIP3    H118852   3.793   2.404   1.980  0.3610  0.7408 -0.0849
 6282TIP3    H218853   3.940   2.395   2.013  0.3870 -0.6725 -0.5474
 6283TIP3   OH218854   1.316   5.196   0.197  0.3344  0.2423 -0.3111
 6283TIP3    H118855   1.409   5.207   0.178  0.4474 -0.0485  0.0783
 6283TIP3    H218856   1.276   5.277   0.166  0.5781 -0.0313 -1.3849
 6284TIP3   OH218857   3.698   1.604   4.202  0.0157  0.1282  0.5441
 6284TIP3    H118858   3.696   1.567   4.114 -2.0439 -0.0352  0.6083
 6284TIP3    H218859   3.720   1.696   4.189  0.4912 -0.0687 -0.0640
 6285TIP3   OH218860   2.304   0.381   5.051  0.5653  0.5243 -0.1211
 6285TIP3    H118861   2.387   0.335   5.061  0.1228 -0.2031  0.2924
 6285TIP3    H218862   2.320   0.468   5.088  2.0103  1.4759 -2.7341
 6286TIP3   OH218863   5.949   4.554   1.377 -0.0215  0.2143 -0.0039
 6286TIP3    H118864   6.021   4.613   1.395 -0.6356  1.2631 -0.8396
 6286TIP3    H218865   5.961   4.527   1.286  0.6756 -1.5958  0.5809
 6287TIP3   OH218866   5.018   4.274   0.065  0.1547  0.2105  0.7491
 6287TIP3    H118867   4.926   4.275   0.040  0.4026 -0.6199 -0.2529
 6287TIP3    H218868   5.035   4.363   0.096 -0.2071  1.3488 -2.0242
 6288TIP3   OH218869   5.853   1.851   1.584  0.3172  0.8535  0.1563
 6288TIP3    H118870   5.924   1.787   1.587  0.1146  0.6298  0.1856
 6288TIP3    H218871   5.895   1.932   1.555  0.4115  0.4860 -0.7732
 6289TIP3   OH218872   1.090   2.398   2.394  0.1111  0.3385 -0.4649
 6289TIP3    H118873   1.064   2.317   2.438 -0.1378  1.9573  2.6449
 6289TIP3    H218874   1.183   2.386   2.373  0.1559 -0.6346  0.2485
 6290TIP3   OH218875   2.407   3.281   0.794  0.6508 -0.8219 -0.7639
 6290TIP3    H118876   2.315   3.272   0.769  0.2949 -0.2464  0.2697
 6290TIP3    H218877   2.404   3.302   0.888  1.8278 -0.5704 -0.7695
 6291TIP3   OH218878   0.425   1.545   1.889 -0.0547 -0.1914  0.4676
 6291TIP3    H118879   0.505   1.552   1.836  0.4474 -2.4842  0.8036
 6291TIP3    H218880   0.422   1.626   1.939  3.7619 -1.1797  2.6917
 6292TIP3   OH218881   0.986   0.975   0.027 -0.2190 -0.7929 -0.3851
 6292TIP3    H118882   1.082   0.980   0.021 -0.2913 -1.0730 -2.3026
 6292TIP3    H218883   0.956   1.048  -0.027 -1.1227  0.2384  1.4249
 6293TIP3   OH218884   2.243   3.576   3.257 -0.3062  0.0110 -0.5579
 6293TIP3    H118885   2.227   3.547   3.347 -0.5540  0.1245 -0.5652
 6293TIP3    H218886   2.331   3.544   3.237 -0.6512 -0.9256 -0.6368
 6294TIP3   OH218887   2.965   4.964   2.511  0.7742  0.0869  0.2683
 6294TIP3    H118888   2.967   4.942   2.418 -1.3760 -2.3594  0.6668
 6294TIP3    H218889   3.056   4.985   2.533  1.5776 -0.6102 -2.0854
 6295TIP3   OH218890   0.425   0.391   1.152  0.0952 -0.3345  0.4148
 6295TIP3    H118891   0.338   0.389   1.111  0.4486  4.5099 -1.1328
 6295TIP3    H218892   0.486   0.373   1.080  0.4776  0.9216  0.4023
 6296TIP3   OH218893   3.327   3.653   4.316 -0.0341  0.1828 -0.3657
 6296TIP3    H118894   3.411   3.675   4.275 -0.4119 -2.8756 -3.2608
 6296TIP3    H218895   3.344   3.571   4.362 -0.3980  2.0489  3.4177
 6297TIP3   OH218896   4.120   1.664   4.426  0.3016 -0.0086  0.8644
 6297TIP3    H118897   4.184   1.721   4.382 -2.0260  0.2904 -2.5400
 6297TIP3    H218898   4.094   1.712   4.504  1.7769  1.4057  0.5469
 6298TIP3   OH218899   1.772   3.910   0.811  0.4776 -0.5746 -0.0394
 6298TIP3    H118900   1.779   3.860   0.893  0.2660  1.2828  1.1864
 6298TIP3    H218901   1.857   3.900   0.770  0.7996 -1.0554  0.7098
 6299TIP3   OH218902   2.048   4.097   4.678 -0.0656  0.2218  0.0619
 6299TIP3    H118903   2.009   4.044   4.747  0.1120  0.8497  0.6537
 6299TIP3    H218904   1.983   4.164   4.660  0.2236  0.5352  0.1818
 6300TIP3   OH218905   5.773   4.001   4.863 -0.8074  0.2512 -0.6326
 6300TIP3    H118906   5.836   4.067   4.892 -1.4765  1.4172 -1.7174
 6300TIP3    H218907   5.704   4.004   4.929 -0.0044 -0.6471  0.2688
 6301TIP3   OH218908   5.860   4.975   4.783  0.2406  0.1490 -0.9228
 6301TIP3    H118909   5.809   4.988   4.703  1.3902 -0.4011 -1.7744
 6301TIP3    H218910   5.946   4.946   4.752  0.7707  0.1212  0.5109
 6302TIP3   OH218911   5.530   3.245   0.031 -0.7484 -0.2447 -0.8175
 6302TIP3    H118912   5.539   3.340   0.026  2.5898 -0.4286 -0.3338
 6302TIP3    H218913   5.575   3.212  -0.047  1.3894 -1.4365  0.7850
 6303TIP3   OH218914   4.432   1.709   3.134  0.6063  0.5426  0.2445
 6303TIP3    H118915   4.468   1.707   3.045  0.0346 -0.5008  0.0235
 6303TIP3    H218916   4.503   1.675   3.189 -0.2540 -2.4661 -0.3069
 6304TIP3   OH218917   3.311   2.163   1.976 -0.0990  0.1434  0.3238
 6304TIP3    H118918   3.278   2.078   2.007  1.9722 -0.7547  0.2631
 6304TIP3    H218919   3.357   2.199   2.052 -2.1104  1.9066  0.7767
 6305TIP3   OH218920   2.964   0.701   3.040  0.2835  0.5039 -0.2164
 6305TIP3    H118921   2.934   0.626   2.990 -1.2295 -0.3001  1.7558
 6305TIP3    H218922   3.036   0.667   3.094 -1.2014  0.0303  1.5973
 6306TIP3   OH218923   3.100   5.348   1.143 -0.3438 -0.1280  0.4608
 6306TIP3    H118924   3.108   5.442   1.130  0.3503 -0.0633  1.2811
 6306TIP3    H218925   3.031   5.338   1.208 -0.9836 -0.2437 -0.2147
 6307TIP3   OH218926   3.501   1.836   0.775 -0.5025 -0.3317 -0.1425
 6307TIP3    H118927   3.531   1.906   0.716 -0.2735 -0.1188  0.2165
 6307TIP3    H218928   3.502   1.877   0.862  0.2752 -0.9727  0.1656
 6308TIP3   OH218929   1.314   1.618   3.972  0.2426  0.6664 -0.0687
 6308TIP3    H118930   1.253   1.660   4.032  0.3970  0.3892  0.2832
 6308TIP3    H218931   1.397   1.663   3.986  0.8130 -0.7837  1.4564
 6309TIP3   OH218932   5.092   2.837   2.310  0.1862  0.5147  0.4403
 6309TIP3    H118933   5.045   2.870   2.233  0.7957  1.0071  0.2743
 6309TIP3    H218934   5.058   2.887   2.383 -0.4809 -0.0360  0.5170
 6310TIP3   OH218935   5.389   2.020   4.777 -0.2157  0.1084  0.2989
 6310TIP3    H118936   5.452   1.977   4.835  2.1720  1.8096 -0.8500
 6310TIP3    H218937   5.389   2.112   4.806 -2.1051  0.2046  0.1332
 6311TIP3   OH218938   6.075   5.890   5.124  0.0840 -0.4255  0.1486
 6311TIP3    H118939   6.001   5.877   5.183 -2.2362 -0.1052 -2.4617
 6311TIP3    H218940   6.079   5.809   5.072  2.5444 -1.0157  1.1052
 6312TIP3   OH218941   1.756   4.516   3.483  0.0366 -0.5648  0.0578
 6312TIP3    H118942   1.808   4.577   3.535 -1.7338  1.7689 -0.7278
 6312TIP3    H218943   1.804   4.434   3.487  1.7047  0.4114  2.5533
 6313TIP3   OH218944   6.082   3.764   4.304 -0.2298  0.0727 -0.2629
 6313TIP3    H118945   6.041   3.850   4.306  1.7287  1.0590  1.0161
 6313TIP3    H218946   6.173   3.782   4.281  0.7390 -1.3850  2.0704
 6314TIP3   OH218947   5.239   0.441   0.335  0.0210  0.8499  0.3916
 6314TIP3    H118948   5.267   0.520   0.381 -2.2323  2.1941 -0.3749
 6314TIP3    H218949   5.155   0.465   0.295 -0.5162 -1.7949 -0.2759
 6315TIP3   OH218950   3.424   4.756   2.761  0.1758 -0.0744  0.4177
 6315TIP3    H118951   3.331   4.734   2.755  0.2974 -0.7657  0.9216
 6315TIP3    H218952   3.466   4.675   2.789  0.6519  0.7586  2.3324
 6316TIP3   OH218953   0.958   4.988   4.553 -0.3957  0.3434 -0.7178
 6316TIP3    H118954   0.975   5.069   4.506  0.8418 -0.0535 -0.9970
 6316TIP3    H218955   1.024   4.986   4.622 -0.7270 -0.1986 -0.4047
 6317TIP3   OH218956   0.171   5.719   4.505 -0.2789  0.0241  0.3306
 6317TIP3    H118957   0.256   5.746   4.541  0.3942  1.0252 -1.8419
 6317TIP3    H218958   0.142   5.794   4.453 -1.6277 -0.9756 -0.4351
 6318TIP3   OH218959   5.683   2.297   4.841  0.1141 -0.1481 -0.4579
 6318TIP3    H118960   5.593   2.314   4.814  0.2030 -1.0152 -1.3393
 6318TIP3    H218961   5.732   2.289   4.759  0.4433 -2.5658 -0.1033
 6319TIP3   OH218962   4.596   0.364   3.466  0.2762 -0.3930  0.4383
 6319TIP3    H118963   4.571   0.280   3.503  1.3018 -0.9957 -0.2144
 6319TIP3    H218964   4.537   0.376   3.391 -0.9506  0.2435  1.4644
 6320TIP3   OH218965   6.200   3.033   2.179  0.1956 -0.1549 -0.0484
 6320TIP3    H118966   6.214   3.117   2.134  1.5073 -0.1536  0.3212
 6320TIP3    H218967   6.106   3.032   2.199  0.1316  1.1746 -0.1657
 6321TIP3   OH218968   4.841   0.835   4.916 -0.1764  0.0960 -0.9259
 6321TIP3    H118969   4.824   0.796   4.830 -0.3858  3.8750 -2.7784
 6321TIP3    H218970   4.936   0.842   4.921 -0.1237 -0.8712 -0.4564
 6322TIP3   OH218971   3.678   5.871   2.031  0.9946  0.2059  0.0986
 6322TIP3    H118972   3.637   5.804   1.977  1.0650  1.0280 -1.0011
 6322TIP3    H218973   3.606   5.930   2.055  0.9566 -0.1642  0.9564
 6323TIP3   OH218974   5.542   0.813   2.151  0.7756 -0.5623  0.7948
 6323TIP3    H118975   5.545   0.871   2.075  0.1940 -0.5599  0.7728
 6323TIP3    H218976   5.546   0.872   2.226 -1.8529 -0.3030  0.8159
 6324TIP3   OH218977   5.395   5.648   0.209 -0.2643  0.5215 -0.0031
 6324TIP3    H118978   5.428   5.720   0.155 -0.9443 -0.1117 -1.3214
 6324TIP3    H218979   5.299   5.655   0.201 -0.3749  0.3780  1.0968
 6325TIP3   OH218980   0.251   0.247   4.537 -0.0692  0.6468 -0.0504
 6325TIP3    H118981   0.204   0.315   4.585  0.2112  0.1419  0.9800
 6325TIP3    H218982   0.304   0.294   4.474  0.7392  1.4579  1.1925
 6326TIP3   OH218983   0.707   2.854   1.598  0.0972 -0.5434 -0.6352
 6326TIP3    H118984   0.730   2.843   1.506  0.4114 -1.2805 -0.4781
 6326TIP3    H218985   0.784   2.894   1.638 -0.6667  1.3820 -1.0064
 6327TIP3   OH218986   1.835   2.313   1.735  0.6859 -0.1879  0.2060
 6327TIP3    H118987   1.775   2.347   1.801 -2.3245 -1.4262 -1.7078
 6327TIP3    H218988   1.901   2.266   1.785 -0.4381  0.4423  2.3907
 6328TIP3   OH218989   1.769   4.021   1.558 -0.1537  0.1645 -0.6934
 6328TIP3    H118990   1.745   4.061   1.474  1.8025 -0.9891 -1.8821
 6328TIP3    H218991   1.685   3.994   1.596 -1.1382  1.2075 -2.0021
 6329TIP3   OH218992   4.937   0.384   1.916  0.2048  0.1665  0.1651
 6329TIP3    H118993   5.027   0.356   1.901 -0.1242 -0.7060 -0.2278
 6329TIP3    H218994   4.897   0.384   1.829 -0.3829 -0.1830  0.4299
 6330TIP3   OH218995   3.603   0.010   2.992  0.6464 -0.1908 -0.4293
 6330TIP3    H118996   3.683   0.028   2.942 -0.5288  0.0072 -2.3425
 6330TIP3    H218997   3.555   0.093   2.992 -0.5336 -0.8420 -1.2090
 6331TIP3   OH218998   3.384   4.238   2.824  0.0893 -0.5884 -0.5417
 6331TIP3    H118999   3.395   4.163   2.883 -1.1445 -0.5284 -0.2118
 6331TIP3    H219000   3.297   4.272   2.845  0.9063  1.3766 -0.1889
 6332TIP3   OH219001   3.207   2.930   4.033 -0.1872  0.4372 -0.1120
 6332TIP3    H119002   3.179   2.946   4.124  0.6429 -1.8154  0.5980
 6332TIP3    H219003   3.289   2.978   4.025 -0.0192  0.2665  0.4971
 6333TIP3   OH219004   6.326   4.271   2.014  0.0556  0.1584  0.1609
 6333TIP3    H119005   6.274   4.288   2.092 -1.6182 -0.2451 -0.8060
 6333TIP3    H219006   6.415   4.298   2.037 -0.6535  1.2643  1.7487
 6334TIP3   OH219007   3.783   5.382   4.172 -0.2575 -0.5052  0.4981
 6334TIP3    H119008   3.733   5.402   4.252  1.2923  1.0262  1.1445
 6334TIP3    H219009   3.816   5.467   4.143  0.7717 -1.2921 -0.7084
 6335TIP3   OH219010   0.099   2.776   3.090  0.2877  0.6539 -0.0460
 6335TIP3    H119011   0.094   2.866   3.058 -2.7974  0.8881  0.7430
 6335TIP3    H219012   0.129   2.784   3.181 -0.3809  0.9388  0.1525
 6336TIP3   OH219013   6.098   2.385   3.427  0.1165  0.1202 -0.0349
 6336TIP3    H119014   6.161   2.368   3.357  0.6044  0.5131  0.3066
 6336TIP3    H219015   6.133   2.339   3.503 -0.5814 -0.5825 -0.1152
 6337TIP3   OH219016   0.787   3.628   2.771 -0.3155 -0.1882  0.6320
 6337TIP3    H119017   0.866   3.657   2.725 -1.3609  1.6472 -0.1420
 6337TIP3    H219018   0.717   3.683   2.735 -1.5545 -0.0666  3.0162
 6338TIP3   OH219019   5.203   2.975   0.430  0.3654 -0.5259 -0.1757
 6338TIP3    H119020   5.209   2.990   0.524 -0.0008 -0.4454 -0.1659
 6338TIP3    H219021   5.292   2.951   0.404  0.4029 -0.8291  0.2381
 6339TIP3   OH219022   6.142   1.008   2.812 -0.3575  0.4400  0.4873
 6339TIP3    H119023   6.173   1.046   2.894 -1.2664  1.0372  0.5704
 6339TIP3    H219024   6.188   1.056   2.744  0.6930 -0.3164  0.6359
 6340TIP3   OH219025   5.701   4.414   2.917  0.1413 -0.7361 -0.2784
 6340TIP3    H119026   5.756   4.483   2.879 -0.0486  0.4218  1.4114
 6340TIP3    H219027   5.615   4.427   2.879  0.2480 -0.4259 -0.4140
 6341TIP3   OH219028   2.120   5.056   2.309  0.1969 -0.0766  0.3615
 6341TIP3    H119029   2.047   5.075   2.368 -1.4155 -0.8537 -1.2690
 6341TIP3    H219030   2.105   5.114   2.234 -0.4764 -2.3099 -1.3061
 6342TIP3   OH219031   1.889   3.724   2.597  0.0735  0.7041 -0.0231
 6342TIP3    H119032   1.816   3.777   2.630 -0.5405 -1.4289  2.4071
 6342TIP3    H219033   1.968   3.772   2.624 -0.4344  1.6897 -0.2643
 6343TIP3   OH219034   5.513   0.510   4.129 -0.0887  0.0145  0.0401
 6343TIP3    H119035   5.538   0.428   4.171 -0.0722 -0.4373 -0.8284
 6343TIP3    H219036   5.526   0.494   4.036 -1.6692  0.4525 -0.2723
 6344TIP3   OH219037   3.945   4.222   2.840  0.5503  0.1906 -0.0231
 6344TIP3    H119038   3.961   4.171   2.919  2.1198  0.1963 -0.3023
 6344TIP3    H219039   3.948   4.158   2.769 -1.6392  0.0578 -0.0542
 6345TIP3   OH219040   3.771   1.437   0.114  0.0031  0.1283 -0.1105
 6345TIP3    H119041   3.819   1.455   0.033 -1.5955  0.1816 -1.0927
 6345TIP3    H219042   3.776   1.519   0.164  1.4821 -0.0896  0.1229
 6346TIP3   OH219043   5.895   5.914   2.422 -0.0367  0.0773 -0.4822
 6346TIP3    H119044   5.916   6.007   2.418  0.7522 -0.0220  0.7227
 6346TIP3    H219045   5.819   5.909   2.481 -0.6405  0.0295 -1.2534
 6347TIP3   OH219046   2.776   4.290   1.647 -0.4458 -0.4293  0.1337
 6347TIP3    H119047   2.788   4.253   1.559 -2.5540 -0.5146 -0.1835
 6347TIP3    H219048   2.823   4.230   1.705 -1.2867 -1.9599 -0.6803
 6348TIP3   OH219049   5.032   3.410   4.813 -0.1446  0.1852  0.0022
 6348TIP3    H119050   5.121   3.374   4.814  0.4232  1.5091  0.0447
 6348TIP3    H219051   5.011   3.421   4.720  0.3124  1.1490 -0.0068
 6349TIP3   OH219052   2.159   0.613   3.576  0.0344 -0.2267  0.0958
 6349TIP3    H119053   2.237   0.660   3.545 -0.2314  0.0512 -0.1590
 6349TIP3    H219054   2.177   0.521   3.557  2.0676 -0.7510  3.6934
 6350TIP3   OH219055   2.562   0.771   2.525 -0.7601 -0.6315 -0.0690
 6350TIP3    H119056   2.496   0.810   2.582 -0.1251 -0.1894  0.3903
 6350TIP3    H219057   2.530   0.683   2.507 -2.2295  0.0785 -1.1053
 6351TIP3   OH219058   3.230   0.511   2.091 -0.2826  0.6786  0.7213
 6351TIP3    H119059   3.274   0.596   2.080  0.0215  0.7932  2.4864
 6351TIP3    H219060   3.137   0.532   2.091 -0.1950  1.2957  2.7277
 6352TIP3   OH219061   3.848   4.843   4.462 -0.1899  0.0917 -0.0870
 6352TIP3    H119062   3.943   4.839   4.469 -0.0434  0.3776 -1.5294
 6352TIP3    H219063   3.831   4.932   4.431 -0.9796  0.2391  0.7445
 6353TIP3   OH219064   6.214   2.514   4.412 -0.0484  0.2079  0.4734
 6353TIP3    H119065   6.271   2.505   4.336 -0.3726 -0.9253  0.3545
 6353TIP3    H219066   6.146   2.576   4.383  0.0890  0.1448  0.0058
 6354TIP3   OH219067   5.771   4.757   1.461 -0.0886 -0.1250  0.2905
 6354TIP3    H119068   5.816   4.685   1.417 -1.0327 -0.6753  0.2035
 6354TIP3    H219069   5.746   4.721   1.547 -2.0139 -0.4893 -0.3605
 6355TIP3   OH219070   5.837   3.704   1.811 -0.1810  0.1458 -0.9012
 6355TIP3    H119071   5.795   3.707   1.725 -0.0874  2.0423 -0.9184
 6355TIP3    H219072   5.773   3.742   1.871  0.7482  1.3479 -0.6156
 6356TIP3   OH219073   4.162   3.054   4.783  0.5241 -0.5861 -0.2808
 6356TIP3    H119074   4.105   3.001   4.838  0.7599 -0.1282  0.4239
 6356TIP3    H219075   4.234   2.996   4.759  0.3353 -0.8352 -0.2399
 6357TIP3   OH219076   1.465   2.545   1.396 -0.6577 -0.1806 -0.5993
 6357TIP3    H119077   1.500   2.462   1.429  0.9268  0.5021 -0.4575
 6357TIP3    H219078   1.518   2.564   1.318  0.5065  1.6998  0.5453
 6358TIP3   OH219079   1.868   4.895   0.564 -0.5930 -0.4211 -0.1459
 6358TIP3    H119080   1.884   4.953   0.490  0.4632  0.9046  1.0626
 6358TIP3    H219081   1.814   4.825   0.528 -0.3525  0.3211 -2.0919
 6359TIP3   OH219082   5.858   1.073   3.190 -0.0851 -0.0936  0.2428
 6359TIP3    H119083   5.763   1.078   3.202 -0.2240 -2.2978  0.5642
 6359TIP3    H219084   5.894   1.139   3.249 -1.4043  0.5838  0.3189
 6360TIP3   OH219085   0.047   5.588   1.444  0.3780 -0.5879  0.0556
 6360TIP3    H119086   0.022   5.659   1.503 -0.7626  1.0384 -2.2272
 6360TIP3    H219087   0.047   5.628   1.357  2.9847 -2.5855 -1.0236
 6361TIP3   OH219088   5.068   4.669   2.032  0.7468 -0.3510  0.6021
 6361TIP3    H119089   4.975   4.679   2.052  0.4722  0.5081 -0.9610
 6361TIP3    H219090   5.108   4.751   2.064  0.9078 -0.5538  0.9242
 6362TIP3   OH219091   3.862   0.334   2.193 -0.0637 -0.1611  0.3099
 6362TIP3    H119092   3.783   0.315   2.141 -0.8278 -0.6766  1.6039
 6362TIP3    H219093   3.886   0.423   2.169  1.1921 -1.2098 -2.8846
 6363TIP3   OH219094   5.848   5.521   0.590  0.0335 -0.3900 -0.0811
 6363TIP3    H119095   5.887   5.496   0.506  0.8717 -0.4417  0.3132
 6363TIP3    H219096   5.907   5.484   0.655 -1.9245 -2.5959  0.6028
 6364TIP3   OH219097   3.034   5.219   4.118  0.5038  0.2897 -0.3940
 6364TIP3    H119098   3.097   5.150   4.139  0.9682  0.1824 -2.0360
 6364TIP3    H219099   2.963   5.206   4.182  0.6303 -1.6481 -0.5752
 6365TIP3   OH219100   6.255   1.526   2.455 -0.1059  0.0814 -0.2220
 6365TIP3    H119101   6.160   1.537   2.453  0.0060  1.0045 -1.4424
 6365TIP3    H219102   6.289   1.610   2.484  0.3329 -0.6090  1.4428
 6366TIP3   OH219103   6.103   1.502   4.271 -0.2698 -0.2256  0.2333
 6366TIP3    H119104   6.032   1.438   4.281 -2.2291  1.6437 -0.7473
 6366TIP3    H219105   6.101   1.553   4.352  0.8165 -0.9229  0.7174
 6367TIP3   OH219106   2.841   2.354   0.883 -0.3125 -0.0720 -0.3290
 6367TIP3    H119107   2.936   2.370   0.889 -0.5684  1.3027  0.7230
 6367TIP3    H219108   2.807   2.432   0.838 -0.9044 -0.7541 -1.0803
 6368TIP3   OH219109   4.364   3.010   2.635  0.3734 -0.0592  0.3842
 6368TIP3    H119110   4.395   2.941   2.694  2.9520  0.7891  0.1634
 6368TIP3    H219111   4.364   2.969   2.548 -2.1661 -0.9188  0.6946
 6369TIP3   OH219112   1.467   0.301   0.536 -0.2765 -0.1037 -0.2450
 6369TIP3    H119113   1.392   0.305   0.476 -0.5470 -0.1055  0.0896
 6369TIP3    H219114   1.430   0.322   0.622  0.3567  1.2673 -0.2795
 6370TIP3   OH219115   2.371   4.141   1.235  0.2160 -0.0693 -0.5812
 6370TIP3    H119116   2.404   4.177   1.317  1.5163  1.1451 -1.5997
 6370TIP3    H219117   2.293   4.091   1.261  0.1734  0.8722  1.2837
 6371TIP3   OH219118   2.995   1.683   0.648  0.3384 -0.0767  0.0930
 6371TIP3    H119119   2.936   1.757   0.634 -1.0076 -1.5687 -3.5128
 6371TIP3    H219120   3.080   1.713   0.615 -0.3631 -0.2158 -2.0076
 6372TIP3   OH219121   5.513   2.692   1.077 -0.2999  0.1554 -0.0151
 6372TIP3    H119122   5.551   2.620   1.027  2.6219  0.1702  1.8811
 6372TIP3    H219123   5.460   2.650   1.144 -0.2212 -0.1300 -0.1301
 6373TIP3   OH219124   3.329   2.279   0.874  0.0868 -0.2733  0.1181
 6373TIP3    H119125   3.392   2.242   0.935  1.3876 -0.1297 -1.0781
 6373TIP3    H219126   3.353   2.372   0.867 -0.9745  0.0459  0.4876
 6374TIP3   OH219127   3.071   3.688   2.285 -0.0618 -0.1481 -0.4999
 6374TIP3    H119128   3.133   3.752   2.321 -0.7287  0.2452 -0.0310
 6374TIP3    H219129   2.993   3.740   2.266 -0.8589 -0.9486  0.5358
 6375TIP3   OH219130   3.680   0.252   3.180 -0.4993  0.0059  0.4857
 6375TIP3    H119131   3.687   0.344   3.205  2.3932  0.0973 -0.3735
 6375TIP3    H219132   3.657   0.206   3.260  0.1101  1.2278  1.3787
 6376TIP3   OH219133   5.427   5.006   4.822 -0.0982 -0.1101  0.3446
 6376TIP3    H119134   5.398   5.092   4.853 -0.3345 -0.6357  1.6571
 6376TIP3    H219135   5.483   4.973   4.891  0.9761 -0.5293 -0.6913
 6377TIP3   OH219136   4.545   3.242   5.037 -0.0432  0.4239 -1.0218
 6377TIP3    H119137   4.593   3.259   4.956 -0.5142  2.1614 -0.9751
 6377TIP3    H219138   4.461   3.286   5.025 -0.4295  0.0431  0.1119
 6378TIP3   OH219139   1.122   0.125   4.794 -0.2330 -0.6396 -0.4017
 6378TIP3    H119140   1.192   0.078   4.840 -1.3521  0.1918  2.3618
 6378TIP3    H219141   1.042   0.100   4.840 -1.2515  1.5289 -0.8840
 6379TIP3   OH219142   0.105   0.964  -0.005  0.0047  0.5741 -0.0800
 6379TIP3    H119143   0.120   0.884   0.046  1.1592 -0.1549 -1.4973
 6379TIP3    H219144   0.124   1.035   0.056  0.2380 -0.2458  0.8326
 6380TIP3   OH219145   1.928   1.948   3.918  0.3765 -0.0859  0.6440
 6380TIP3    H119146   1.838   1.951   3.949  0.4633  0.2216  0.8843
 6380TIP3    H219147   1.927   1.889   3.843 -0.2280  0.7101  0.0004
 6381TIP3   OH219148   5.855   1.500   2.604  0.0644 -0.1956 -0.3015
 6381TIP3    H119149   5.898   1.502   2.689  1.7387  0.6135 -1.1274
 6381TIP3    H219150   5.870   1.411   2.572 -1.1642 -0.7204  0.5066
 6382TIP3   OH219151   4.132   0.169   4.419 -0.2854  0.1034  0.2596
 6382TIP3    H119152   4.051   0.121   4.403 -0.4969  0.3869  0.4653
 6382TIP3    H219153   4.134   0.236   4.351  1.0781 -1.4949 -1.3880
 6383TIP3   OH219154   2.586   4.190   3.541 -0.0618 -0.3914 -0.3587
 6383TIP3    H119155   2.629   4.206   3.625 -1.3168  2.3999 -0.1313
 6383TIP3    H219156   2.505   4.144   3.565  0.7561 -1.9255 -0.3782
 6384TIP3   OH219157   5.871   5.923   3.567  0.3242 -0.6817  0.1842
 6384TIP3    H119158   5.885   5.886   3.479  3.8935  2.0445 -0.6195
 6384TIP3    H219159   5.790   5.974   3.558 -0.0786 -1.4853 -1.1110
 6385TIP3   OH219160   0.383   4.514   2.371 -0.4016  0.0514  0.2694
 6385TIP3    H119161   0.384   4.466   2.288 -2.0998  0.3418  0.0482
 6385TIP3    H219162   0.474   4.510   2.402  0.6038  1.2036 -2.2994
 6386TIP3   OH219163   4.385   5.433   2.436 -0.1647 -0.5946 -0.1916
 6386TIP3    H119164   4.361   5.525   2.444 -2.7217 -1.0650 -1.4705
 6386TIP3    H219165   4.481   5.433   2.437 -0.0552  1.7336  2.8572
 6387TIP3   OH219166   4.381   3.893   2.970  0.3637  0.0028 -0.5535
 6387TIP3    H119167   4.388   3.960   2.902 -1.7151  0.7424 -0.1153
 6387TIP3    H219168   4.298   3.849   2.953  1.0887 -1.6527 -0.0801
 6388TIP3   OH219169   4.320   3.572   2.983  0.3884 -0.1330 -0.5573
 6388TIP3    H119170   4.369   3.573   3.065 -0.9470  2.7811  0.3182
 6388TIP3    H219171   4.388   3.563   2.915  1.6629 -0.9743  0.7794
 6389TIP3   OH219172   2.703   4.322   4.961 -0.1392  0.6823  0.6132
 6389TIP3    H119173   2.762   4.246   4.961 -1.1725 -0.1542 -0.1515
 6389TIP3    H219174   2.757   4.394   4.929  0.0899 -0.4312 -1.7651
 6390TIP3   OH219175   1.261   2.840   0.896 -0.1717  0.5371 -0.0172
 6390TIP3    H119176   1.323   2.783   0.851  0.3988  1.7551 -0.8566
 6390TIP3    H219177   1.267   2.815   0.988  1.2568  0.3141 -0.1419
 6391TIP3   OH219178   3.459   4.902   4.597  0.1249 -0.1992  0.3139
 6391TIP3    H119179   3.493   4.813   4.593  1.4452  0.3072 -0.8912
 6391TIP3    H219180   3.474   4.930   4.687 -0.7526 -1.3436  0.8307
 6392TIP3   OH219181   2.516   1.824   3.220  0.3970  0.0088 -0.0538
 6392TIP3    H119182   2.481   1.751   3.169 -0.9086  1.8223 -1.8975
 6392TIP3    H219183   2.466   1.822   3.302 -0.4780 -0.4453 -0.5916
 6393TIP3   OH219184   3.188   1.783   2.779 -0.4395  0.1543  0.3564
 6393TIP3    H119185   3.179   1.689   2.797  1.9668 -0.1037  0.4834
 6393TIP3    H219186   3.152   1.826   2.857 -1.4327 -0.6323  0.3539
 6394TIP3   OH219187   4.667   3.453   1.980 -0.1555 -0.1587  0.1999
 6394TIP3    H119188   4.692   3.532   2.028 -0.4761  0.2253 -0.2594
 6394TIP3    H219189   4.699   3.467   1.891 -1.3127  0.0206 -0.2141
 6395TIP3   OH219190   3.851   1.578   1.315 -0.1488 -0.0914  0.0538
 6395TIP3    H119191   3.879   1.492   1.345  0.5750  0.4681  1.0143
 6395TIP3    H219192   3.859   1.635   1.391 -0.0370  0.9637 -0.7135
 6396TIP3   OH219193   5.947   0.361   1.510 -0.1277 -0.1037  0.2467
 6396TIP3    H119194   5.920   0.402   1.428  0.0671 -0.9471 -0.2585
 6396TIP3    H219195   5.986   0.277   1.483  3.4305  1.1804  0.8670
 6397TIP3   OH219196   6.097   3.239   4.694  0.1632  0.2241  0.2806
 6397TIP3    H119197   6.122   3.191   4.615  0.6336  0.2838  0.3928
 6397TIP3    H219198   6.177   3.283   4.722 -0.3773  1.4784 -0.1009
 6398TIP3   OH219199   2.609   3.334   0.606  0.1229 -0.0486 -0.1978
 6398TIP3    H119200   2.595   3.264   0.542  2.1334 -1.4754  0.7959
 6398TIP3    H219201   2.535   3.327   0.666 -1.0725  0.4355 -1.5424
 6399TIP3   OH219202   3.268   4.817   2.037 -0.3896 -0.3151  0.0780
 6399TIP3    H119203   3.253   4.756   1.965  1.8427 -0.5278 -0.2804
 6399TIP3    H219204   3.190   4.873   2.038 -0.9121 -0.9413 -1.8691
 6400TIP3   OH219205   5.952   4.249   4.310  0.0569  0.0379 -0.4693
 6400TIP3    H119206   6.046   4.267   4.298  0.2525 -0.9011 -0.4492
 6400TIP3    H219207   5.915   4.260   4.222  0.0848  0.9714 -0.3646
 6401TIP3   OH219208   3.039   5.215   2.898 -0.2831  0.2613 -0.2315
 6401TIP3    H119209   2.997   5.272   2.963 -0.3620  1.3949 -1.2236
 6401TIP3    H219210   3.130   5.243   2.897 -0.0539 -0.4596  0.1141
 6402TIP3   OH219211   3.284   3.849   2.101  0.1650 -0.2757  0.0009
 6402TIP3    H119212   3.244   3.913   2.042 -0.1077 -1.4565 -1.1436
 6402TIP3    H219213   3.216   3.783   2.116  0.9409 -1.1452 -0.1707
 6403TIP3   OH219214   0.827   1.322   1.089  0.5709  0.7096 -0.3731
 6403TIP3    H119215   0.919   1.330   1.065  1.3625 -0.9980  1.8260
 6403TIP3    H219216   0.812   1.228   1.098 -1.1097  1.0082  0.3772
 6404TIP3   OH219217   0.444   4.050   3.612 -0.0411 -0.2345  0.4009
 6404TIP3    H119218   0.487   3.997   3.545  0.2791 -0.2494  0.6122
 6404TIP3    H219219   0.392   3.987   3.662 -0.0130 -0.2792  0.3743
 6405TIP3   OH219220   0.418   5.629   2.994  0.2354  0.6150 -0.1969
 6405TIP3    H119221   0.371   5.587   2.922 -0.7646  1.2302  0.0747
 6405TIP3    H219222   0.408   5.723   2.978  1.4472  0.7729 -0.1666
 6406TIP3   OH219223   2.560   3.369   1.221  0.2618  0.1464 -0.3863
 6406TIP3    H119224   2.627   3.344   1.285  0.5400  0.1432 -0.6792
 6406TIP3    H219225   2.602   3.359   1.136 -0.3562 -0.6506 -0.6203
 6407TIP3   OH219226   3.767   3.688   4.840 -0.2738 -0.0717  0.1314
 6407TIP3    H119227   3.743   3.597   4.827  2.0059 -0.5797 -1.0325
 6407TIP3    H219228   3.718   3.736   4.773  0.2849 -0.7627 -0.7805
 6408TIP3   OH219229   2.469   2.737   1.505 -0.1169 -0.6771  0.2469
 6408TIP3    H119230   2.426   2.691   1.577  0.1541 -1.2244  0.0635
 6408TIP3    H219231   2.488   2.824   1.540  1.1176 -1.3208  1.2493
 6409TIP3   OH219232   3.348   1.620   1.044 -0.0389  0.0624  0.2571
 6409TIP3    H119233   3.329   1.606   0.951  0.3159 -2.8886  0.5237
 6409TIP3    H219234   3.351   1.531   1.081 -0.2472  1.1516  3.1122
 6410TIP3   OH219235   2.272   1.591   0.270 -0.1604 -0.3139  0.3933
 6410TIP3    H119236   2.252   1.577   0.363  0.1981  0.3618  0.5789
 6410TIP3    H219237   2.289   1.685   0.263 -0.9987 -0.2213 -0.5164
 6411TIP3   OH219238   1.248   0.723   2.209 -0.4826  0.0183  0.4309
 6411TIP3    H119239   1.156   0.750   2.208 -0.3731  0.4237 -0.9143
 6411TIP3    H219240   1.286   0.766   2.132  0.3833 -1.6767 -0.1309
 6412TIP3   OH219241   2.141   2.850   3.915 -0.1541 -0.3491  0.0444
 6412TIP3    H119242   2.161   2.830   3.824  3.4516  0.5260  0.4794
 6412TIP3    H219243   2.224   2.837   3.961 -1.4531  0.7512  2.9454
 6413TIP3   OH219244   6.211   2.691   4.980 -0.0824 -0.6058  0.1877
 6413TIP3    H119245   6.178   2.781   4.977  0.3127 -0.2356  3.4121
 6413TIP3    H219246   6.200   2.659   4.891 -0.7942  2.4220 -0.9464
 6414TIP3   OH219247   2.839   4.102   5.044  0.1516 -0.2844  0.5370
 6414TIP3    H119248   2.840   4.032   4.979 -2.5363  1.0050 -1.0534
 6414TIP3    H219249   2.799   4.063   5.121  0.6655 -1.0518  0.4251
 6415TIP3   OH219250   1.664   3.793   4.600 -0.1636  0.2228 -0.4689
 6415TIP3    H119251   1.617   3.733   4.658  0.7355 -1.1365 -1.1133
 6415TIP3    H219252   1.677   3.744   4.520 -0.6807  1.7991 -1.5651
 6416TIP3   OH219253   3.791   2.747   0.148  0.0131 -0.0536  0.2562
 6416TIP3    H119254   3.706   2.789   0.144 -0.4465 -0.9343  0.4726
 6416TIP3    H219255   3.777   2.660   0.110  0.7176 -0.3516  0.6466
 6417TIP3   OH219256   5.345   4.309   4.615  0.3113 -0.0976  0.2008
 6417TIP3    H119257   5.394   4.232   4.642 -0.2108 -0.3759  0.3725
 6417TIP3    H219258   5.285   4.278   4.548 -0.6768 -0.0852  1.0498
 6418TIP3   OH219259   6.230   5.734   2.201  0.2714  0.3187  0.6887
 6418TIP3    H119260   6.157   5.676   2.180  0.2201  1.0750 -1.3764
 6418TIP3    H219261   6.208   5.769   2.287 -1.9676  0.7520 -0.0017
 6419TIP3   OH219262   1.859   0.417   1.483 -0.1725  0.1707 -0.2729
 6419TIP3    H119263   1.881   0.347   1.422  0.6507  1.0695 -1.0478
 6419TIP3    H219264   1.862   0.497   1.430 -1.6870  0.7442  0.4434
 6420TIP3   OH219265   3.900   0.006   2.054  0.4953  0.6923 -1.2100
 6420TIP3    H119266   3.971   0.029   2.115 -0.5940  0.5859  0.1472
 6420TIP3    H219267   3.871   0.090   2.018 -0.1771  0.9841 -0.0378
 6421TIP3   OH219268   4.554   2.700   3.624  0.1244 -0.2408 -0.6255
 6421TIP3    H119269   4.547   2.662   3.536  0.9974 -2.1816  0.0880
 6421TIP3    H219270   4.531   2.628   3.683  0.0395  0.8874  0.7637
 6422TIP3   OH219271   3.381   4.264   3.548  0.5015 -0.1166  0.3057
 6422TIP3    H119272   3.446   4.198   3.524 -0.1475  0.2349 -2.7500
 6422TIP3    H219273   3.297   4.221   3.533  0.0420  0.5284  0.9799
 6423TIP3   OH219274   5.430   0.442   3.847 -0.0847 -0.4618 -0.3746
 6423TIP3    H119275   5.362   0.389   3.890  1.3385 -2.2735 -0.2567
 6423TIP3    H219276   5.500   0.380   3.827  1.8198  1.4345  0.0347
 6424TIP3   OH219277   0.102   0.840   2.734  0.8344 -0.2245 -0.3472
 6424TIP3    H119278   0.089   0.884   2.650 -0.7979 -0.5785 -0.3191
 6424TIP3    H219279   0.044   0.764   2.730  1.4255 -0.7550  0.7429
 6425TIP3   OH219280   5.901   2.300   3.234  0.4959 -0.3147  0.6198
 6425TIP3    H119281   5.883   2.387   3.200 -1.4548 -0.2537  1.6730
 6425TIP3    H219282   5.964   2.314   3.305 -2.2908  0.7861  3.0830
 6426TIP3   OH219283   0.420   2.231   3.162 -0.8416  0.4504  0.7116
 6426TIP3    H119284   0.389   2.141   3.167 -1.0189  0.5294  1.1286
 6426TIP3    H219285   0.393   2.262   3.075  0.8442 -0.4683 -0.1975
 6427TIP3   OH219286   3.625   0.536   2.917  0.8102  0.4588 -0.8048
 6427TIP3    H119287   3.571   0.521   2.839 -0.5705  0.4095  0.1084
 6427TIP3    H219288   3.573   0.499   2.989  1.9199  0.7391  0.1697
 6428TIP3   OH219289   4.527   1.250   2.576 -0.0473 -0.3269  0.0733
 6428TIP3    H119290   4.580   1.242   2.654 -1.1454  1.0584  1.0265
 6428TIP3    H219291   4.469   1.174   2.577  0.1791 -0.4926  0.4208
 6429TIP3   OH219292   2.942   1.291   0.966 -0.2797  0.3653 -0.3549
 6429TIP3    H119293   2.920   1.383   0.951 -1.6008  0.1859  0.3295
 6429TIP3    H219294   2.953   1.253   0.879 -1.5966  0.7532 -0.7107
 6430TIP3   OH219295   1.305   1.080   5.118 -0.3009 -0.0278 -0.2329
 6430TIP3    H119296   1.306   1.093   5.023  0.0583 -0.4166 -0.2847
 6430TIP3    H219297   1.231   1.133   5.148  0.1959  0.9028 -0.6032
 6431TIP3   OH219298   6.032   2.411   2.793 -0.2509 -0.0831 -0.6255
 6431TIP3    H119299   6.055   2.324   2.827  2.1258 -0.2489 -2.4329
 6431TIP3    H219300   5.936   2.413   2.797 -0.4677 -3.2202 -1.4695
 6432TIP3   OH219301   2.558   3.376   4.799  0.3946 -0.5028  0.3745
 6432TIP3    H119302   2.613   3.298   4.790  0.5828 -0.7911  3.2413
 6432TIP3    H219303   2.481   3.347   4.847  0.0971  0.9098  0.8123
 6433TIP3   OH219304   6.182   1.129   1.647  0.3165 -0.0579 -0.2173
 6433TIP3    H119305   6.098   1.156   1.685  0.3794 -1.2378  0.7881
 6433TIP3    H219306   6.159   1.055   1.590  0.6888 -0.5036  0.2054
 6434TIP3   OH219307   3.450   2.557   0.826 -0.4241 -0.1987  0.1539
 6434TIP3    H119308   3.515   2.508   0.775 -1.3574 -1.2588 -0.0572
 6434TIP3    H219309   3.415   2.621   0.765 -1.8229 -1.7228 -0.7158
 6435TIP3   OH219310   4.141   0.315   0.813 -0.9356  0.0606  0.7638
 6435TIP3    H119311   4.049   0.295   0.832 -0.7707  0.2359  1.8074
 6435TIP3    H219312   4.176   0.347   0.896  0.9611 -3.1549  1.3682
 6436TIP3   OH219313   0.101   5.168   4.656  0.1055  0.0359 -0.5171
 6436TIP3    H119314   0.142   5.246   4.619  1.5821 -1.2289 -1.7098
 6436TIP3    H219315   0.133   5.096   4.601 -1.3777 -1.3937  0.3913
 6437TIP3   OH219316   2.137   1.199   1.770 -0.1264  0.5302  0.3915
 6437TIP3    H119317   2.124   1.279   1.718 -0.9062  0.3273  0.2525
 6437TIP3    H219318   2.206   1.152   1.724 -1.3794 -0.0520 -0.9950
 6438TIP3   OH219319   6.148   5.771   1.344  0.2076  0.0866 -0.0836
 6438TIP3    H119320   6.220   5.730   1.296  0.3723  1.1964 -0.8135
 6438TIP3    H219321   6.186   5.797   1.427 -0.3270 -2.7821  1.1739
 6439TIP3   OH219322   4.002   5.898   2.866  0.3864  0.4195 -0.6071
 6439TIP3    H119323   4.018   5.810   2.833 -0.8800 -0.7488  1.6672
 6439TIP3    H219324   4.003   5.953   2.788 -0.3116 -1.8139 -2.2988
 6440TIP3   OH219325   2.589   1.089   0.523  0.0748 -0.2570 -0.5355
 6440TIP3    H119326   2.609   1.069   0.615  0.8555  0.9707 -0.4222
 6440TIP3    H219327   2.506   1.044   0.507  0.2844 -1.0826  0.5582
 6441TIP3   OH219328   4.117   1.425   3.365 -0.6812 -0.6645 -0.2242
 6441TIP3    H119329   4.145   1.346   3.411  0.5884  0.8549  1.7775
 6441TIP3    H219330   4.155   1.417   3.278  2.2543 -0.8463  0.9622
 6442TIP3   OH219331   6.274   3.869   0.803 -0.3449 -0.3553  0.9271
 6442TIP3    H119332   6.366   3.850   0.823 -0.3137 -0.7215  0.4586
 6442TIP3    H219333   6.247   3.931   0.870 -0.2879 -1.6664  2.2133
 6443TIP3   OH219334   2.261   2.980   2.633  0.6176 -0.0635 -0.4239
 6443TIP3    H119335   2.202   3.041   2.677  1.1235 -0.0652  0.2767
 6443TIP3    H219336   2.263   2.904   2.690 -0.7473 -1.1553 -1.7562
 6444TIP3   OH219337   2.695   5.398   1.837 -0.2576 -0.0579 -0.8458
 6444TIP3    H119338   2.706   5.305   1.856  0.5965  0.0004 -1.0234
 6444TIP3    H219339   2.784   5.432   1.828 -0.4873  1.1298  0.8334
 6445TIP3   OH219340   1.781   0.538   2.927  0.3602 -0.4506  0.4236
 6445TIP3    H119341   1.792   0.524   3.021  0.0980 -1.4114  0.3262
 6445TIP3    H219342   1.743   0.625   2.920 -1.5040 -1.1090  1.3731
 6446TIP3   OH219343   2.684   5.593   1.376 -0.4710  0.6110  0.5507
 6446TIP3    H119344   2.744   5.584   1.450  0.5484 -0.9325 -0.3932
 6446TIP3    H219345   2.600   5.560   1.408  0.1042 -0.5833  0.8906
 6447TIP3   OH219346   6.292   4.649   3.654  0.1549  0.3416  0.1220
 6447TIP3    H119347   6.236   4.578   3.621  0.8395  0.1826 -0.7576
 6447TIP3    H219348   6.260   4.666   3.742 -0.5788 -0.4796  0.0317
 6448TIP3   OH219349   2.447   5.396   1.191  0.0542 -0.5755  0.2355
 6448TIP3    H119350   2.362   5.353   1.176 -0.4511  0.4783 -0.0281
 6448TIP3    H219351   2.451   5.409   1.286 -0.4437  0.0575  0.1796
 6449TIP3   OH219352   5.072   3.686   1.912 -0.2976 -0.1625  0.1274
 6449TIP3    H119353   5.068   3.618   1.979 -0.1236  0.4208  0.7445
 6449TIP3    H219354   5.133   3.751   1.947 -0.0625  0.0590 -0.6863
 6450TIP3   OH219355   0.705   5.639   2.349  0.2099  0.5466 -0.0016
 6450TIP3    H119356   0.694   5.690   2.268 -0.5422  1.7032  0.8025
 6450TIP3    H219357   0.780   5.679   2.392  0.6263 -0.0871 -0.1334
 6451TIP3   OH219358   4.296   3.142   3.770  0.4619  0.4403 -0.4620
 6451TIP3    H119359   4.229   3.112   3.708 -0.2921 -0.4790  0.7423
 6451TIP3    H219360   4.265   3.229   3.798 -0.2592  0.0191  0.0902
 6452TIP3   OH219361   2.169   1.233   4.485 -0.0165  0.0586  0.0735
 6452TIP3    H119362   2.178   1.138   4.477  0.6860 -0.0041  1.3731
 6452TIP3    H219363   2.129   1.260   4.402  1.2794 -1.1683 -1.0205
 6453TIP3   OH219364   5.760   3.856   3.669 -0.0405 -0.0336  0.6423
 6453TIP3    H119365   5.669   3.866   3.695 -0.5677 -0.9242 -0.7467
 6453TIP3    H219366   5.774   3.924   3.604  0.4322  0.3834  1.1687
 6454TIP3   OH219367   4.058   4.912   3.032  0.3622 -0.4219 -0.0057
 6454TIP3    H119368   4.102   4.922   3.116  0.4375  0.1155 -0.1034
 6454TIP3    H219369   4.117   4.857   2.980  0.7685  0.0307 -0.0284
 6455TIP3   OH219370   5.220   4.080   1.335 -0.5925 -0.6554 -0.5899
 6455TIP3    H119371   5.153   4.059   1.271 -0.4844 -3.6460  0.1517
 6455TIP3    H219372   5.265   3.997   1.352 -0.2961  0.0614  2.9512
 6456TIP3   OH219373   3.646   5.306   3.892 -0.1913 -0.8039 -0.2301
 6456TIP3    H119374   3.699   5.327   3.970 -1.9214 -0.4807  0.9083
 6456TIP3    H219375   3.675   5.369   3.826  0.0877  0.0920  0.7138
 6457TIP3   OH219376   0.531   0.642   2.961  0.2516 -0.3163  0.8984
 6457TIP3    H119377   0.459   0.597   3.006 -0.5063 -0.0434 -0.0142
 6457TIP3    H219378   0.581   0.571   2.920 -0.2636 -0.4256  0.4434
 6458TIP3   OH219379   6.142   4.391   0.924 -0.5780  0.4795 -0.3290
 6458TIP3    H119380   6.148   4.477   0.965 -1.3604  0.8684 -0.9909
 6458TIP3    H219381   6.048   4.371   0.923 -0.3485 -0.7757  0.5797
 6459TIP3   OH219382   4.253   2.872   2.403  0.1494  0.1731 -0.0051
 6459TIP3    H119383   4.267   2.780   2.381 -1.9054 -0.1105 -0.3219
 6459TIP3    H219384   4.269   2.919   2.322  0.2878 -0.0173 -0.0881
 6460TIP3   OH219385   2.377   0.311   1.703 -0.6323 -0.1004 -0.3611
 6460TIP3    H119386   2.369   0.235   1.761 -0.8505 -1.0600 -1.5970
 6460TIP3    H219387   2.297   0.310   1.650  0.4197 -0.4505 -2.0263
 6461TIP3   OH219388   1.300   0.193   0.346  0.2432 -0.2644 -0.0058
 6461TIP3    H119389   1.358   0.119   0.332 -0.3747 -0.8272  0.3440
 6461TIP3    H219390   1.212   0.157   0.333  0.0063  0.8423 -1.7814
 6462TIP3   OH219391   1.069   2.168   2.538 -0.3089  0.1047  0.0995
 6462TIP3    H119392   1.123   2.194   2.612 -3.1007  0.8480  2.0151
 6462TIP3    H219393   1.099   2.079   2.516  1.0496  0.1529  1.6200
 6463TIP3   OH219394   3.292   5.664   2.372 -0.0695 -0.1195  0.1821
 6463TIP3    H119395   3.290   5.668   2.276 -0.0626  0.1648  0.1926
 6463TIP3    H219396   3.326   5.750   2.399  0.8159 -0.5269  0.4115
 6464TIP3   OH219397   5.374   4.730   0.620  0.2088 -0.5125  0.2870
 6464TIP3    H119398   5.284   4.753   0.597  0.0160 -0.6876  0.8542
 6464TIP3    H219399   5.402   4.799   0.681  0.2170 -0.8361  0.6531
 6465TIP3   OH219400   5.912   4.305   4.741 -0.0058 -0.5420  0.1010
 6465TIP3    H119401   5.907   4.238   4.674  0.2883 -0.6874  0.2201
 6465TIP3    H219402   5.829   4.301   4.787 -0.3284 -0.2371 -0.4447
 6466TIP3   OH219403   3.118   2.915   1.280  0.1363 -0.3432  0.6691
 6466TIP3    H119404   3.148   3.004   1.298 -1.2132  0.0155  1.2679
 6466TIP3    H219405   3.074   2.922   1.195  0.4988 -0.5566  0.4635
 6467TIP3   OH219406   3.842   0.304   4.575 -0.1168 -0.3685  0.2217
 6467TIP3    H119407   3.934   0.330   4.585 -0.3750  0.7015 -0.0062
 6467TIP3    H219408   3.796   0.354   4.643 -0.3370 -2.1550  1.4447
 6468TIP3   OH219409   5.952   2.128  -0.008 -0.3031 -0.2292 -0.2999
 6468TIP3    H119410   5.933   2.146   0.084  2.6909  1.3838  0.1544
 6468TIP3    H219411   6.026   2.068  -0.006 -0.5813 -0.6610 -1.6922
 6469TIP3   OH219412   2.528   1.899   4.484  0.2733 -0.0891 -0.1295
 6469TIP3    H119413   2.537   1.849   4.403  1.1332 -1.4235  0.7658
 6469TIP3    H219414   2.608   1.881   4.533  0.1436  1.3696  0.6703
 6470TIP3   OH219415   0.847   5.297   3.402  0.6630 -0.0488 -0.0486
 6470TIP3    H119416   0.763   5.265   3.369  0.8199  0.5510 -1.0683
 6470TIP3    H219417   0.904   5.297   3.325  1.7534 -0.9065  0.7236
 6471TIP3   OH219418   3.253   4.973   3.581 -0.0935 -0.8821 -0.2743
 6471TIP3    H119419   3.289   5.060   3.599  0.1056 -1.1104  0.4728
 6471TIP3    H219420   3.162   4.990   3.556 -0.4112 -0.5335  1.0440
 6472TIP3   OH219421   1.682   4.402   1.619 -0.0148  0.1619 -0.7053
 6472TIP3    H119422   1.766   4.402   1.663  0.2952  0.3206 -1.2880
 6472TIP3    H219423   1.619   4.379   1.687  0.6473 -1.3599 -0.5580
 6473TIP3   OH219424   4.957   4.454   2.387 -0.1321  0.2776  0.4612
 6473TIP3    H119425   5.036   4.456   2.440  0.3098 -0.3765 -0.1476
 6473TIP3    H219426   4.915   4.538   2.403  1.1849  1.0458  0.0632
 6474TIP3   OH219427   5.351   5.750   4.715  0.6101 -0.1641  0.9443
 6474TIP3    H119428   5.422   5.806   4.747  0.7618 -0.3678  0.9693
 6474TIP3    H219429   5.280   5.764   4.777 -0.1344  1.6495 -0.2427
 6475TIP3   OH219430   5.405   4.745   4.686 -0.0990  0.0563 -0.1380
 6475TIP3    H119431   5.414   4.836   4.715 -0.1536 -0.8335  3.0964
 6475TIP3    H219432   5.326   4.714   4.731 -0.3989 -1.4626 -1.6197
 6476TIP3   OH219433   5.754   0.334   1.709 -0.0038 -0.2674 -0.0387
 6476TIP3    H119434   5.813   0.368   1.642  0.6221 -1.7461 -0.2816
 6476TIP3    H219435   5.671   0.318   1.663 -0.5638  1.5700  0.2474
 6477TIP3   OH219436   2.320   1.919   2.792  0.7840 -0.5871 -0.3250
 6477TIP3    H119437   2.404   1.903   2.834 -0.2294  1.6797  3.0632
 6477TIP3    H219438   2.300   2.011   2.812 -1.8002 -0.5835 -2.3309
 6478TIP3   OH219439   3.505   3.634   0.584 -0.6188 -0.8435 -0.3665
 6478TIP3    H119440   3.584   3.591   0.551 -0.4033 -0.0473 -0.8970
 6478TIP3    H219441   3.492   3.594   0.670 -0.8926 -2.5540 -1.1585
 6479TIP3   OH219442   3.502   4.991   2.001 -0.0310  0.1919 -0.9739
 6479TIP3    H119443   3.446   4.924   2.040  0.8367 -0.1634 -0.3090
 6479TIP3    H219444   3.512   4.964   1.910 -0.7133  0.1119 -1.0282
 6480TIP3   OH219445   4.342   1.829   4.361  0.2385 -0.5334 -0.2203
 6480TIP3    H119446   4.389   1.870   4.289 -2.0123  1.2597 -0.7859
 6480TIP3    H219447   4.376   1.739   4.364  1.9179 -0.0322 -2.0887
 6481TIP3   OH219448   6.238   4.192   4.859 -0.1646 -0.5866  0.2484
 6481TIP3    H119449   6.179   4.268   4.852  1.3423  0.5534 -0.8441
 6481TIP3    H219450   6.302   4.218   4.925 -0.9202 -1.8691  1.5284
 6482TIP3   OH219451   0.640   3.001   4.748 -0.6520  0.1243  0.1596
 6482TIP3    H119452   0.559   2.949   4.757 -0.4579  0.1039  2.6341
 6482TIP3    H219453   0.679   2.997   4.835  1.5891  0.8846 -0.7646
 6483TIP3   OH219454   1.741   5.456   0.149 -0.3427 -0.7747 -0.0921
 6483TIP3    H119455   1.828   5.426   0.123 -0.0739  0.5469 -0.8245
 6483TIP3    H219456   1.704   5.382   0.198  1.5993 -0.9850  1.2163
 6484TIP3   OH219457   2.942   1.191   0.120 -0.1728 -0.4097  0.5255
 6484TIP3    H119458   2.885   1.212   0.194 -0.4977 -1.0672  0.4678
 6484TIP3    H219459   2.883   1.171   0.048  0.1470  0.2755  0.0721
 6485TIP3   OH219460   5.106   5.395   0.869  0.6267  0.1500 -0.0319
 6485TIP3    H119461   5.053   5.323   0.905 -0.1517 -0.0967 -1.5473
 6485TIP3    H219462   5.114   5.458   0.941 -1.3951 -0.0078  0.3963
 6486TIP3   OH219463   0.882   3.743   1.177  0.5947 -0.4375 -0.0465
 6486TIP3    H119464   0.820   3.711   1.112  0.6183  0.3808 -0.4906
 6486TIP3    H219465   0.958   3.772   1.126  1.3782 -1.4866  0.4981
 6487TIP3   OH219466   3.831   3.133   1.837 -0.4717 -0.0330 -0.0238
 6487TIP3    H119467   3.835   3.214   1.786 -1.6987 -0.1704 -0.3513
 6487TIP3    H219468   3.873   3.068   1.781 -2.1634 -0.2751 -1.0876
 6488TIP3   OH219469   0.197   4.621   2.142 -0.5166  0.7677  0.1851
 6488TIP3    H119470   0.271   4.662   2.188 -0.7765  0.4857  0.8683
 6488TIP3    H219471   0.120   4.646   2.193 -0.5882 -1.3306  1.2115
 6489TIP3   OH219472   3.354   2.312   3.249 -0.0595  0.1168  0.5641
 6489TIP3    H119473   3.333   2.334   3.340 -0.2102 -0.0183  0.5628
 6489TIP3    H219474   3.429   2.367   3.227  0.2515 -0.1637  0.9122
 6490TIP3   OH219475   2.525   4.587   2.262 -0.2969 -0.7833  0.5740
 6490TIP3    H119476   2.606   4.639   2.270  0.2077 -1.5953  0.9202
 6490TIP3    H219477   2.556   4.497   2.247 -1.1723 -0.6687 -2.3423
 6491TIP3   OH219478   1.290   4.528   1.679 -0.6599  0.0613 -0.5291
 6491TIP3    H119479   1.275   4.547   1.771  0.3318  1.1197 -0.5664
 6491TIP3    H219480   1.202   4.521   1.642 -1.0693 -0.7388  0.5575
 6492TIP3   OH219481   6.275   0.363   0.012 -0.3189 -0.3376  0.2243
 6492TIP3    H119482   6.291   0.293   0.076 -0.6042 -0.4941  0.1240
 6492TIP3    H219483   6.294   0.322  -0.072  2.4733  0.5412  0.3306
 6493TIP3   OH219484   1.855   4.885   2.192  0.0758 -0.3430 -0.0181
 6493TIP3    H119485   1.942   4.887   2.151  0.8908 -0.2445  1.6430
 6493TIP3    H219486   1.795   4.908   2.121  1.5802  1.4427 -0.7932
 6494TIP3   OH219487   4.948   4.389   3.088 -0.5661 -0.2635 -0.4168
 6494TIP3    H119488   4.860   4.414   3.061 -1.9384 -1.7791  2.2786
 6494TIP3    H219489   4.961   4.432   3.172  1.8674  0.9829 -1.3437
 6495TIP3   OH219490   3.576   2.963   4.861  0.2741  0.1287 -0.1543
 6495TIP3    H119491   3.577   3.046   4.814 -1.5245  0.2427 -0.0278
 6495TIP3    H219492   3.593   2.897   4.794  0.4572  0.4921 -0.4682
 6496TIP3   OH219493   4.063   2.029   1.897 -0.0432 -0.3310  0.1959
 6496TIP3    H119494   4.084   1.982   1.977 -0.4632  0.8785  1.0529
 6496TIP3    H219495   3.967   2.029   1.893 -0.0312 -0.1840 -0.1761
 6497TIP3   OH219496   1.306   0.508   1.923 -0.6028 -0.1546 -0.2534
 6497TIP3    H119497   1.246   0.529   1.995 -0.7392 -2.1576  0.2632
 6497TIP3    H219498   1.393   0.512   1.962 -0.4714  1.1393 -0.6118
 6498TIP3   OH219499   2.799   4.061   0.105 -0.3809 -0.1419 -0.4187
 6498TIP3    H119500   2.880   4.102   0.078 -1.3009  0.2101 -2.9078
 6498TIP3    H219501   2.823   3.970   0.125  0.7750  0.2370 -0.0576
 6499TIP3   OH219502   2.056   0.057   0.496  0.3481 -0.1669 -0.0299
 6499TIP3    H119503   2.104  -0.025   0.491 -0.5318 -0.6476 -1.0317
 6499TIP3    H219504   1.974   0.040   0.450 -0.2436  1.0058  0.5353
 6500TIP3   OH219505   5.605   4.623   4.838  0.7518  0.5995 -0.3324
 6500TIP3    H119506   5.558   4.667   4.767  2.5194 -0.2349 -2.0968
 6500TIP3    H219507   5.543   4.557   4.870  0.2903  0.2870 -1.8034
 6501TIP3   OH219508   5.952   0.148   2.845  0.1627 -0.2591  0.0168
 6501TIP3    H119509   5.897   0.092   2.790  0.7536 -0.7501 -0.0865
 6501TIP3    H219510   5.949   0.108   2.932 -0.4955  0.3223  0.2712
 6502TIP3   OH219511   3.706   2.626   2.156 -0.4923  0.0510 -0.6541
 6502TIP3    H119512   3.767   2.648   2.227 -0.6556 -1.0108 -0.1708
 6502TIP3    H219513   3.752   2.558   2.106  0.7416  2.4956 -3.1364
 6503TIP3   OH219514   2.752   3.377   1.527 -0.5235  0.1526 -0.0402
 6503TIP3    H119515   2.752   3.295   1.479  1.4230  0.2507 -0.3063
 6503TIP3    H219516   2.763   3.352   1.618  0.7914  0.1079 -0.1922
 6504TIP3   OH219517   1.439   3.553   1.501  0.2783  0.0878 -0.1143
 6504TIP3    H119518   1.442   3.554   1.597 -0.2288 -0.3248 -0.0901
 6504TIP3    H219519   1.531   3.557   1.474  0.4871 -1.0331  0.4024
 6505TIP3   OH219520   3.677   1.244   1.285  0.2851  0.0308 -0.0386
 6505TIP3    H119521   3.627   1.171   1.250  0.1512  0.3571 -0.5439
 6505TIP3    H219522   3.668   1.313   1.219  1.5836  0.0217 -0.2661
 6506TIP3   OH219523   3.065   5.318   2.388  0.4113 -0.1232 -0.2157
 6506TIP3    H119524   3.048   5.279   2.473  2.1429  0.3608  0.3917
 6506TIP3    H219525   3.030   5.407   2.395 -0.9531 -0.5985 -0.6211
 6507TIP3   OH219526   0.104   3.607   4.354 -0.1653  0.4637  0.3504
 6507TIP3    H119527   0.197   3.626   4.362  0.0315 -0.4944  0.4908
 6507TIP3    H219528   0.069   3.618   4.442 -0.1997  0.9064  0.2809
 6508TIP3   OH219529   2.406   2.049   4.111 -0.3060  0.2723  0.0716
 6508TIP3    H119530   2.327   2.022   4.064 -0.9950  1.1632  0.6787
 6508TIP3    H219531   2.456   1.969   4.123 -0.4513 -0.0982 -1.5401
 6509TIP3   OH219532   4.403   4.392   0.505 -0.3550 -0.7206  0.2735
 6509TIP3    H119533   4.341   4.464   0.500 -0.0828 -0.5564 -1.3084
 6509TIP3    H219534   4.395   4.348   0.421  0.3876 -1.7763  0.7407
 6510TIP3   OH219535   4.943   1.084   1.931 -0.0837 -0.3326 -0.3382
 6510TIP3    H119536   4.966   1.169   1.969 -1.9974  0.0603  0.0192
 6510TIP3    H219537   4.976   1.020   1.995  0.1692  0.1921  0.0640
 6511TIP3   OH219538   3.622   1.385   1.028 -0.4735 -0.3495  0.0049
 6511TIP3    H119539   3.537   1.343   1.017 -0.8758  0.1920  0.9531
 6511TIP3    H219540   3.601   1.477   1.046  0.3883  0.3399 -2.2238
 6512TIP3   OH219541   2.190   3.781   2.224  0.3566  0.1260 -0.1475
 6512TIP3    H119542   2.204   3.694   2.186 -2.4104 -0.9732  1.1310
 6512TIP3    H219543   2.189   3.766   2.319  0.1975  1.6235  0.1087
 6513TIP3   OH219544   0.035   0.568   4.965 -0.1231 -0.2414 -0.5016
 6513TIP3    H119545   0.045   0.656   5.001  0.3174 -0.3388 -0.3789
 6513TIP3    H219546   0.101   0.516   5.011  1.0311 -0.1863 -2.0423
 6514TIP3   OH219547   1.328   1.929   3.142  0.0927  0.6643  0.2438
 6514TIP3    H119548   1.374   1.997   3.191 -0.5185  1.7905 -0.7024
 6514TIP3    H219549   1.296   1.973   3.063  0.1621 -0.8567 -0.6751
 6515TIP3   OH219550   3.635   4.570   2.806  0.1580 -0.0480  0.1183
 6515TIP3    H119551   3.676   4.491   2.841 -0.4110  0.3601  1.8221
 6515TIP3    H219552   3.577   4.538   2.737 -0.1570 -1.1668  0.8607
 6516TIP3   OH219553   0.926   4.298   5.136  0.0752 -0.1111 -0.4644
 6516TIP3    H119554   0.874   4.378   5.144 -0.9003 -0.7416 -0.3314
 6516TIP3    H219555   1.011   4.321   5.173  0.0750  1.0970 -1.1558
 6517TIP3   OH219556   2.297   3.873   1.377  0.4697  0.1137  0.3511
 6517TIP3    H119557   2.209   3.907   1.390  1.1446  2.9249 -1.5570
 6517TIP3    H219558   2.309   3.810   1.449 -1.9402  1.9131  2.5357
 6518TIP3   OH219559   4.879   3.843   2.453  0.4184  0.0917  0.1589
 6518TIP3    H119560   4.927   3.918   2.487 -0.1933  0.5341  0.0670
 6518TIP3    H219561   4.804   3.881   2.407 -0.0070 -0.5786  0.2774
 6519TIP3   OH219562   5.509   1.721   1.857 -0.1643 -0.3096  0.0990
 6519TIP3    H119563   5.424   1.754   1.888  0.0857 -0.2387  0.7295
 6519TIP3    H219564   5.571   1.790   1.882  0.2215 -0.8141  0.5524
 6520TIP3   OH219565   3.448   5.015   2.689  0.0920  0.2189  0.4694
 6520TIP3    H119566   3.537   5.047   2.670 -0.6032  2.6436  0.9234
 6520TIP3    H219567   3.461   4.925   2.719  2.2274 -0.0242 -0.9236
 6521TIP3   OH219568   2.227   0.990   3.670  0.1952  0.1280 -0.0038
 6521TIP3    H119569   2.143   0.949   3.647 -0.2838  0.8927  0.3617
 6521TIP3    H219570   2.264   1.017   3.586  0.2046 -0.4390 -0.1907
 6522TIP3   OH219571   2.528   0.371   3.914 -0.0533 -0.0675  0.4822
 6522TIP3    H119572   2.504   0.463   3.910  1.7757  0.4788  1.0906
 6522TIP3    H219573   2.609   0.364   3.863 -0.2271 -1.3602  0.3385
 6523TIP3   OH219574   3.750   1.195   4.819 -0.3558  0.1024  0.2483
 6523TIP3    H119575   3.794   1.205   4.904  0.6232  0.0410 -0.2336
 6523TIP3    H219576   3.810   1.141   4.768 -1.8900 -1.5918  0.1854
 6524TIP3   OH219577   2.770   1.929   4.644  0.1984  0.2451  0.0057
 6524TIP3    H119578   2.783   1.839   4.612  1.1594  0.1500  0.6087
 6524TIP3    H219579   2.806   1.984   4.575  0.0212  0.1566 -0.1616
 6525TIP3   OH219580   2.408   3.463   3.702  0.1243  0.0425 -0.3134
 6525TIP3    H119581   2.465   3.451   3.778  0.4033 -0.6267 -0.6212
 6525TIP3    H219582   2.323   3.488   3.739  0.6964  1.4174  0.1413
 6526TIP3   OH219583   3.163   0.798   2.727 -0.1419 -0.2967  0.5135
 6526TIP3    H119584   3.157   0.709   2.763  0.7957 -0.7843 -0.4636
 6526TIP3    H219585   3.255   0.807   2.701 -0.4763  0.5388 -0.4546
 6527TIP3   OH219586   5.528   1.130   0.424 -0.4843 -0.1581 -0.0389
 6527TIP3    H119587   5.523   1.078   0.344 -1.1301  0.2645 -0.2791
 6527TIP3    H219588   5.622   1.149   0.434 -0.5902  2.0021 -2.1660
 6528TIP3   OH219589   2.779   2.059   1.576 -0.3553 -0.5239  0.3082
 6528TIP3    H119590   2.766   1.974   1.533  0.2887  0.1464 -1.3013
 6528TIP3    H219591   2.787   2.121   1.503  2.4162  0.4495  1.3176
 6529TIP3   OH219592   5.198   2.606   1.834 -0.3031 -0.2664  0.7294
 6529TIP3    H119593   5.118   2.636   1.876  0.2996  1.1119  0.9483
 6529TIP3    H219594   5.269   2.634   1.892  0.3905 -0.8219  0.1875
 6530TIP3   OH219595   2.167   4.937   0.337 -0.1604  0.1391  0.0304
 6530TIP3    H119596   2.200   5.019   0.301  1.8915  0.8845  3.1612
 6530TIP3    H219597   2.074   4.953   0.352  0.5135  2.7193  2.2606
 6531TIP3   OH219598   3.135   1.487   3.106 -0.4393 -0.1117 -0.0782
 6531TIP3    H119599   3.091   1.566   3.137  2.0168  0.3726  2.6074
 6531TIP3    H219600   3.226   1.500   3.130  0.5791 -2.5842 -2.1765
 6532TIP3   OH219601   1.160   2.126   0.412 -0.2733  0.0848  0.5434
 6532TIP3    H119602   1.166   2.221   0.416 -0.2511  0.0640  1.2084
 6532TIP3    H219603   1.188   2.103   0.324 -0.9144  0.7385  0.1605
 6533TIP3   OH219604   4.616   0.107   2.813 -0.0478  0.6531 -0.0396
 6533TIP3    H119605   4.684   0.070   2.869 -2.0033 -0.1444  2.0003
 6533TIP3    H219606   4.564   0.031   2.787  0.7069  1.0330 -2.9033
 6534TIP3   OH219607   0.550   1.634   4.156  0.0294 -0.4801  0.4040
 6534TIP3    H119608   0.628   1.584   4.179  0.0877 -0.3010  0.5987
 6534TIP3    H219609   0.516   1.665   4.240  2.4367  3.5349  0.1164
 6535TIP3   OH219610   4.517   0.350   0.539 -0.0513  0.2728  0.4710
 6535TIP3    H119611   4.476   0.429   0.502  0.9124  0.1852 -0.8267
 6535TIP3    H219612   4.464   0.278   0.506 -1.4585  0.3641  2.3484
 6536TIP3   OH219613   4.491   2.403   1.427 -0.0631 -0.3476  0.3963
 6536TIP3    H119614   4.541   2.379   1.349 -3.2357 -1.4689 -1.4886
 6536TIP3    H219615   4.523   2.345   1.495  1.1845 -0.9983 -0.7053
 6537TIP3   OH219616   6.223   2.098   3.419 -0.1733 -0.1206 -0.1995
 6537TIP3    H119617   6.258   2.176   3.462 -0.3069 -0.3399  0.3149
 6537TIP3    H219618   6.263   2.025   3.466  0.8439 -0.3747 -1.4121
 6538TIP3   OH219619   3.226   2.790   1.610 -0.0222  0.7847  0.4392
 6538TIP3    H119620   3.234   2.726   1.681 -0.2806  0.2639  0.0067
 6538TIP3    H219621   3.162   2.752   1.551  0.8983  0.7456 -0.5692
 6539TIP3   OH219622   5.967   0.306   3.712 -1.0674  0.1637  0.1169
 6539TIP3    H119623   5.979   0.269   3.800  0.8691 -0.6676 -0.4379
 6539TIP3    H219624   5.985   0.399   3.722 -1.5909  0.2013  0.7341
 6540TIP3   OH219625   4.508   2.608   2.551 -0.0747  0.1717 -0.2235
 6540TIP3    H119626   4.415   2.599   2.528 -0.3649 -2.9939  1.7009
 6540TIP3    H219627   4.507   2.653   2.636  0.1463 -0.1795 -0.0365
 6541TIP3   OH219628   4.182   2.172   2.267 -0.0952  0.3967  0.2399
 6541TIP3    H119629   4.267   2.151   2.307 -0.6783  0.0045  1.3205
 6541TIP3    H219630   4.156   2.091   2.223 -0.4406  0.1294  0.9151
 6542TIP3   OH219631   2.247   0.795   3.861 -0.3951 -0.2736 -0.3579
 6542TIP3    H119632   2.233   0.877   3.814 -0.6958 -0.2599 -0.2474
 6542TIP3    H219633   2.178   0.737   3.830 -0.9652 -0.0679  0.5068
 6543TIP3   OH219634   3.885   1.419   4.612 -0.5059  0.2947 -0.0682
 6543TIP3    H119635   3.804   1.374   4.633 -0.9282  0.5452 -1.1293
 6543TIP3    H219636   3.911   1.386   4.527  1.0104 -0.4540  0.6348
 6544TIP3   OH219637   0.775   5.691   4.155 -0.2982  0.5486  0.0356
 6544TIP3    H119638   0.714   5.656   4.090  0.2558 -0.5495  0.0794
 6544TIP3    H219639   0.862   5.674   4.117  0.1056 -1.5438  1.7090
 6545TIP3   OH219640   1.149   0.543   4.177  0.3405 -0.0979 -0.1797
 6545TIP3    H119641   1.113   0.455   4.170 -0.1096 -0.1674  2.1691
 6545TIP3    H219642   1.076   0.600   4.154 -0.3957 -0.3159  1.4630
 6546TIP3   OH219643   5.365   3.814   4.939  0.2879 -0.1113  0.2583
 6546TIP3    H119644   5.403   3.730   4.968  0.6192  0.3540  1.2135
 6546TIP3    H219645   5.354   3.804   4.845 -1.5663 -1.9885  0.6022
 6547TIP3   OH219646   4.646   5.965   3.686 -0.1706 -0.3638  0.4441
 6547TIP3    H119647   4.632   5.929   3.598  0.5166  1.0899 -0.3053
 6547TIP3    H219648   4.564   6.010   3.706 -0.1502 -0.2644  0.3116
 6548TIP3   OH219649   4.209   4.274   5.140 -0.2494 -0.3804  0.1676
 6548TIP3    H119650   4.194   4.217   5.216  1.1468 -0.2270  0.5867
 6548TIP3    H219651   4.224   4.360   5.177  0.2624 -0.2640 -0.2955
 6549TIP3   OH219652   1.278   0.715   1.159  0.2234  0.1052  0.4116
 6549TIP3    H119653   1.310   0.786   1.215  1.2225 -0.8682  1.1217
 6549TIP3    H219654   1.325   0.726   1.077  2.2472 -1.1276  1.3412
 6550TIP3   OH219655   0.893   3.437   3.433 -0.2888  0.5812 -0.1171
 6550TIP3    H119656   0.809   3.392   3.442  0.5817 -1.3103 -0.8356
 6550TIP3    H219657   0.958   3.368   3.443  1.1908  1.9760  0.2915
 6551TIP3   OH219658   0.481   2.750   1.360  0.5587 -0.3459 -0.1168
 6551TIP3    H119659   0.438   2.713   1.436  0.8633  2.5883  1.6293
 6551TIP3    H219660   0.523   2.675   1.317  0.1076 -2.1375  2.3751
 6552TIP3   OH219661   4.463   0.048   2.414  0.7260 -1.1118  0.2322
 6552TIP3    H119662   4.552   0.039   2.450  1.0067 -3.3400 -0.8433
 6552TIP3    H219663   4.475   0.100   2.335  0.8526 -0.3055  0.7698
 6553TIP3   OH219664   4.774   2.317   0.454 -0.0051 -0.3613 -1.0939
 6553TIP3    H119665   4.707   2.261   0.494 -1.6852  0.9121 -1.9807
 6553TIP3    H219666   4.733   2.347   0.372  0.2213  3.2237 -0.0487
 6554TIP3   OH219667   2.064   0.918   0.305  0.0340 -0.0380 -0.3466
 6554TIP3    H119668   2.080   0.882   0.217  0.3935 -0.3584 -0.1488
 6554TIP3    H219669   2.105   0.856   0.365  0.6255  0.6675  0.0015
 6555TIP3   OH219670   6.352   5.398   1.698 -0.3203 -0.1124 -0.1811
 6555TIP3    H119671   6.401   5.377   1.619 -1.6588 -0.3574 -0.9766
 6555TIP3    H219672   6.270   5.436   1.667 -0.6412  0.3114  1.1064
 6556TIP3   OH219673   4.405   1.132   0.586 -0.1418 -0.2436  0.6964
 6556TIP3    H119674   4.407   1.215   0.634  0.1473 -1.2157  2.4147
 6556TIP3    H219675   4.469   1.076   0.631 -1.1043 -1.7604  0.2458
 6557TIP3   OH219676   3.124   0.956   3.393  0.3430 -0.5063 -0.7067
 6557TIP3    H119677   3.155   1.004   3.316 -0.5971 -0.3393 -0.9900
 6557TIP3    H219678   3.184   0.983   3.462  1.5123 -1.0451 -1.4808
 6558TIP3   OH219679   6.056   5.323   5.035  0.5076  0.0126  0.2141
 6558TIP3    H119680   6.136   5.293   5.079  0.5389  0.4103  0.4275
 6558TIP3    H219681   6.086   5.352   4.948  0.8164  1.4254  0.7658
 6559TIP3   OH219682   4.139   1.908   2.121 -0.2565 -0.3097  0.9452
 6559TIP3    H119683   4.047   1.882   2.121  0.0716 -1.6737 -0.7983
 6559TIP3    H219684   4.184   1.839   2.170 -0.0212 -0.2625  0.7976
 6560TIP3   OH219685   5.429   4.180   2.825  0.2643 -0.0099  0.2296
 6560TIP3    H119686   5.341   4.188   2.787 -0.2337  1.3442  1.5863
 6560TIP3    H219687   5.436   4.088   2.850 -0.7291 -0.1565  0.0127
 6561TIP3   OH219688   1.991   3.077   1.458 -0.2344  0.0366 -0.0903
 6561TIP3    H119689   1.909   3.117   1.488 -0.6118 -0.8176  0.0224
 6561TIP3    H219690   2.043   3.066   1.538 -1.1709 -2.0785  0.2703
 6562TIP3   OH219691   2.050   2.221   2.716  0.7477  0.0595  0.8547
 6562TIP3    H119692   2.066   2.277   2.640 -2.2075 -0.5803 -0.3854
 6562TIP3    H219693   2.048   2.132   2.681 -0.2399 -0.2865  1.7311
 6563TIP3   OH219694   3.281   3.956   3.726  0.3248  0.7948  0.5490
 6563TIP3    H119695   3.229   3.964   3.646  2.7159 -1.1295 -1.3552
 6563TIP3    H219696   3.266   4.038   3.773 -1.2175  1.9767 -1.8222
 6564TIP3   OH219697   2.406   5.014   2.853 -0.1769  0.3919  0.3717
 6564TIP3    H119698   2.439   5.098   2.819  0.7680  0.1446  0.6408
 6564TIP3    H219699   2.364   5.037   2.936 -3.2465  1.1278 -1.2500
 6565TIP3   OH219700   4.131   3.254   0.971 -0.3060 -0.1054 -0.4389
 6565TIP3    H119701   4.083   3.184   0.926  0.3096 -0.0914 -1.1391
 6565TIP3    H219702   4.209   3.268   0.917  0.8318 -0.5757  1.0174
 6566TIP3   OH219703   5.501   4.586   4.501 -0.5744  0.4831  0.3344
 6566TIP3    H119704   5.456   4.620   4.579  0.2161  0.6539  0.7319
 6566TIP3    H219705   5.507   4.492   4.517 -0.9568  0.4362  0.1952
 6567TIP3   OH219706   0.056   5.783   4.077 -0.6888  0.1996 -0.1687
 6567TIP3    H119707   0.011   5.865   4.059 -1.2762 -0.1286 -0.2165
 6567TIP3    H219708   0.149   5.805   4.075 -0.8547  0.9801  0.3813
 6568TIP3   OH219709   0.742   0.207   0.471  0.3312  0.2411 -0.6396
 6568TIP3    H119710   0.764   0.269   0.402  1.4256  1.6658  0.9230
 6568TIP3    H219711   0.769   0.122   0.435 -1.8567  0.4671 -3.0963
 6569TIP3   OH219712   0.126   5.532   5.167  0.0623  0.2354  0.5464
 6569TIP3    H119713   0.048   5.479   5.186  0.2899 -1.3071 -2.2760
 6569TIP3    H219714   0.092   5.607   5.119  0.2522 -0.5845 -0.9449
 6570TIP3   OH219715   5.778   2.439   2.865  0.2269  0.5875  0.5437
 6570TIP3    H119716   5.793   2.415   2.956 -0.1338 -0.4978  0.3272
 6570TIP3    H219717   5.684   2.459   2.861 -0.4042 -2.1587 -0.1621
 6571TIP3   OH219718   5.333   4.610   2.438 -0.1045 -0.3481  0.0588
 6571TIP3    H119719   5.270   4.565   2.493 -1.2404 -0.0502 -0.9627
 6571TIP3    H219720   5.392   4.541   2.407  1.7195 -0.3026  3.0267
 6572TIP3   OH219721   0.905   1.404   2.098 -0.1972  0.1302  0.7617
 6572TIP3    H119722   0.940   1.463   2.031 -0.0054  1.1390  1.7114
 6572TIP3    H219723   0.909   1.455   2.179 -0.1842 -1.1445  1.5929
 6573TIP3   OH219724   1.975   5.635   3.427 -0.1323  0.3422  0.4308
 6573TIP3    H119725   2.056   5.617   3.379 -0.7865  2.4374 -1.6822
 6573TIP3    H219726   1.981   5.728   3.450 -1.2392  0.1254  1.7326
 6574TIP3   OH219727   2.850   1.702   2.069  0.8372 -0.2326 -0.4869
 6574TIP3    H119728   2.943   1.703   2.093  0.7810 -0.4638 -0.2559
 6574TIP3    H219729   2.848   1.743   1.983  0.9974  0.9622  0.0582
 6575TIP3   OH219730   3.061   1.762   4.773  0.3297  0.2242 -0.2554
 6575TIP3    H119731   3.084   1.847   4.734  1.8798  0.4702  1.0913
 6575TIP3    H219732   3.044   1.782   4.865  0.0234 -0.8405 -0.0706
 6576TIP3   OH219733   5.050   4.447   4.679  0.2438 -0.2433  0.1249
 6576TIP3    H119734   4.965   4.406   4.687 -0.0038  0.1690 -0.3205
 6576TIP3    H219735   5.113   4.376   4.693 -0.1278 -1.3332 -2.9272
 6577TIP3   OH219736   1.789   1.436   0.648 -0.0117  1.0088  0.0154
 6577TIP3    H119737   1.809   1.510   0.706 -0.4539  0.6434  0.6452
 6577TIP3    H219738   1.812   1.467   0.561  0.0538  1.7995  0.3067
 6578TIP3   OH219739   2.940   4.972   0.221  0.0204 -0.1729  0.2147
 6578TIP3    H119740   3.010   5.034   0.242 -0.4385 -0.4810  3.0128
 6578TIP3    H219741   2.983   4.887   0.217  0.2716  0.0002 -1.2869
 6579TIP3   OH219742   3.472   0.617   1.367 -0.0372 -0.0512  0.3984
 6579TIP3    H119743   3.398   0.613   1.428 -0.2116 -0.4738  0.1646
 6579TIP3    H219744   3.549   0.618   1.423 -0.0969 -2.4905  0.6438
 6580TIP3   OH219745   1.130   1.920   2.430 -0.3034 -0.2352  0.0541
 6580TIP3    H119746   1.207   1.865   2.418  0.3933 -0.1539  3.3214
 6580TIP3    H219747   1.080   1.910   2.349  1.5861 -2.7721 -0.9113
 6581TIP3   OH219748   1.334   3.385   4.834 -0.8632  0.4993  0.0627
 6581TIP3    H119749   1.402   3.452   4.841 -0.8718  0.5088  0.0570
 6581TIP3    H219750   1.380   3.302   4.848 -0.7675  0.4719 -0.4136
 6582TIP3   OH219751   1.846   2.757   4.107 -0.2500 -0.0226  0.2291
 6582TIP3    H119752   1.896   2.835   4.132  0.6766 -0.5705  0.1074
 6582TIP3    H219753   1.912   2.693   4.081 -1.0739 -0.1476 -1.7168
 6583TIP3   OH219754   1.556   1.001   3.254 -0.4189  0.0566  0.1551
 6583TIP3    H119755   1.557   0.908   3.234  0.9137 -0.1409  1.0061
 6583TIP3    H219756   1.496   1.009   3.329  2.2640 -0.7665  2.5994
 6584TIP3   OH219757   0.103   1.917   3.714 -0.0172 -0.6938  0.0684
 6584TIP3    H119758   0.198   1.928   3.702 -0.0667 -0.8193 -0.4779
 6584TIP3    H219759   0.081   1.842   3.659 -0.7688  0.6155 -1.5349
 6585TIP3   OH219760   0.303   0.514   2.761  0.1957  0.2347  0.3378
 6585TIP3    H119761   0.217   0.542   2.793  0.0897  0.1275  0.1471
 6585TIP3    H219762   0.335   0.589   2.710 -0.2636 -0.1358 -0.5116
 6586TIP3   OH219763   1.142   1.936   0.610  0.2330 -0.0816  0.1286
 6586TIP3    H119764   1.145   1.986   0.691  0.7609  0.5181 -0.2466
 6586TIP3    H219765   1.126   2.002   0.542  0.5721 -0.4646 -0.3340
 6587TIP3   OH219766   2.241   2.160   2.464 -0.4491  0.5448  0.1056
 6587TIP3    H119767   2.216   2.068   2.471  1.1250  0.1172  0.5877
 6587TIP3    H219768   2.317   2.160   2.406  0.1134  1.4167  0.8150
 6588TIP3   OH219769   1.446   4.221   1.270 -0.5874 -0.1794  0.4044
 6588TIP3    H119770   1.436   4.269   1.188 -1.5505 -1.6313 -0.3587
 6588TIP3    H219771   1.426   4.287   1.338  0.2722  1.0447 -0.4788
 6589TIP3   OH219772   4.836   2.471   5.146 -0.3142  0.6681  0.4928
 6589TIP3    H119773   4.797   2.557   5.133 -0.3897  0.9340  2.1905
 6589TIP3    H219774   4.928   2.490   5.168 -0.1076  0.2588 -0.0017
 6590TIP3   OH219775   0.180   2.975   1.186 -0.4814  0.0272  0.6474
 6590TIP3    H119776   0.266   2.994   1.223 -0.5057  0.1831  0.6249
 6590TIP3    H219777   0.161   3.049   1.129 -0.5345 -0.1121  0.4815
 6591TIP3   OH219778   2.152   0.515   0.710  0.6304  0.3326 -0.2282
 6591TIP3    H119779   2.176   0.431   0.671  1.4972  0.4583  0.0219
 6591TIP3    H219780   2.197   0.517   0.794  1.5129  1.5053 -0.7076
 6592TIP3   OH219781   0.838   1.136   2.079  0.6240 -0.0407 -0.5225
 6592TIP3    H119782   0.868   1.224   2.058 -0.7625  0.5604 -0.0826
 6592TIP3    H219783   0.887   1.112   2.158 -0.0432  0.9209  0.1912
 6593TIP3   OH219784   5.216   5.363   4.394 -0.0078 -0.4595  0.4898
 6593TIP3    H119785   5.246   5.454   4.391  0.7043 -0.6981 -0.4053
 6593TIP3    H219786   5.223   5.338   4.486 -0.4775  0.4677  0.7894
 6594TIP3   OH219787   3.772   3.543   0.806 -0.1420  0.3122 -0.2719
 6594TIP3    H119788   3.866   3.534   0.820 -0.2823 -0.9269  0.0527
 6594TIP3    H219789   3.762   3.536   0.711  0.0283 -0.5421 -0.2409
 6595TIP3   OH219790   3.531   0.763   1.668  0.7343  0.0297 -0.3285
 6595TIP3    H119791   3.543   0.775   1.762  1.3495  1.8383 -0.6027
 6595TIP3    H219792   3.603   0.706   1.641  0.0574 -1.2181  0.3958
 6596TIP3   OH219793   2.977   4.374   0.840 -0.0384 -0.5486 -0.1678
 6596TIP3    H119794   2.943   4.305   0.784 -0.4480 -0.6558  0.2105
 6596TIP3    H219795   2.963   4.455   0.791  0.0721 -0.6920 -0.4360
 6597TIP3   OH219796   0.833   1.946   4.681 -0.5300 -0.3814 -0.4655
 6597TIP3    H119797   0.791   2.022   4.641 -0.0219 -0.0901 -0.4568
 6597TIP3    H219798   0.762   1.883   4.694 -0.7693 -0.3366 -1.4687
 6598TIP3   OH219799   2.611   4.089   2.161 -0.2615  0.6173  0.7505
 6598TIP3    H119800   2.698   4.051   2.152  0.1735  1.6377  0.5697
 6598TIP3    H219801   2.579   4.056   2.246 -0.5917 -1.4693 -0.1309
 6599TIP3   OH219802   4.064   4.878   3.515  0.3524 -0.1030 -0.2904
 6599TIP3    H119803   4.107   4.918   3.590  1.3238 -2.4314  0.4879
 6599TIP3    H219804   4.013   4.806   3.552 -1.1481  0.2079 -1.6286
 6600TIP3   OH219805   4.257   3.740   0.439  0.0872  1.0026 -0.5788
 6600TIP3    H119806   4.190   3.693   0.390 -0.1432 -0.6585  1.2053
 6600TIP3    H219807   4.289   3.677   0.503  1.2869  2.6700  0.5613
 6601TIP3   OH219808   0.683   5.965   4.805  0.3071  0.2762  0.3994
 6601TIP3    H119809   0.764   5.942   4.761 -0.1319 -1.2747  0.3584
 6601TIP3    H219810   0.644   5.881   4.830 -1.0120  1.0086  0.9085
 6602TIP3   OH219811   4.986   0.161   3.705 -0.1101 -0.0418 -0.0760
 6602TIP3    H119812   5.013   0.253   3.704  0.6217 -0.2491 -1.1548
 6602TIP3    H219813   4.948   0.146   3.618  1.5602 -1.2413 -0.6561
 6603TIP3   OH219814   6.112   4.245   2.245  0.0777  0.1201  0.5939
 6603TIP3    H119815   6.054   4.319   2.266  1.9564  1.3038  1.9030
 6603TIP3    H219816   6.060   4.167   2.267 -0.8042  1.1438  2.3856
 6604TIP3   OH219817   5.902   5.111   3.953  0.5397  0.0325  0.3758
 6604TIP3    H119818   5.986   5.088   3.915 -0.0927  1.6593 -2.2156
 6604TIP3    H219819   5.891   5.204   3.935 -1.2733  0.1690  1.7972
 6605TIP3   OH219820   1.445   0.446   2.345  0.0176 -0.7316  0.3097
 6605TIP3    H119821   1.525   0.491   2.317 -0.5301 -0.8309 -1.5562
 6605TIP3    H219822   1.380   0.515   2.354  0.2209 -0.6744  1.6573
 6606TIP3   OH219823   5.561   1.667   3.280  0.3364 -0.4124 -0.0668
 6606TIP3    H119824   5.551   1.749   3.230 -1.1381 -0.3338  0.3010
 6606TIP3    H219825   5.602   1.694   3.362  1.4931 -0.3319 -0.6507
 6607TIP3   OH219826   1.724   0.396   0.573  0.1202  0.3712  0.9313
 6607TIP3    H119827   1.634   0.367   0.557 -0.0118  0.7629  0.9627
 6607TIP3    H219828   1.769   0.318   0.605 -0.2735  0.2388  1.1640
 6608TIP3   OH219829   0.616   2.966   2.491  0.0603  0.8395  0.1511
 6608TIP3    H119830   0.692   2.950   2.547  1.4125  1.3585 -1.4142
 6608TIP3    H219831   0.545   2.916   2.530  1.7494 -1.4261  0.5237
 6609TIP3   OH219832   4.088   4.574   3.740  0.2033 -0.1813 -0.1941
 6609TIP3    H119833   4.065   4.482   3.730 -1.4717  0.2739 -0.8201
 6609TIP3    H219834   4.055   4.598   3.827  3.6568 -0.9514  1.5229
 6610TIP3   OH219835   5.582   5.032   0.388  0.3154  0.1882  0.3838
 6610TIP3    H119836   5.510   5.054   0.447 -0.3501  0.6993 -0.6007
 6610TIP3    H219837   5.610   4.945   0.417 -1.6635 -0.6718 -0.1068
 6611TIP3   OH219838   4.488   4.431   2.668 -0.6174  0.2446 -0.0155
 6611TIP3    H119839   4.424   4.426   2.739  0.9778  0.0399  1.4729
 6611TIP3    H219840   4.442   4.395   2.592 -1.9499 -0.8431  1.2349
 6612TIP3   OH219841   5.560   0.852   2.794  0.2194 -0.0489 -0.1163
 6612TIP3    H119842   5.578   0.807   2.877 -0.1146 -2.3782 -1.2174
 6612TIP3    H219843   5.465   0.860   2.791  0.2880  1.0166  0.1781
 6613TIP3   OH219844   3.221   0.369   4.801  0.0716 -0.4065 -0.0753
 6613TIP3    H119845   3.311   0.354   4.831 -0.2511 -1.0856  0.6011
 6613TIP3    H219846   3.174   0.290   4.829 -0.7433 -0.0250 -0.3646
 6614TIP3   OH219847   2.992   4.521   1.512 -0.0290 -0.5915 -0.3767
 6614TIP3    H119848   3.057   4.552   1.450  1.0533 -0.9888  0.5133
 6614TIP3    H219849   2.970   4.432   1.483 -0.4570 -0.3228 -0.8853
 6615TIP3   OH219850   0.072   5.545   2.225 -0.2177  0.1255  0.7228
 6615TIP3    H119851   0.011   5.613   2.199  0.8912  1.2754  1.0160
 6615TIP3    H219852   0.158   5.589   2.226  0.8526 -1.7665 -1.1194
 6616TIP3   OH219853   3.573   1.734   4.852  0.0474  0.2780  0.2075
 6616TIP3    H119854   3.486   1.765   4.874 -0.5358 -1.2635  0.2178
 6616TIP3    H219855   3.590   1.768   4.764 -1.8897 -1.8784 -1.1150
 6617TIP3   OH219856   2.107   3.933   2.935  0.9047 -0.3192 -0.5097
 6617TIP3    H119857   2.045   3.948   3.006  2.0117 -0.5830  0.5423
 6617TIP3    H219858   2.192   3.925   2.978  1.9466  1.6146 -2.0255
 6618TIP3   OH219859   1.781   0.612   3.203  0.5456 -0.0074  0.0029
 6618TIP3    H119860   1.688   0.625   3.184  0.1666 -2.1966  0.0751
 6618TIP3    H219861   1.801   0.678   3.270 -1.2537 -0.2198  0.8153
 6619TIP3   OH219862   2.843   1.625   3.006  0.1681  0.6377  0.1241
 6619TIP3    H119863   2.853   1.553   3.068 -0.4586  3.1035  3.3837
 6619TIP3    H219864   2.749   1.630   2.990  0.1361  1.1344  0.4553
 6620TIP3   OH219865   0.429   5.690   1.499  0.2066  0.0249  0.2169
 6620TIP3    H119866   0.409   5.613   1.446 -1.1177  0.8066 -0.4658
 6620TIP3    H219867   0.428   5.763   1.436 -1.3081  0.9595  1.2679
 6621TIP3   OH219868   2.351   0.688   2.102 -0.2227  0.4168  0.0838
 6621TIP3    H119869   2.300   0.714   2.179 -1.2196 -1.4873  0.1254
 6621TIP3    H219870   2.442   0.689   2.132 -0.0740  4.1621 -0.0800
 6622TIP3   OH219871   1.736   4.323   4.469  0.8114 -0.5114  0.2041
 6622TIP3    H119872   1.695   4.238   4.457 -1.4946  0.5130  0.1729
 6622TIP3    H219873   1.745   4.359   4.381 -1.6665  0.6873  0.3354
 6623TIP3   OH219874   3.820   1.478   3.345 -0.1041  0.4798  0.7467
 6623TIP3    H119875   3.909   1.447   3.328  0.3921  1.5256  1.3200
 6623TIP3    H219876   3.774   1.401   3.378 -0.5862 -1.1516 -3.2009
 6624TIP3   OH219877   3.937   4.863   0.572  0.1035 -0.3479 -0.0156
 6624TIP3    H119878   3.945   4.769   0.562  1.3479 -0.2704  0.0911
 6624TIP3    H219879   3.974   4.900   0.491  0.5594  0.0533  0.3638
 6625TIP3   OH219880   5.841   4.005   3.450 -0.0035 -0.5745 -0.1514
 6625TIP3    H119881   5.852   4.100   3.446 -0.8772 -0.3496  1.7184
 6625TIP3    H219882   5.766   3.987   3.394  1.4170 -0.4852 -2.2139
 6626TIP3   OH219883   3.452   5.340   0.281 -0.1543 -0.3753  0.7550
 6626TIP3    H119884   3.400   5.323   0.359 -0.5554 -0.2633  0.5163
 6626TIP3    H219885   3.397   5.398   0.228 -0.5675 -1.6672 -0.3051
 6627TIP3   OH219886   2.064   1.557   1.212  0.2486  0.4639 -0.1776
 6627TIP3    H119887   2.053   1.572   1.306  2.0165 -1.2428  0.3602
 6627TIP3    H219888   2.135   1.493   1.206 -0.7034 -0.4604 -2.6318
 6628TIP3   OH219889   0.859   4.601   4.069 -0.1422  0.4793  0.6532
 6628TIP3    H119890   0.817   4.565   3.991 -0.0355  1.1261  0.2969
 6628TIP3    H219891   0.787   4.618   4.130 -0.4738  2.0649 -0.1478
 6629TIP3   OH219892   4.595   4.357   4.350 -0.0069 -0.2703 -0.2273
 6629TIP3    H119893   4.600   4.452   4.335 -0.8021 -0.2702 -0.5553
 6629TIP3    H219894   4.527   4.348   4.416  1.2700 -0.5044  1.1097
 6630TIP3   OH219895   1.085   0.536   0.502  0.3090 -0.2718  0.0612
 6630TIP3    H119896   1.132   0.612   0.537  0.7826  0.5315 -2.1573
 6630TIP3    H219897   0.995   0.566   0.492  0.0849 -0.6344  0.9505
 6631TIP3   OH219898   2.359   5.626   0.990  0.0637  0.1858 -0.0744
 6631TIP3    H119899   2.363   5.540   1.032 -0.4198  0.5005  0.6314
 6631TIP3    H219900   2.444   5.636   0.947  0.1496 -0.6103 -0.1000
 6632TIP3   OH219901   6.103   4.470   4.794 -0.0871  0.3876 -0.5581
 6632TIP3    H119902   6.036   4.409   4.764  0.2940 -0.3619  0.0716
 6632TIP3    H219903   6.058   4.554   4.799 -0.2830  0.4538 -2.7009
 6633TIP3   OH219904   1.688   2.751   1.395 -0.0852 -0.7007 -0.0573
 6633TIP3    H119905   1.616   2.808   1.368  1.0903  1.3427  0.8909
 6633TIP3    H219906   1.648   2.664   1.402 -2.1902  0.1468 -0.5793
 6634TIP3   OH219907   3.757   5.591   4.609 -0.3343  0.2479  0.1230
 6634TIP3    H119908   3.686   5.650   4.583  1.1224  1.6791 -0.8491
 6634TIP3    H219909   3.761   5.597   4.704 -2.8813 -1.5745  0.4248
 6635TIP3   OH219910   5.159   2.635   3.173  0.3555  0.0107  0.1241
 6635TIP3    H119911   5.110   2.591   3.103  0.4588  0.7496 -0.4213
 6635TIP3    H219912   5.133   2.588   3.253 -0.5256 -0.2104 -0.2765
 6636TIP3   OH219913   1.033   4.288   4.010 -0.4515 -0.2863 -0.0533
 6636TIP3    H119914   0.991   4.274   3.925  0.1479 -1.3568 -0.1996
 6636TIP3    H219915   0.985   4.232   4.070 -2.5148  2.3312  0.9220
 6637TIP3   OH219916   2.183   4.630   0.568  0.5015 -0.1979  0.6699
 6637TIP3    H119917   2.161   4.560   0.507 -2.0595  1.3533 -0.3749
 6637TIP3    H219918   2.275   4.648   0.552  0.5236 -1.5332 -0.9513
 6638TIP3   OH219919   2.289   4.253   4.644 -0.1955 -0.8386  0.6732
 6638TIP3    H119920   2.197   4.226   4.638 -0.2871 -0.4357  0.1917
 6638TIP3    H219921   2.307   4.255   4.738 -1.4289  1.5150  0.9289
 6639TIP3   OH219922   6.001   1.469   2.175  0.7036  0.0769  0.5504
 6639TIP3    H119923   5.928   1.521   2.210  0.4175 -0.7084  1.1384
 6639TIP3    H219924   5.983   1.380   2.204  0.4361 -0.6411 -1.6316
 6640TIP3   OH219925   5.635   3.072   2.465  0.2448  0.0368  0.0505
 6640TIP3    H119926   5.623   2.988   2.421 -0.3508  0.3297 -0.3721
 6640TIP3    H219927   5.598   3.059   2.552  0.4111 -0.2202  0.0843
 6641TIP3   OH219928   0.762   4.158   3.621 -0.2632  0.0059  0.0854
 6641TIP3    H119929   0.670   4.176   3.600  0.1982  1.6300 -0.6738
 6641TIP3    H219930   0.811   4.195   3.548  0.9672 -1.8268 -0.0831
 6642TIP3   OH219931   2.811   1.121   1.442  0.2119 -0.1793  0.1607
 6642TIP3    H119932   2.730   1.171   1.427  0.0405 -0.4945  0.0193
 6642TIP3    H219933   2.839   1.094   1.355  0.3961 -0.1871  0.2224
 6643TIP3   OH219934   0.102   1.626   3.407  0.0612  0.1245  0.4579
 6643TIP3    H119935   0.144   1.679   3.339  0.6400  0.5787  1.1617
 6643TIP3    H219936   0.034   1.683   3.443 -0.0257  0.0048  0.4811
 6644TIP3   OH219937   2.566   1.345   3.595  0.3314 -0.1486  0.5943
 6644TIP3    H119938   2.587   1.427   3.551  0.6530 -1.2573 -1.4428
 6644TIP3    H219939   2.504   1.369   3.664  0.0323  1.7205 -0.2910
 6645TIP3   OH219940   1.051   0.640   0.158 -0.3112 -0.0763 -0.4500
 6645TIP3    H119941   1.060   0.550   0.188 -2.1739 -0.8603 -2.0438
 6645TIP3    H219942   1.077   0.638   0.066 -0.0538  1.1121 -0.4275
   6.35286   5.98953   5.18709   0.00000   0.00000  -2.11763   0.00000  -2.11763  -2.99477
