Generated by CHARMM-GUI FF-Converter
51109
    1GLY      N    1   6.687   4.656   3.775
    1GLY    HT1    2   6.771   4.716   3.784
    1GLY    HT2    3   6.618   4.702   3.708
    1GLY    HT3    4   6.714   4.565   3.733
    1GLY     CA    5   6.619   4.635   3.902
    1GLY    HA1    6   6.595   4.732   3.943
    1GLY    HA2    7   6.685   4.576   3.963
    1GLY      C    8   6.487   4.560   3.888
    1GLY      O    9   6.438   4.541   3.776
    2PRO      N   10   6.415   4.513   3.998
    2PRO     CD   11   6.479   4.504   4.116
    2PRO    HD1   12   6.480   4.604   4.164
    2PRO    HD2   13   6.582   4.462   4.109
    2PRO     CA   14   6.284   4.450   3.989
    2PRO     HA   15   6.288   4.373   3.914
    2PRO     CB   16   6.262   4.395   4.131
    2PRO    HB1   17   6.229   4.289   4.127
    2PRO    HB2   18   6.185   4.455   4.187
    2PRO     CG   19   6.394   4.411   4.198
    2PRO    HG1   20   6.384   4.445   4.304
    2PRO    HG2   21   6.442   4.310   4.199
    2PRO      C   22   6.173   4.548   3.951
    2PRO      O   23   6.189   4.669   3.968
    3GLY      N   24   6.068   4.498   3.891
    3GLY     HN   25   6.062   4.399   3.876
    3GLY     CA   26   5.953   4.578   3.855
    3GLY    HA1   27   5.883   4.515   3.803
    3GLY    HA2   28   5.986   4.662   3.795
    3GLY      C   29   5.880   4.635   3.976
    3GLY      O   30   5.904   4.593   4.089
    4ASP      N   31   5.798   4.742   3.943
    4ASP     HN   32   5.790   4.781   3.852
    4ASP     CA   33   5.710   4.794   4.048
    4ASP     HA   34   5.777   4.824   4.127
    4ASP     CB   35   5.633   4.916   3.997
    4ASP    HB1   36   5.554   4.949   4.068
    4ASP    HB2   37   5.584   4.891   3.901
    4ASP     CG   38   5.722   5.037   3.974
    4ASP    OD1   39   5.833   5.044   4.032
    4ASP    OD2   40   5.681   5.127   3.897
    4ASP      C   41   5.613   4.687   4.096
    4ASP      O   42   5.570   4.601   4.019
    5PRO      N   43   5.571   4.684   4.218
    5PRO     CD   44   5.614   4.773   4.310
    5PRO    HD1   45   5.579   4.876   4.284
    5PRO    HD2   46   5.725   4.772   4.320
    5PRO     CA   47   5.466   4.592   4.261
    5PRO     HA   48   5.502   4.491   4.247
    5PRO     CB   49   5.442   4.632   4.407
    5PRO    HB1   50   5.443   4.542   4.473
    5PRO    HB2   51   5.344   4.684   4.420
    5PRO     CG   52   5.552   4.727   4.439
    5PRO    HG1   53   5.518   4.812   4.502
    5PRO    HG2   54   5.630   4.672   4.498
    5PRO      C   55   5.337   4.607   4.179
    5PRO      O   56   5.313   4.713   4.121
    6GLY      N   57   5.268   4.498   4.179
    6GLY     HN   58   5.299   4.415   4.224
    6GLY     CA   59   5.139   4.501   4.112
    6GLY    HA1   60   5.098   4.401   4.116
    6GLY    HA2   61   5.153   4.535   4.010
    6GLY      C   62   5.039   4.593   4.179
    6GLY      O   63   5.061   4.639   4.292
    7SER      N   64   4.935   4.616   4.107
    7SER     HN   65   4.923   4.582   4.014
    7SER     CA   66   4.827   4.695   4.164
    7SER     HA   67   4.869   4.786   4.206
    7SER     CB   68   4.727   4.735   4.056
    7SER    HB1   69   4.643   4.796   4.097
    7SER    HB2   70   4.682   4.643   4.012
    7SER     OG   71   4.790   4.809   3.953
    7SER    HG1   72   4.781   4.902   3.980
    7SER      C   73   4.755   4.619   4.275
    7SER      O   74   4.763   4.497   4.282
    8ASP      N   75   4.691   4.703   4.343
    8ASP     HN   76   4.685   4.801   4.327
    8ASP     CA   77   4.603   4.641   4.442
    8ASP     HA   78   4.661   4.573   4.504
    8ASP     CB   79   4.541   4.747   4.532
    8ASP    HB1   80   4.464   4.703   4.599
    8ASP    HB2   81   4.492   4.825   4.470
    8ASP     CG   82   4.643   4.816   4.621
    8ASP    OD1   83   4.759   4.769   4.629
    8ASP    OD2   84   4.607   4.919   4.684
    8ASP      C   85   4.494   4.559   4.374
    8ASP      O   86   4.452   4.590   4.263
    9GLY      N   87   4.453   4.440   4.450
    9GLY     HN   88   4.492   4.418   4.539
    9GLY     CA   89   4.343   4.361   4.398
    9GLY    HA1   90   4.334   4.275   4.463
    9GLY    HA2   91   4.368   4.336   4.296
    9GLY      C   92   4.211   4.435   4.400
    9GLY      O   93   4.201   4.545   4.453
   10PRO      N   94   4.110   4.368   4.352
   10PRO     CD   95   4.114   4.241   4.298
   10PRO    HD1   96   4.147   4.167   4.375
   10PRO    HD2   97   4.183   4.238   4.211
   10PRO     CA   98   3.976   4.428   4.356
   10PRO     HA   99   3.981   4.530   4.321
   10PRO     CB  100   3.893   4.337   4.265
   10PRO    HB1  101   3.887   4.386   4.165
   10PRO    HB2  102   3.790   4.319   4.301
   10PRO     CG  103   3.974   4.212   4.254
   10PRO    HG1  104   3.931   4.136   4.324
   10PRO    HG2  105   3.970   4.167   4.152
   10PRO      C  106   3.918   4.432   4.498
   10PRO      O  107   3.962   4.357   4.585
   11GLY      N  108   3.827   4.515   4.522
   11GLY     HN  109   3.796   4.577   4.450
   11GLY     CA  110   3.761   4.521   4.651
   11GLY    HA1  111   3.696   4.607   4.649
   11GLY    HA2  112   3.836   4.527   4.729
   11GLY      C  113   3.674   4.400   4.679
   11GLY      O  114   3.650   4.318   4.590
   12ASP      N  115   3.628   4.371   4.795
   12ASP     HN  116   3.663   4.424   4.872
   12ASP     CA  117   3.535   4.267   4.837
   12ASP     HA  118   3.584   4.176   4.806
   12ASP     CB  119   3.518   4.268   4.989
   12ASP    HB1  120   3.438   4.200   5.023
   12ASP    HB2  121   3.492   4.371   5.018
   12ASP     CG  122   3.645   4.229   5.063
   12ASP    OD1  123   3.729   4.157   5.006
   12ASP    OD2  124   3.660   4.270   5.180
   12ASP      C  125   3.400   4.284   4.769
   12ASP      O  126   3.359   4.396   4.738
   13PRO      N  127   3.334   4.182   4.756
   13PRO     CD  128   3.378   4.053   4.762
   13PRO    HD1  129   3.391   4.023   4.869
   13PRO    HD2  130   3.474   4.038   4.706
   13PRO     CA  131   3.197   4.201   4.706
   13PRO     HA  132   3.199   4.257   4.613
   13PRO     CB  133   3.147   4.058   4.687
   13PRO    HB1  134   3.095   4.048   4.590
   13PRO    HB2  135   3.075   4.028   4.768
   13PRO     CG  136   3.269   3.973   4.697
   13PRO    HG1  137   3.249   3.879   4.752
   13PRO    HG2  138   3.302   3.944   4.594
   13PRO      C  139   3.109   4.277   4.805
   13PRO      O  140   3.135   4.276   4.926
   14GLY      N  141   3.007   4.344   4.764
   14GLY     HN  142   2.989   4.344   4.667
   14GLY     CA  143   2.907   4.411   4.846
   14GLY    HA1  144   2.837   4.459   4.779
   14GLY    HA2  145   2.957   4.480   4.912
   14GLY      C  146   2.827   4.315   4.932
   14GLY      O  147   2.824   4.195   4.906
   15SER      N  148   2.785   4.347   5.038
   15SER     HN  149   2.801   4.438   5.073
   15SER     CA  150   2.699   4.269   5.127
   15SER     HA  151   2.752   4.179   5.154
   15SER     CB  152   2.667   4.349   5.253
   15SER    HB1  153   2.606   4.289   5.325
   15SER    HB2  154   2.607   4.439   5.225
   15SER     OG  155   2.786   4.394   5.316
   15SER    HG1  156   2.800   4.335   5.392
   15SER      C  157   2.570   4.228   5.057
   15SER      O  158   2.522   4.297   4.967
   16ASP      N  159   2.512   4.104   5.069
   16ASP     HN  160   2.567   4.034   5.112
   16ASP     CA  161   2.390   4.051   5.009
   16ASP     HA  162   2.397   4.066   4.902
   16ASP     CB  163   2.375   3.903   5.041
   16ASP    HB1  164   2.281   3.864   4.996
   16ASP    HB2  165   2.370   3.886   5.150
   16ASP     CG  166   2.487   3.818   4.984
   16ASP    OD1  167   2.545   3.856   4.880
   16ASP    OD2  168   2.517   3.712   5.043
   16ASP      C  169   2.267   4.128   5.058
   16ASP    OT1  170   2.285   4.223   5.139
   16ASP    OT2  171   2.154   4.093   5.014
   17SOD    SOD  172   7.426   5.701   6.027
   18SOD    SOD  173   4.586   1.329   2.760
   19SOD    SOD  174   5.787   6.581   5.046
   20SOD    SOD  175   5.131   5.992   1.027
   21SOD    SOD  176   4.566   6.682   7.562
   22SOD    SOD  177   2.287   1.476   2.204
   23SOD    SOD  178   5.355   3.138   3.124
   24SOD    SOD  179   5.528   3.602   7.415
   25SOD    SOD  180   9.604   6.785   4.398
   26SOD    SOD  181   4.598   1.686   1.371
   27SOD    SOD  182   2.043   4.117   4.826
   28SOD    SOD  183   3.058   0.763   1.973
   29SOD    SOD  184   5.014   4.932   0.944
   30SOD    SOD  185   0.652   7.135   4.957
   31SOD    SOD  186   2.242   6.233   7.328
   32SOD    SOD  187   6.115   2.189   4.739
   33SOD    SOD  188   6.456   8.130   3.133
   34SOD    SOD  189   2.799   0.992   4.495
   35SOD    SOD  190   1.399   4.955   6.833
   36SOD    SOD  191   9.003   5.173   6.892
   37SOD    SOD  192   8.110   5.428   4.154
   38SOD    SOD  193   4.959   5.153   4.536
   39SOD    SOD  194   5.289   6.702   4.057
   40SOD    SOD  195   6.136   0.382   4.084
   41SOD    SOD  196   5.303   2.002   5.562
   42SOD    SOD  197   2.983   0.037   4.416
   43SOD    SOD  198   4.170   6.810   3.804
   44SOD    SOD  199   5.268   8.064   3.475
   45SOD    SOD  200   6.431   5.353   5.493
   46SOD    SOD  201   3.432   4.369   2.788
   47SOD    SOD  202   1.950   0.860   4.054
   48SOD    SOD  203   3.557   2.399   0.498
   49SOD    SOD  204   3.135   3.608   0.432
   50SOD    SOD  205   4.255   5.573   0.333
   51SOD    SOD  206   4.462   4.414   5.284
   52SOD    SOD  207   1.718   1.407   2.788
   53SOD    SOD  208   8.846   4.633   6.226
   54SOD    SOD  209   2.838   8.275   6.141
   55SOD    SOD  210   2.402   1.906   1.325
   56SOD    SOD  211   8.581   4.721   5.826
   57SOD    SOD  212   7.079   5.764   3.121
   58SOD    SOD  213   3.812   6.361   0.087
   59SOD    SOD  214   5.599   1.355   6.175
   60SOD    SOD  215   6.132   4.212   1.620
   61SOD    SOD  216   3.295   5.133   0.291
   62SOD    SOD  217   0.981   2.661   2.666
   63SOD    SOD  218   1.874   6.348   5.342
   64SOD    SOD  219   8.703   4.855   3.961
   65SOD    SOD  220   4.602   5.550   8.272
   66SOD    SOD  221   1.410   7.479   3.806
   67SOD    SOD  222   4.339   3.604   1.083
   68SOD    SOD  223   8.183   3.358   2.401
   69CLA    CLA  224   8.682   5.902   3.003
   70CLA    CLA  225   5.222   4.477   1.078
   71CLA    CLA  226   6.309   0.945   4.563
   72CLA    CLA  227   2.410   3.249   0.561
   73CLA    CLA  228   1.231   3.102   3.807
   74CLA    CLA  229   5.690   3.814   8.035
   75CLA    CLA  230   8.929   5.631   5.931
   76CLA    CLA  231   5.429   8.059   7.210
   77CLA    CLA  232   0.234   4.830   4.993
   78CLA    CLA  233   8.668   4.619   6.031
   79CLA    CLA  234   2.064   7.234   5.135
   80CLA    CLA  235   1.753   5.076   7.224
   81CLA    CLA  236   4.181  -0.364   2.655
   82CLA    CLA  237   4.511   6.748   4.009
   83CLA    CLA  238   5.607   1.059   1.510
   84CLA    CLA  239   4.842   3.433   2.782
   85CLA    CLA  240   2.976   2.505   6.000
   86CLA    CLA  241   5.455   6.169   5.863
   87CLA    CLA  242   3.360   2.367   0.664
   88CLA    CLA  243   2.663   4.709   7.699
   89CLA    CLA  244   2.531   0.894   3.497
   90CLA    CLA  245   1.571   4.755   3.926
   91CLA    CLA  246   2.795   4.186  -0.324
   92CLA    CLA  247   6.438   2.513   4.377
   93CLA    CLA  248   4.390   5.337   3.445
   94CLA    CLA  249   6.353   1.357   1.327
   95CLA    CLA  250   5.015   1.321   3.833
   96CLA    CLA  251   3.397   4.561   0.287
   97CLA    CLA  252   2.054   5.489   5.539
   98CLA    CLA  253   5.156   7.794   2.612
   99CLA    CLA  254   0.852   2.546   2.482
  100CLA    CLA  255  -0.362   3.775   2.424
  101CLA    CLA  256   6.715   4.633   2.503
  102CLA    CLA  257   6.174   1.003   6.067
  103CLA    CLA  258   8.343   5.427   3.695
  104CLA    CLA  259   2.115   1.635   2.690
  105CLA    CLA  260   3.078   1.136   3.090
  106CLA    CLA  261   4.952   5.513   0.641
  107CLA    CLA  262   2.231   3.918   8.304
  108CLA    CLA  263   5.926   5.664   3.009
  109CLA    CLA  264   0.875   4.743   3.438
  110CLA    CLA  265   7.406   6.842   5.269
  111CLA    CLA  266   1.686   2.612   1.638
  112CLA    CLA  267   4.812   4.690   5.231
  113CLA    CLA  268   0.870   3.027   5.525
  114CLA    CLA  269   6.065   3.173   5.217
  115CLA    CLA  270   4.942   8.575   5.577
  116CLA    CLA  271   5.352   6.898   3.588
  117TIP3   OH2  272   3.239   0.252   2.335
  117TIP3    H1  273   3.221   0.161   2.362
  117TIP3    H2  274   3.154   0.294   2.362
  118TIP3   OH2  275   2.932   0.617   2.409
  118TIP3    H1  276   2.863   0.684   2.404
  118TIP3    H2  277   3.004   0.663   2.457
  119TIP3   OH2  278   3.100   0.077   2.703
  119TIP3    H1  279   3.037   0.095   2.776
  119TIP3    H2  280   3.151   0.161   2.701
  120TIP3   OH2  281   2.987   0.348   2.401
  120TIP3    H1  282   2.893   0.323   2.411
  120TIP3    H2  283   2.977   0.445   2.408
  121TIP3   OH2  284   4.537   0.020   1.298
  121TIP3    H1  285   4.472  -0.017   1.360
  121TIP3    H2  286   4.548   0.111   1.332
  122TIP3   OH2  287   4.163   0.488   1.299
  122TIP3    H1  288   4.218   0.422   1.250
  122TIP3    H2  289   4.191   0.471   1.390
  123TIP3   OH2  290   3.722   0.076   1.939
  123TIP3    H1  291   3.690   0.169   1.933
  123TIP3    H2  292   3.652   0.040   1.999
  124TIP3   OH2  293   4.560   0.277   1.417
  124TIP3    H1  294   4.471   0.272   1.458
  124TIP3    H2  295   4.557   0.366   1.375
  125TIP3   OH2  296   4.316   0.327   1.146
  125TIP3    H1  297   4.323   0.247   1.090
  125TIP3    H2  298   4.350   0.394   1.084
  126TIP3   OH2  299   4.794   0.186   1.776
  126TIP3    H1  300   4.783   0.109   1.715
  126TIP3    H2  301   4.779   0.261   1.714
  127TIP3   OH2  302   4.678  -0.275   1.941
  127TIP3    H1  303   4.677  -0.197   2.000
  127TIP3    H2  304   4.604  -0.256   1.882
  128TIP3   OH2  305   4.323   0.267   1.546
  128TIP3    H1  306   4.315   0.348   1.601
  128TIP3    H2  307   4.312   0.195   1.612
  129TIP3   OH2  308   3.939   0.192   2.089
  129TIP3    H1  309   3.884   0.257   2.139
  129TIP3    H2  310   3.869   0.131   2.059
  130TIP3   OH2  311   3.731   0.353   2.184
  130TIP3    H1  312   3.685   0.366   2.100
  130TIP3    H2  313   3.656   0.333   2.244
  131TIP3   OH2  314   5.031   0.532   1.825
  131TIP3    H1  315   5.030   0.436   1.841
  131TIP3    H2  316   4.948   0.559   1.869
  132TIP3   OH2  317   4.139   0.322   1.950
  132TIP3    H1  318   4.138   0.413   1.987
  132TIP3    H2  319   4.070   0.279   2.005
  133TIP3   OH2  320   4.927  -0.372   2.084
  133TIP3    H1  321   4.849  -0.315   2.081
  133TIP3    H2  322   4.905  -0.437   2.015
  134TIP3   OH2  323   3.518   0.042   2.130
  134TIP3    H1  324   3.583   0.051   2.203
  134TIP3    H2  325   3.455  -0.020   2.173
  135TIP3   OH2  326   4.695  -0.544   2.036
  135TIP3    H1  327   4.681  -0.528   2.131
  135TIP3    H2  328   4.683  -0.454   2.002
  136TIP3   OH2  329   4.410  -0.346   2.247
  136TIP3    H1  330   4.378  -0.400   2.324
  136TIP3    H2  331   4.504  -0.335   2.271
  137TIP3   OH2  332   4.391  -0.332   1.806
  137TIP3    H1  333   4.467  -0.387   1.778
  137TIP3    H2  334   4.360  -0.384   1.884
  138TIP3   OH2  335   4.727   0.881   1.919
  138TIP3    H1  336   4.726   0.904   1.824
  138TIP3    H2  337   4.810   0.925   1.948
  139TIP3   OH2  338   3.686   0.027   2.340
  139TIP3    H1  339   3.765   0.040   2.397
  139TIP3    H2  340   3.621  -0.002   2.406
  140TIP3   OH2  341   4.747  -0.017   1.603
  140TIP3    H1  342   4.801   0.016   1.528
  140TIP3    H2  343   4.670  -0.053   1.558
  141TIP3   OH2  344   4.234   0.037   1.976
  141TIP3    H1  345   4.279   0.003   2.055
  141TIP3    H2  346   4.228   0.132   1.996
  142TIP3   OH2  347   4.195  -0.161   2.260
  142TIP3    H1  348   4.158  -0.245   2.290
  142TIP3    H2  349   4.289  -0.186   2.257
  143TIP3   OH2  350   4.412   0.308   1.875
  143TIP3    H1  351   4.316   0.313   1.886
  143TIP3    H2  352   4.443   0.362   1.950
  144TIP3   OH2  353   5.042   0.250   1.864
  144TIP3    H1  354   4.945   0.238   1.854
  144TIP3    H2  355   5.071   0.222   1.774
  145TIP3   OH2  356   4.489  -0.185   1.523
  145TIP3    H1  357   4.466  -0.223   1.609
  145TIP3    H2  358   4.563  -0.240   1.493
  146TIP3   OH2  359   3.936   0.370   1.760
  146TIP3    H1  360   3.959   0.444   1.701
  146TIP3    H2  361   4.018   0.362   1.812
  147TIP3   OH2  362   4.309   0.039   1.710
  147TIP3    H1  363   4.285   0.034   1.805
  147TIP3    H2  364   4.396  -0.003   1.711
  148TIP3   OH2  365   4.554   0.568   1.756
  148TIP3    H1  366   4.474   0.512   1.748
  148TIP3    H2  367   4.540   0.632   1.683
  149TIP3   OH2  368   4.330  -0.484   2.027
  149TIP3    H1  369   4.356  -0.430   2.105
  149TIP3    H2  370   4.333  -0.573   2.064
  150TIP3   OH2  371   4.578   0.547   1.347
  150TIP3    H1  372   4.538   0.600   1.274
  150TIP3    H2  373   4.673   0.567   1.329
  151TIP3   OH2  374   3.354   0.580   2.320
  151TIP3    H1  375   3.438   0.582   2.372
  151TIP3    H2  376   3.335   0.485   2.321
  152TIP3   OH2  377   3.829   0.535   2.371
  152TIP3    H1  378   3.923   0.511   2.381
  152TIP3    H2  379   3.802   0.474   2.300
  153TIP3   OH2  380   4.467   0.445   2.106
  153TIP3    H1  381   4.461   0.375   2.176
  153TIP3    H2  382   4.545   0.496   2.136
  154TIP3   OH2  383   3.480  -0.019   2.526
  154TIP3    H1  384   3.514  -0.112   2.526
  154TIP3    H2  385   3.385  -0.036   2.518
  155TIP3   OH2  386   4.088   0.090   2.307
  155TIP3    H1  387   4.048   0.104   2.219
  155TIP3    H2  388   4.135   0.004   2.293
  156TIP3   OH2  389   4.572   0.079   1.902
  156TIP3    H1  390   4.652   0.116   1.860
  156TIP3    H2  391   4.510   0.154   1.888
  157TIP3   OH2  392   3.601  -0.261   2.511
  157TIP3    H1  393   3.646  -0.343   2.487
  157TIP3    H2  394   3.634  -0.245   2.602
  158TIP3   OH2  395   4.001  -0.366   2.223
  158TIP3    H1  396   3.962  -0.300   2.281
  158TIP3    H2  397   4.030  -0.313   2.145
  159TIP3   OH2  398   4.458   0.006   2.299
  159TIP3    H1  399   4.536  -0.029   2.254
  159TIP3    H2  400   4.455  -0.055   2.376
  160TIP3   OH2  401   4.094  -0.635   2.305
  160TIP3    H1  402   4.068  -0.702   2.239
  160TIP3    H2  403   4.054  -0.553   2.272
  161TIP3   OH2  404   4.067  -0.258   1.982
  161TIP3    H1  405   4.132  -0.328   1.964
  161TIP3    H2  406   4.109  -0.180   1.942
  162TIP3   OH2  407   4.685  -0.350   2.292
  162TIP3    H1  408   4.694  -0.386   2.384
  162TIP3    H2  409   4.715  -0.260   2.307
  163TIP3   OH2  410   4.711  -0.046   2.099
  163TIP3    H1  411   4.651   0.005   2.040
  163TIP3    H2  412   4.798  -0.027   2.058
  164TIP3   OH2  413   3.888  -0.479   2.504
  164TIP3    H1  414   3.862  -0.483   2.598
  164TIP3    H2  415   3.982  -0.454   2.514
  165TIP3   OH2  416   4.306  -0.513   2.429
  165TIP3    H1  417   4.262  -0.463   2.502
  165TIP3    H2  418   4.233  -0.573   2.403
  166TIP3   OH2  419   4.829   0.644   1.311
  166TIP3    H1  420   4.866   0.673   1.396
  166TIP3    H2  421   4.902   0.664   1.250
  167TIP3   OH2  422   4.857   0.656   1.596
  167TIP3    H1  423   4.818   0.566   1.592
  167TIP3    H2  424   4.941   0.636   1.640
  168TIP3   OH2  425   4.907   0.331   2.168
  168TIP3    H1  426   4.836   0.343   2.234
  168TIP3    H2  427   4.950   0.418   2.170
  169TIP3   OH2  428   4.913   0.113   1.418
  169TIP3    H1  429   4.913   0.060   1.334
  169TIP3    H2  430   4.910   0.203   1.379
  170TIP3   OH2  431   4.732   0.401   1.611
  170TIP3    H1  432   4.662   0.446   1.662
  170TIP3    H2  433   4.683   0.359   1.538
  171TIP3   OH2  434   4.961  -0.008   1.988
  171TIP3    H1  435   5.024  -0.081   1.969
  171TIP3    H2  436   4.984   0.056   1.919
  172TIP3   OH2  437   5.133  -0.221   1.994
  172TIP3    H1  438   5.070  -0.286   2.034
  172TIP3    H2  439   5.215  -0.236   2.043
  173TIP3   OH2  440   1.452   6.453   8.636
  173TIP3    H1  441   1.380   6.508   8.670
  173TIP3    H2  442   1.457   6.479   8.543
  174TIP3   OH2  443   4.439   0.510   0.969
  174TIP3    H1  444   4.520   0.464   0.942
  174TIP3    H2  445   4.475   0.584   1.022
  175TIP3   OH2  446   3.511   0.316   2.347
  175TIP3    H1  447   3.420   0.282   2.335
  175TIP3    H2  448   3.531   0.284   2.436
  176TIP3   OH2  449   3.688   0.337   1.877
  176TIP3    H1  450   3.650   0.421   1.843
  176TIP3    H2  451   3.779   0.349   1.842
  177TIP3   OH2  452   4.136   0.585   2.035
  177TIP3    H1  453   4.178   0.582   2.124
  177TIP3    H2  454   4.202   0.637   1.985
  178TIP3   OH2  455   4.317   0.736   1.896
  178TIP3    H1  456   4.389   0.687   1.854
  178TIP3    H2  457   4.369   0.794   1.956
  179TIP3   OH2  458   3.393   0.607   1.910
  179TIP3    H1  459   3.308   0.562   1.897
  179TIP3    H2  460   3.392   0.634   2.003
  180TIP3   OH2  461   3.625   0.578   1.771
  180TIP3    H1  462   3.540   0.594   1.819
  180TIP3    H2  463   3.601   0.610   1.681
  181TIP3   OH2  464   4.034   0.598   1.584
  181TIP3    H1  465   3.964   0.616   1.518
  181TIP3    H2  466   4.044   0.687   1.625
  182TIP3   OH2  467   4.302   0.536   1.625
  182TIP3    H1  468   4.208   0.560   1.614
  182TIP3    H2  469   4.347   0.613   1.585
  183TIP3   OH2  470   4.501   0.730   1.540
  183TIP3    H1  471   4.490   0.815   1.493
  183TIP3    H2  472   4.533   0.671   1.468
  184TIP3   OH2  473   4.781   0.610   1.922
  184TIP3    H1  474   4.704   0.582   1.868
  184TIP3    H2  475   4.766   0.707   1.926
  185TIP3   OH2  476   5.546   0.370   1.457
  185TIP3    H1  477   5.537   0.463   1.428
  185TIP3    H2  478   5.468   0.364   1.516
  186TIP3   OH2  479   5.756   0.450   1.610
  186TIP3    H1  480   5.690   0.516   1.642
  186TIP3    H2  481   5.700   0.401   1.547
  187TIP3   OH2  482   5.491   0.013   1.750
  187TIP3    H1  483   5.479   0.109   1.769
  187TIP3    H2  484   5.415  -0.004   1.692
  188TIP3   OH2  485   5.535   0.609   1.667
  188TIP3    H1  486   5.503   0.643   1.582
  188TIP3    H2  487   5.452   0.589   1.715
  189TIP3   OH2  488   5.105   0.166   1.615
  189TIP3    H1  489   5.040   0.142   1.545
  189TIP3    H2  490   5.137   0.079   1.647
  190TIP3   OH2  491   4.951   0.344   1.262
  190TIP3    H1  492   5.034   0.326   1.217
  190TIP3    H2  493   4.971   0.427   1.308
  191TIP3   OH2  494   5.918   0.568   1.418
  191TIP3    H1  495   5.939   0.657   1.457
  191TIP3    H2  496   5.872   0.527   1.494
  192TIP3   OH2  497   5.325   0.327   1.599
  192TIP3    H1  498   5.362   0.323   1.689
  192TIP3    H2  499   5.244   0.271   1.608
  193TIP3   OH2  500   6.543   1.129   1.422
  193TIP3    H1  501   6.475   1.190   1.387
  193TIP3    H2  502   6.604   1.191   1.465
  194TIP3   OH2  503   5.467   0.275   1.839
  194TIP3    H1  504   5.548   0.300   1.886
  194TIP3    H2  505   5.401   0.278   1.911
  195TIP3   OH2  506   5.198  -0.037   1.775
  195TIP3    H1  507   5.238  -0.062   1.860
  195TIP3    H2  508   5.183  -0.125   1.735
  196TIP3   OH2  509   5.720   0.652   1.246
  196TIP3    H1  510   5.754   0.730   1.201
  196TIP3    H2  511   5.796   0.624   1.301
  197TIP3   OH2  512   5.148   0.527   1.398
  197TIP3    H1  513   5.205   0.463   1.445
  197TIP3    H2  514   5.184   0.612   1.429
  198TIP3   OH2  515   5.147   0.838   1.823
  198TIP3    H1  516   5.233   0.842   1.872
  198TIP3    H2  517   5.138   0.742   1.813
  199TIP3   OH2  518   5.617   0.789   1.868
  199TIP3    H1  519   5.713   0.796   1.870
  199TIP3    H2  520   5.603   0.734   1.788
  200TIP3   OH2  521   6.267   0.713   1.609
  200TIP3    H1  522   6.266   0.638   1.671
  200TIP3    H2  523   6.343   0.765   1.641
  201TIP3   OH2  524   5.266   0.239   2.022
  201TIP3    H1  525   5.276   0.143   2.030
  201TIP3    H2  526   5.181   0.246   1.974
  202TIP3   OH2  527   5.886   0.334   1.813
  202TIP3    H1  528   5.838   0.372   1.736
  202TIP3    H2  529   5.935   0.262   1.767
  203TIP3   OH2  530   5.385  -0.056   2.015
  203TIP3    H1  531   5.466  -0.061   1.960
  203TIP3    H2  532   5.414   0.005   2.086
  204TIP3   OH2  533   4.734   0.635   0.800
  204TIP3    H1  534   4.691   0.567   0.746
  204TIP3    H2  535   4.774   0.585   0.875
  205TIP3   OH2  536   4.872   0.512   0.996
  205TIP3    H1  537   4.882   0.426   1.037
  205TIP3    H2  538   4.940   0.563   1.045
  206TIP3   OH2  539   5.307   0.561   1.824
  206TIP3    H1  540   5.212   0.541   1.821
  206TIP3    H2  541   5.325   0.563   1.919
  207TIP3   OH2  542   5.486   0.617   1.374
  207TIP3    H1  543   5.431   0.682   1.324
  207TIP3    H2  544   5.573   0.638   1.332
  208TIP3   OH2  545   5.959   0.813   1.518
  208TIP3    H1  546   5.966   0.848   1.608
  208TIP3    H2  547   5.994   0.889   1.466
  209TIP3   OH2  548   6.085   1.002   1.368
  209TIP3    H1  549   6.153   0.960   1.314
  209TIP3    H2  550   6.141   1.048   1.435
  210TIP3   OH2  551   5.152   0.843   1.429
  210TIP3    H1  552   5.065   0.883   1.407
  210TIP3    H2  553   5.188   0.910   1.490
  211TIP3   OH2  554   5.351   0.797   1.228
  211TIP3    H1  555   5.292   0.844   1.290
  211TIP3    H2  556   5.376   0.868   1.166
  212TIP3   OH2  557   5.874   0.883   1.037
  212TIP3    H1  558   5.778   0.888   1.012
  212TIP3    H2  559   5.872   0.951   1.109
  213TIP3   OH2  560   5.072   0.641   1.150
  213TIP3    H1  561   5.108   0.629   1.240
  213TIP3    H2  562   5.149   0.605   1.099
  214TIP3   OH2  563   6.591   0.863   1.445
  214TIP3    H1  564   6.520   0.831   1.388
  214TIP3    H2  565   6.584   0.961   1.431
  215TIP3   OH2  566   2.987   0.997   1.971
  215TIP3    H1  567   2.927   1.046   1.911
  215TIP3    H2  568   3.020   1.071   2.026
  216TIP3   OH2  569   2.393   1.845   1.554
  216TIP3    H1  570   2.317   1.817   1.612
  216TIP3    H2  571   2.387   1.942   1.563
  217TIP3   OH2  572   2.633   1.743   1.934
  217TIP3    H1  573   2.627   1.668   1.871
  217TIP3    H2  574   2.619   1.820   1.874
  218TIP3   OH2  575   2.835   1.379   1.790
  218TIP3    H1  576   2.752   1.432   1.785
  218TIP3    H2  577   2.870   1.394   1.699
  219TIP3   OH2  578   2.510   1.252   2.058
  219TIP3    H1  579   2.527   1.331   2.114
  219TIP3    H2  580   2.443   1.285   1.996
  220TIP3   OH2  581   2.187   1.828   1.728
  220TIP3    H1  582   2.164   1.921   1.752
  220TIP3    H2  583   2.219   1.793   1.813
  221TIP3   OH2  584   1.733   1.705   2.320
  221TIP3    H1  585   1.693   1.790   2.345
  221TIP3    H2  586   1.737   1.717   2.222
  222TIP3   OH2  587   1.564   1.924   2.332
  222TIP3    H1  588   1.512   1.960   2.258
  222TIP3    H2  589   1.494   1.914   2.401
  223TIP3   OH2  590   2.877   2.090   1.975
  223TIP3    H1  591   2.875   1.995   1.996
  223TIP3    H2  592   2.793   2.119   2.018
  224TIP3   OH2  593   2.012   1.877   2.119
  224TIP3    H1  594   1.995   1.967   2.155
  224TIP3    H2  595   1.920   1.846   2.104
  225TIP3   OH2  596   2.777   1.206   2.248
  225TIP3    H1  597   2.685   1.228   2.228
  225TIP3    H2  598   2.768   1.125   2.300
  226TIP3   OH2  599   2.560   0.999   2.166
  226TIP3    H1  600   2.501   0.971   2.240
  226TIP3    H2  601   2.530   1.090   2.151
  227TIP3   OH2  602   2.247   1.252   2.364
  227TIP3    H1  603   2.228   1.175   2.421
  227TIP3    H2  604   2.336   1.271   2.397
  228TIP3   OH2  605   2.571   2.437   2.071
  228TIP3    H1  606   2.565   2.470   1.979
  228TIP3    H2  607   2.648   2.488   2.104
  229TIP3   OH2  608   2.616   1.536   1.758
  229TIP3    H1  609   2.658   1.579   1.680
  229TIP3    H2  610   2.529   1.517   1.718
  230TIP3   OH2  611   2.132   1.641   2.171
  230TIP3    H1  612   2.083   1.631   2.257
  230TIP3    H2  613   2.099   1.731   2.150
  231TIP3   OH2  614   1.999   1.338   2.456
  231TIP3    H1  615   1.947   1.288   2.392
  231TIP3    H2  616   2.090   1.317   2.429
  232TIP3   OH2  617   2.265   1.882   2.017
  232TIP3    H1  618   2.171   1.884   2.044
  232TIP3    H2  619   2.304   1.927   2.096
  233TIP3   OH2  620   2.887   1.797   2.013
  233TIP3    H1  621   2.789   1.795   2.007
  233TIP3    H2  622   2.910   1.769   1.921
  234TIP3   OH2  623   1.828   1.978   1.889
  234TIP3    H1  624   1.831   2.036   1.810
  234TIP3    H2  625   1.878   2.031   1.952
  235TIP3   OH2  626   2.245   1.592   1.891
  235TIP3    H1  627   2.184   1.621   1.960
  235TIP3    H2  628   2.186   1.543   1.831
  236TIP3   OH2  629   2.400   2.122   1.900
  236TIP3    H1  630   2.316   2.072   1.903
  236TIP3    H2  631   2.381   2.189   1.830
  237TIP3   OH2  632   2.814   0.892   2.165
  237TIP3    H1  633   2.721   0.907   2.193
  237TIP3    H2  634   2.833   0.975   2.119
  238TIP3   OH2  635   2.440   2.101   1.465
  238TIP3    H1  636   2.399   2.176   1.416
  238TIP3    H2  637   2.534   2.132   1.469
  239TIP3   OH2  638   1.191   2.139   2.482
  239TIP3    H1  639   1.272   2.160   2.532
  239TIP3    H2  640   1.192   2.043   2.487
  240TIP3   OH2  641   1.667   2.089   2.534
  240TIP3    H1  642   1.763   2.085   2.546
  240TIP3    H2  643   1.655   2.040   2.451
  241TIP3   OH2  644   2.323   1.990   2.271
  241TIP3    H1  645   2.355   1.924   2.333
  241TIP3    H2  646   2.389   2.062   2.286
  242TIP3   OH2  647   1.976   1.605   2.378
  242TIP3    H1  648   1.884   1.639   2.374
  242TIP3    H2  649   1.972   1.539   2.450
  243TIP3   OH2  650   2.433   1.657   2.103
  243TIP3    H1  651   2.510   1.687   2.050
  243TIP3    H2  652   2.364   1.712   2.061
  244TIP3   OH2  653   2.309   1.541   2.413
  244TIP3    H1  654   2.384   1.578   2.461
  244TIP3    H2  655   2.237   1.550   2.478
  245TIP3   OH2  656   2.507   1.241   2.495
  245TIP3    H1  657   2.529   1.161   2.548
  245TIP3    H2  658   2.587   1.294   2.508
  246TIP3   OH2  659   2.567   1.463   2.223
  246TIP3    H1  660   2.524   1.547   2.195
  246TIP3    H2  661   2.658   1.484   2.194
  247TIP3   OH2  662   2.187   1.061   2.552
  247TIP3    H1  663   2.170   1.069   2.648
  247TIP3    H2  664   2.101   1.031   2.520
  248TIP3   OH2  665   2.417   0.953   2.390
  248TIP3    H1  666   2.343   0.962   2.453
  248TIP3    H2  667   2.489   0.920   2.446
  249TIP3   OH2  668   2.648   0.893   2.536
  249TIP3    H1  669   2.657   0.798   2.562
  249TIP3    H2  670   2.628   0.937   2.621
  250TIP3   OH2  671   2.687   2.197   1.465
  250TIP3    H1  672   2.710   2.234   1.553
  250TIP3    H2  673   2.747   2.248   1.408
  251TIP3   OH2  674   2.699   2.213   1.745
  251TIP3    H1  675   2.667   2.121   1.747
  251TIP3    H2  676   2.778   2.206   1.800
  252TIP3   OH2  677   2.744   1.888   2.311
  252TIP3    H1  678   2.674   1.899   2.378
  252TIP3    H2  679   2.789   1.975   2.315
  253TIP3   OH2  680   2.735   1.660   1.549
  253TIP3    H1  681   2.754   1.603   1.471
  253TIP3    H2  682   2.750   1.748   1.508
  254TIP3   OH2  683   2.578   1.958   1.770
  254TIP3    H1  684   2.513   2.010   1.822
  254TIP3    H2  685   2.524   1.916   1.702
  255TIP3   OH2  686   2.804   1.553   2.135
  255TIP3    H1  687   2.877   1.488   2.123
  255TIP3    H2  688   2.833   1.627   2.079
  256TIP3   OH2  689   2.981   1.351   2.138
  256TIP3    H1  690   2.911   1.296   2.180
  256TIP3    H2  691   3.059   1.296   2.156
  257TIP3   OH2  692   2.744   1.154   1.910
  257TIP3    H1  693   2.672   1.192   1.963
  257TIP3    H2  694   2.783   1.235   1.870
  258TIP3   OH2  695   3.182   0.744   2.463
  258TIP3    H1  696   3.246   0.682   2.425
  258TIP3    H2  697   3.162   0.802   2.388
  259TIP3   OH2  698   3.053   0.910   2.282
  259TIP3    H1  699   3.025   0.953   2.366
  259TIP3    H2  700   2.963   0.889   2.247
  260TIP3   OH2  701   1.365   1.862   2.507
  260TIP3    H1  702   1.291   1.802   2.493
  260TIP3    H2  703   1.370   1.866   2.603
  261TIP3   OH2  704   1.971   2.142   2.176
  261TIP3    H1  705   2.007   2.145   2.267
  261TIP3    H2  706   2.039   2.195   2.129
  262TIP3   OH2  707   2.167   2.286   2.055
  262TIP3    H1  708   2.245   2.254   2.009
  262TIP3    H2  709   2.209   2.351   2.116
  263TIP3   OH2  710   1.881   2.167   1.694
  263TIP3    H1  711   1.799   2.187   1.646
  263TIP3    H2  712   1.892   2.250   1.747
  264TIP3   OH2  713   2.141   2.093   1.755
  264TIP3    H1  714   2.048   2.120   1.739
  264TIP3    H2  715   2.186   2.178   1.739
  265TIP3   OH2  716   2.340   2.285   1.691
  265TIP3    H1  717   2.323   2.379   1.665
  265TIP3    H2  718   2.376   2.251   1.609
  266TIP3   OH2  719   2.699   0.631   2.595
  266TIP3    H1  720   2.706   0.602   2.689
  266TIP3    H2  721   2.759   0.567   2.554
  267TIP3   OH2  722   2.627   2.169   2.065
  267TIP3    H1  723   2.547   2.144   2.014
  267TIP3    H2  724   2.612   2.266   2.073
  268TIP3   OH2  725   3.896   1.546   0.841
  268TIP3    H1  726   3.861   1.633   0.812
  268TIP3    H2  727   3.825   1.489   0.807
  269TIP3   OH2  728   3.899   1.547   1.221
  269TIP3    H1  729   3.930   1.517   1.308
  269TIP3    H2  730   3.861   1.466   1.184
  270TIP3   OH2  731   3.219   1.441   1.585
  270TIP3    H1  732   3.247   1.374   1.652
  270TIP3    H2  733   3.296   1.499   1.583
  271TIP3   OH2  734   4.142   1.848   0.897
  271TIP3    H1  735   4.118   1.781   0.962
  271TIP3    H2  736   4.173   1.922   0.953
  272TIP3   OH2  737   3.165   1.839   1.299
  272TIP3    H1  738   3.159   1.742   1.303
  272TIP3    H2  739   3.262   1.851   1.289
  273TIP3   OH2  740   3.689   1.767   1.267
  273TIP3    H1  741   3.731   1.694   1.219
  273TIP3    H2  742   3.771   1.816   1.293
  274TIP3   OH2  743   4.698   1.092   1.258
  274TIP3    H1  744   4.740   1.170   1.301
  274TIP3    H2  745   4.741   1.094   1.170
  275TIP3   OH2  746   4.111   1.268   1.294
  275TIP3    H1  747   4.147   1.179   1.311
  275TIP3    H2  748   4.068   1.255   1.207
  276TIP3   OH2  749   4.137   1.023   0.900
  276TIP3    H1  750   4.218   1.009   0.953
  276TIP3    H2  751   4.174   1.037   0.812
  277TIP3   OH2  752   3.523   1.319   1.161
  277TIP3    H1  753   3.619   1.318   1.181
  277TIP3    H2  754   3.513   1.229   1.128
  278TIP3   OH2  755   4.774   1.298   1.432
  278TIP3    H1  756   4.703   1.362   1.417
  278TIP3    H2  757   4.806   1.324   1.520
  279TIP3   OH2  758   3.435   0.904   1.694
  279TIP3    H1  759   3.380   0.943   1.624
  279TIP3    H2  760   3.376   0.910   1.772
  280TIP3   OH2  761   3.777   1.749   0.708
  280TIP3    H1  762   3.750   1.744   0.614
  280TIP3    H2  763   3.737   1.835   0.733
  281TIP3   OH2  764   3.545   1.689   1.486
  281TIP3    H1  765   3.487   1.760   1.521
  281TIP3    H2  766   3.591   1.734   1.412
  282TIP3   OH2  767   4.355   1.021   1.060
  282TIP3    H1  768   4.333   0.981   1.145
  282TIP3    H2  769   4.406   1.100   1.085
  283TIP3   OH2  770   3.326   1.025   1.470
  283TIP3    H1  771   3.385   1.099   1.496
  283TIP3    H2  772   3.360   1.007   1.381
  284TIP3   OH2  773   3.376   1.886   1.586
  284TIP3    H1  774   3.353   1.975   1.550
  284TIP3    H2  775   3.296   1.869   1.640
  285TIP3   OH2  776   4.211   2.092   1.063
  285TIP3    H1  777   4.122   2.081   1.105
  285TIP3    H2  778   4.199   2.177   1.016
  286TIP3   OH2  779   4.499   0.989   1.431
  286TIP3    H1  780   4.411   1.006   1.394
  286TIP3    H2  781   4.559   1.018   1.359
  287TIP3   OH2  782   3.804   0.626   1.417
  287TIP3    H1  783   3.767   0.539   1.436
  287TIP3    H2  784   3.729   0.682   1.446
  288TIP3   OH2  785   3.890   2.142   0.717
  288TIP3    H1  786   3.944   2.060   0.707
  288TIP3    H2  787   3.959   2.208   0.697
  289TIP3   OH2  788   4.041   1.924   0.652
  289TIP3    H1  789   4.027   1.844   0.600
  289TIP3    H2  790   4.080   1.889   0.735
  290TIP3   OH2  791   4.431   1.999   1.398
  290TIP3    H1  792   4.411   1.928   1.334
  290TIP3    H2  793   4.409   2.079   1.345
  291TIP3   OH2  794   3.732   1.399   0.665
  291TIP3    H1  795   3.651   1.455   0.666
  291TIP3    H2  796   3.769   1.419   0.578
  292TIP3   OH2  797   4.084   1.497   0.649
  292TIP3    H1  798   4.028   1.517   0.727
  292TIP3    H2  799   4.166   1.467   0.692
  293TIP3   OH2  800   4.301   1.515   1.554
  293TIP3    H1  801   4.293   1.596   1.607
  293TIP3    H2  802   4.213   1.513   1.510
  294TIP3   OH2  803   3.304   1.458   1.058
  294TIP3    H1  804   3.283   1.398   0.986
  294TIP3    H2  805   3.387   1.418   1.094
  295TIP3   OH2  806   3.433   1.875   1.201
  295TIP3    H1  807   3.423   1.846   1.109
  295TIP3    H2  808   3.523   1.843   1.222
  296TIP3   OH2  809   3.442   1.450   1.399
  296TIP3    H1  810   3.479   1.424   1.312
  296TIP3    H2  811   3.486   1.536   1.417
  297TIP3   OH2  812   3.977   2.080   1.192
  297TIP3    H1  813   3.950   2.163   1.236
  297TIP3    H2  814   3.950   2.011   1.255
  298TIP3   OH2  815   3.581   1.999   1.734
  298TIP3    H1  816   3.520   2.061   1.779
  298TIP3    H2  817   3.517   1.947   1.681
  299TIP3   OH2  818   3.956   1.340   0.469
  299TIP3    H1  819   4.003   1.401   0.530
  299TIP3    H2  820   3.951   1.395   0.387
  300TIP3   OH2  821   3.340   1.558   1.841
  300TIP3    H1  822   3.344   1.647   1.880
  300TIP3    H2  823   3.245   1.538   1.853
  301TIP3   OH2  824   3.664   1.995   0.748
  301TIP3    H1  825   3.742   2.055   0.749
  301TIP3    H2  826   3.590   2.056   0.748
  302TIP3   OH2  827   3.374   2.163   1.820
  302TIP3    H1  828   3.338   2.172   1.730
  302TIP3    H2  829   3.293   2.143   1.872
  303TIP3   OH2  830   4.226   1.951   0.062
  303TIP3    H1  831   4.242   2.045   0.040
  303TIP3    H2  832   4.315   1.913   0.052
  304TIP3   OH2  833   2.948   1.696   1.768
  304TIP3    H1  834   2.896   1.666   1.692
  304TIP3    H2  835   2.995   1.614   1.796
  305TIP3   OH2  836   2.799   1.895   1.414
  305TIP3    H1  837   2.893   1.878   1.401
  305TIP3    H2  838   2.803   1.979   1.464
  306TIP3   OH2  839   4.668   2.348   1.468
  306TIP3    H1  840   4.660   2.259   1.507
  306TIP3    H2  841   4.584   2.387   1.501
  307TIP3   OH2  842   3.777   2.128   1.591
  307TIP3    H1  843   3.773   2.221   1.621
  307TIP3    H2  844   3.705   2.088   1.645
  308TIP3   OH2  845   2.978   2.105   0.920
  308TIP3    H1  846   3.020   2.089   1.008
  308TIP3    H2  847   2.913   2.034   0.914
  309TIP3   OH2  848   3.742   2.155   0.202
  309TIP3    H1  849   3.779   2.098   0.131
  309TIP3    H2  850   3.819   2.157   0.260
  310TIP3   OH2  851   3.733   2.233   0.497
  310TIP3    H1  852   3.701   2.144   0.474
  310TIP3    H2  853   3.802   2.209   0.564
  311TIP3   OH2  854   4.557   1.472   1.729
  311TIP3    H1  855   4.465   1.475   1.698
  311TIP3    H2  856   4.575   1.376   1.726
  312TIP3   OH2  857   3.155   1.881   1.748
  312TIP3    H1  858   3.204   1.871   1.831
  312TIP3    H2  859   3.080   1.820   1.761
  313TIP3   OH2  860   3.559   0.705   1.537
  313TIP3    H1  861   3.478   0.669   1.494
  313TIP3    H2  862   3.521   0.778   1.589
  314TIP3   OH2  863   4.095   0.821   1.736
  314TIP3    H1  864   4.164   0.794   1.800
  314TIP3    H2  865   4.012   0.803   1.784
  315TIP3   OH2  866   4.324   1.254   1.653
  315TIP3    H1  867   4.274   1.246   1.738
  315TIP3    H2  868   4.293   1.339   1.618
  316TIP3   OH2  869   3.487   1.231   1.553
  316TIP3    H1  870   3.444   1.255   1.637
  316TIP3    H2  871   3.471   1.312   1.499
  317TIP3   OH2  872   3.868   1.210   0.809
  317TIP3    H1  873   3.827   1.279   0.753
  317TIP3    H2  874   3.922   1.162   0.742
  318TIP3   OH2  875   4.038   1.467   1.883
  318TIP3    H1  876   4.015   1.395   1.946
  318TIP3    H2  877   4.131   1.482   1.908
  319TIP3   OH2  878   4.018   1.225   1.040
  319TIP3    H1  879   3.957   1.246   0.966
  319TIP3    H2  880   4.055   1.142   1.001
  320TIP3   OH2  881   3.309   1.256   1.767
  320TIP3    H1  882   3.351   1.315   1.832
  320TIP3    H2  883   3.297   1.174   1.818
  321TIP3   OH2  884   4.036   1.464   1.461
  321TIP3    H1  885   4.065   1.393   1.399
  321TIP3    H2  886   4.000   1.409   1.534
  322TIP3   OH2  887   3.685   0.984   1.175
  322TIP3    H1  888   3.623   0.915   1.150
  322TIP3    H2  889   3.768   0.936   1.186
  323TIP3   OH2  890   4.193   1.005   1.340
  323TIP3    H1  891   4.159   1.021   1.430
  323TIP3    H2  892   4.123   0.948   1.304
  324TIP3   OH2  893   4.366   2.695   1.557
  324TIP3    H1  894   4.363   2.721   1.464
  324TIP3    H2  895   4.446   2.741   1.588
  325TIP3   OH2  896   3.319   1.805   1.974
  325TIP3    H1  897   3.400   1.835   2.021
  325TIP3    H2  898   3.255   1.808   2.047
  326TIP3   OH2  899   3.784   1.274   1.233
  326TIP3    H1  900   3.833   1.222   1.168
  326TIP3    H2  901   3.779   1.211   1.308
  327TIP3   OH2  902   3.755   1.154   1.534
  327TIP3    H1  903   3.668   1.198   1.536
  327TIP3    H2  904   3.816   1.221   1.572
  328TIP3   OH2  905   3.500   1.554   0.666
  328TIP3    H1  906   3.404   1.538   0.686
  328TIP3    H2  907   3.520   1.610   0.744
  329TIP3   OH2  908   4.418   1.755   1.248
  329TIP3    H1  909   4.443   1.809   1.169
  329TIP3    H2  910   4.329   1.723   1.221
  330TIP3   OH2  911   3.891   1.863   1.618
  330TIP3    H1  912   3.926   1.853   1.707
  330TIP3    H2  913   3.856   1.953   1.617
  331TIP3   OH2  914   4.018   1.103   0.600
  331TIP3    H1  915   4.115   1.103   0.610
  331TIP3    H2  916   4.002   1.181   0.543
  332TIP3   OH2  917   3.181   1.559   1.292
  332TIP3    H1  918   3.216   1.525   1.207
  332TIP3    H2  919   3.238   1.513   1.355
  333TIP3   OH2  920   3.671   1.719   0.457
  333TIP3    H1  921   3.619   1.801   0.442
  333TIP3    H2  922   3.600   1.658   0.477
  334TIP3   OH2  923   3.076   1.492   1.904
  334TIP3    H1  924   3.097   1.480   1.999
  334TIP3    H2  925   3.003   1.428   1.893
  335TIP3   OH2  926   3.799   1.606   1.923
  335TIP3    H1  927   3.740   1.547   1.873
  335TIP3    H2  928   3.887   1.571   1.895
  336TIP3   OH2  929   4.054   2.116   1.516
  336TIP3    H1  930   3.957   2.122   1.524
  336TIP3    H2  931   4.081   2.173   1.591
  337TIP3   OH2  932   4.433   1.185   0.425
  337TIP3    H1  933   4.421   1.131   0.345
  337TIP3    H2  934   4.424   1.276   0.388
  338TIP3   OH2  935   4.682   2.044   1.489
  338TIP3    H1  936   4.584   2.038   1.479
  338TIP3    H2  937   4.705   2.079   1.402
  339TIP3   OH2  938   4.164   2.015   0.325
  339TIP3    H1  939   4.135   1.940   0.378
  339TIP3    H2  940   4.173   1.976   0.236
  340TIP3   OH2  941   4.170   1.641   1.171
  340TIP3    H1  942   4.074   1.624   1.181
  340TIP3    H2  943   4.195   1.563   1.116
  341TIP3   OH2  944   3.276   1.874   0.911
  341TIP3    H1  945   3.289   1.955   0.858
  341TIP3    H2  946   3.180   1.872   0.915
  342TIP3   OH2  947   3.452   1.664   0.922
  342TIP3    H1  948   3.394   1.742   0.912
  342TIP3    H2  949   3.395   1.601   0.969
  343TIP3   OH2  950   3.560   2.215   1.383
  343TIP3    H1  951   3.600   2.289   1.332
  343TIP3    H2  952   3.637   2.180   1.429
  344TIP3   OH2  953   3.215   2.108   0.764
  344TIP3    H1  954   3.135   2.135   0.812
  344TIP3    H2  955   3.257   2.195   0.742
  345TIP3   OH2  956   3.938   1.849   1.349
  345TIP3    H1  957   3.929   1.847   1.446
  345TIP3    H2  958   4.018   1.796   1.335
  346TIP3   OH2  959   3.901   1.760   0.234
  346TIP3    H1  960   3.966   1.725   0.298
  346TIP3    H2  961   3.822   1.768   0.290
  347TIP3   OH2  962   4.192   2.381   1.391
  347TIP3    H1  963   4.109   2.329   1.382
  347TIP3    H2  964   4.178   2.448   1.320
  348TIP3   OH2  965   4.264   2.227   0.038
  348TIP3    H1  966   4.312   2.307   0.012
  348TIP3    H2  967   4.181   2.266   0.073
  349TIP3   OH2  968   3.269   0.956   1.927
  349TIP3    H1  969   3.200   1.012   1.966
  349TIP3    H2  970   3.328   0.941   2.003
  350TIP3   OH2  971   4.085   1.693   0.449
  350TIP3    H1  972   4.075   1.627   0.521
  350TIP3    H2  973   4.180   1.682   0.430
  351TIP3   OH2  974   2.992   2.075   1.545
  351TIP3    H1  975   3.055   2.015   1.587
  351TIP3    H2  976   3.013   2.159   1.590
  352TIP3   OH2  977   4.117   1.060   1.599
  352TIP3    H1  978   4.199   1.097   1.636
  352TIP3    H2  979   4.104   0.978   1.652
  353TIP3   OH2  980   3.500   1.937   0.452
  353TIP3    H1  981   3.408   1.943   0.482
  353TIP3    H2  982   3.498   1.992   0.372
  354TIP3   OH2  983   3.956   1.304   1.666
  354TIP3    H1  984   3.983   1.353   1.746
  354TIP3    H2  985   4.007   1.221   1.674
  355TIP3   OH2  986   3.222   1.995   0.507
  355TIP3    H1  987   3.208   2.074   0.449
  355TIP3    H2  988   3.230   2.038   0.595
  356TIP3   OH2  989   4.589   1.206   1.651
  356TIP3    H1  990   4.491   1.207   1.656
  356TIP3    H2  991   4.603   1.144   1.577
  357TIP3   OH2  992   4.242   1.402   1.038
  357TIP3    H1  993   4.163   1.345   1.047
  357TIP3    H2  994   4.310   1.351   1.086
  358TIP3   OH2  995   4.216   2.363   0.986
  358TIP3    H1  996   4.173   2.409   0.911
  358TIP3    H2  997   4.310   2.381   0.964
  359TIP3   OH2  998   2.991   2.395   1.966
  359TIP3    H1  999   3.076   2.401   2.014
  359TIP3    H2 1000   2.976   2.299   1.967
  360TIP3   OH2 1001   3.461   2.346   2.013
  360TIP3    H1 1002   3.557   2.336   2.019
  360TIP3    H2 1003   3.440   2.284   1.941
  361TIP3   OH2 1004   4.108   2.258   1.744
  361TIP3    H1 1005   4.101   2.189   1.815
  361TIP3    H2 1006   4.183   2.312   1.775
  362TIP3   OH2 1007   3.900   1.980   0.061
  362TIP3    H1 1008   3.902   1.901   0.119
  362TIP3    H2 1009   3.981   1.970   0.010
  363TIP3   OH2 1010   3.118   1.796   2.167
  363TIP3    H1 1011   3.134   1.700   2.177
  363TIP3    H2 1012   3.031   1.797   2.121
  364TIP3   OH2 1013   3.724   1.883   1.941
  364TIP3    H1 1014   3.684   1.905   1.855
  364TIP3    H2 1015   3.756   1.791   1.927
  365TIP3   OH2 1016   4.218   1.894   1.547
  365TIP3    H1 1017   4.290   1.942   1.502
  365TIP3    H2 1018   4.145   1.958   1.535
  366TIP3   OH2 1019   3.238   1.527   2.150
  366TIP3    H1 1020   3.320   1.481   2.128
  366TIP3    H2 1021   3.262   1.561   2.239
  367TIP3   OH2 1022   3.566   1.406   1.805
  367TIP3    H1 1023   3.495   1.473   1.813
  367TIP3    H2 1024   3.621   1.443   1.733
  368TIP3   OH2 1025   4.085   1.813   1.943
  368TIP3    H1 1026   4.171   1.789   1.905
  368TIP3    H2 1027   4.079   1.750   2.018
  369TIP3   OH2 1028   4.251   1.487   0.083
  369TIP3    H1 1029   4.209   1.414   0.035
  369TIP3    H2 1030   4.219   1.562   0.031
  370TIP3   OH2 1031   3.692   1.200   1.934
  370TIP3    H1 1032   3.696   1.123   1.874
  370TIP3    H2 1033   3.651   1.268   1.876
  371TIP3   OH2 1034   3.694   0.986   1.747
  371TIP3    H1 1035   3.725   1.031   1.665
  371TIP3    H2 1036   3.603   0.961   1.723
  372TIP3   OH2 1037   3.718   1.522   1.618
  372TIP3    H1 1038   3.806   1.537   1.580
  372TIP3    H2 1039   3.664   1.588   1.571
  373TIP3   OH2 1040   4.303   1.487   1.992
  373TIP3    H1 1041   4.350   1.405   2.014
  373TIP3    H2 1042   4.376   1.546   1.969
  374TIP3   OH2 1043   4.359   1.748   1.723
  374TIP3    H1 1044   4.295   1.803   1.673
  374TIP3    H2 1045   4.439   1.762   1.669
  375TIP3   OH2 1046   3.575   1.309   2.166
  375TIP3    H1 1047   3.504   1.244   2.185
  375TIP3    H2 1048   3.608   1.278   2.079
  376TIP3   OH2 1049   3.834   0.754   1.815
  376TIP3    H1 1050   3.783   0.834   1.792
  376TIP3    H2 1051   3.768   0.684   1.800
  377TIP3   OH2 1052   3.954   1.251   2.028
  377TIP3    H1 1053   3.940   1.238   2.123
  377TIP3    H2 1054   3.864   1.228   1.995
  378TIP3   OH2 1055   4.192   1.202   1.881
  378TIP3    H1 1056   4.118   1.205   1.946
  378TIP3    H2 1057   4.268   1.175   1.938
  379TIP3   OH2 1058   4.420   1.145   2.027
  379TIP3    H1 1059   4.435   1.050   2.046
  379TIP3    H2 1060   4.418   1.184   2.117
  380TIP3   OH2 1061   3.411   1.088   2.218
  380TIP3    H1 1062   3.436   0.996   2.200
  380TIP3    H2 1063   3.441   1.094   2.311
  381TIP3   OH2 1064   3.921   0.760   2.074
  381TIP3    H1 1065   3.988   0.689   2.067
  381TIP3    H2 1066   3.884   0.758   1.984
  382TIP3   OH2 1067   3.989   0.975   2.230
  382TIP3    H1 1068   3.967   0.903   2.166
  382TIP3    H2 1069   3.910   1.033   2.222
  383TIP3   OH2 1070   3.205   2.192   0.316
  383TIP3    H1 1071   3.302   2.196   0.308
  383TIP3    H2 1072   3.177   2.221   0.228
  384TIP3   OH2 1073   2.651   2.191   0.967
  384TIP3    H1 1074   2.579   2.142   0.925
  384TIP3    H2 1075   2.680   2.129   1.037
  385TIP3   OH2 1076   2.733   2.037   1.177
  385TIP3    H1 1077   2.756   1.962   1.234
  385TIP3    H2 1078   2.790   2.106   1.217
  386TIP3   OH2 1079   4.472   2.449   0.946
  386TIP3    H1 1080   4.496   2.483   1.033
  386TIP3    H2 1081   4.539   2.488   0.888
  387TIP3   OH2 1082   4.495   2.471   1.228
  387TIP3    H1 1083   4.451   2.384   1.225
  387TIP3    H2 1084   4.574   2.448   1.280
  388TIP3   OH2 1085   4.545   2.143   1.794
  388TIP3    H1 1086   4.473   2.152   1.860
  388TIP3    H2 1087   4.589   2.230   1.801
  389TIP3   OH2 1088   4.361   1.660   0.423
  389TIP3    H1 1089   4.426   1.726   0.390
  389TIP3    H2 1090   4.408   1.625   0.502
  390TIP3   OH2 1091   4.490   1.526   0.626
  390TIP3    H1 1092   4.424   1.484   0.684
  390TIP3    H2 1093   4.555   1.562   0.690
  391TIP3   OH2 1094   4.535   1.914   1.062
  391TIP3    H1 1095   4.601   1.853   1.025
  391TIP3    H2 1096   4.536   1.987   0.997
  392TIP3   OH2 1097   4.371   2.222   1.250
  392TIP3    H1 1098   4.298   2.265   1.299
  392TIP3    H2 1099   4.323   2.177   1.177
  393TIP3   OH2 1100   4.407   1.421   0.294
  393TIP3    H1 1101   4.352   1.438   0.214
  393TIP3    H2 1102   4.385   1.503   0.344
  394TIP3   OH2 1103   4.305   1.382   0.771
  394TIP3    H1 1104   4.303   1.285   0.760
  394TIP3    H2 1105   4.288   1.393   0.867
  395TIP3   OH2 1106   2.956   1.420   1.553
  395TIP3    H1 1107   2.928   1.466   1.471
  395TIP3    H2 1108   3.053   1.439   1.553
  396TIP3   OH2 1109   4.594   1.795   1.576
  396TIP3    H1 1110   4.670   1.740   1.610
  396TIP3    H2 1111   4.635   1.884   1.565
  397TIP3   OH2 1112   4.769   1.608   1.633
  397TIP3    H1 1113   4.704   1.551   1.679
  397TIP3    H2 1114   4.851   1.555   1.647
  398TIP3   OH2 1115   4.295   1.100   0.658
  398TIP3    H1 1116   4.339   1.014   0.674
  398TIP3    H2 1117   4.349   1.133   0.583
  399TIP3   OH2 1118   4.459   1.280   1.162
  399TIP3    H1 1119   4.541   1.310   1.115
  399TIP3    H2 1120   4.496   1.260   1.249
  400TIP3   OH2 1121   4.520   1.476   1.378
  400TIP3    H1 1122   4.454   1.470   1.449
  400TIP3    H2 1123   4.463   1.463   1.299
  401TIP3   OH2 1124   3.151   1.132   2.154
  401TIP3    H1 1125   3.245   1.140   2.181
  401TIP3    H2 1126   3.124   1.057   2.212
  402TIP3   OH2 1127   4.973   1.008   1.944
  402TIP3    H1 1128   5.039   0.945   1.907
  402TIP3    H2 1129   4.951   1.062   1.866
  403TIP3   OH2 1130   4.403   0.846   0.695
  403TIP3    H1 1131   4.445   0.835   0.783
  403TIP3    H2 1132   4.360   0.761   0.683
  404TIP3   OH2 1133   2.999   1.140   1.661
  404TIP3    H1 1134   3.078   1.126   1.607
  404TIP3    H2 1135   2.989   1.236   1.657
  405TIP3   OH2 1136   4.848   1.147   1.744
  405TIP3    H1 1137   4.760   1.187   1.760
  405TIP3    H2 1138   4.822   1.070   1.690
  406TIP3   OH2 1139   4.054   2.321   0.598
  406TIP3    H1 1140   4.107   2.304   0.517
  406TIP3    H2 1141   4.111   2.381   0.648
  407TIP3   OH2 1142   3.154   2.116   1.982
  407TIP3    H1 1143   3.059   2.097   1.972
  407TIP3    H2 1144   3.165   2.108   2.078
  408TIP3   OH2 1145   3.333   2.155   1.531
  408TIP3    H1 1146   3.287   2.233   1.493
  408TIP3    H2 1147   3.419   2.168   1.486
  409TIP3   OH2 1148   3.770   2.395   1.668
  409TIP3    H1 1149   3.812   2.395   1.757
  409TIP3    H2 1150   3.835   2.449   1.618
  410TIP3   OH2 1151   3.950   2.553   1.535
  410TIP3    H1 1152   4.020   2.502   1.491
  410TIP3    H2 1153   4.004   2.609   1.595
  411TIP3   OH2 1154   4.747   0.907   1.632
  411TIP3    H1 1155   4.658   0.889   1.596
  411TIP3    H2 1156   4.788   0.817   1.624
  412TIP3   OH2 1157   3.003   2.399   1.566
  412TIP3    H1 1158   2.913   2.431   1.543
  412TIP3    H2 1159   3.026   2.462   1.636
  413TIP3   OH2 1160   3.241   2.387   1.418
  413TIP3    H1 1161   3.152   2.399   1.458
  413TIP3    H2 1162   3.226   2.422   1.327
  414TIP3   OH2 1163   3.670   2.414   1.223
  414TIP3    H1 1164   3.597   2.429   1.159
  414TIP3    H2 1165   3.681   2.504   1.260
  415TIP3   OH2 1166   3.938   2.351   1.271
  415TIP3    H1 1167   3.843   2.366   1.249
  415TIP3    H2 1168   3.980   2.424   1.223
  416TIP3   OH2 1169   4.145   2.546   1.179
  416TIP3    H1 1170   4.130   2.630   1.131
  416TIP3    H2 1171   4.171   2.485   1.107
  417TIP3   OH2 1172   2.921   2.203   1.299
  417TIP3    H1 1173   2.949   2.178   1.390
  417TIP3    H2 1174   2.994   2.161   1.248
  418TIP3   OH2 1175   3.110   2.069   1.158
  418TIP3    H1 1176   3.130   1.987   1.209
  418TIP3    H2 1177   3.200   2.109   1.153
  419TIP3   OH2 1178   3.373   2.158   1.171
  419TIP3    H1 1179   3.411   2.069   1.164
  419TIP3    H2 1180   3.426   2.193   1.245
  420TIP3   OH2 1181   3.956   0.836   1.257
  420TIP3    H1 1182   3.913   0.764   1.305
  420TIP3    H2 1183   4.019   0.790   1.200
  421TIP3   OH2 1184   4.476   0.718   1.161
  421TIP3    H1 1185   4.511   0.772   1.086
  421TIP3    H2 1186   4.380   0.735   1.152
  422TIP3   OH2 1187   4.561   0.811   0.919
  422TIP3    H1 1188   4.632   0.758   0.876
  422TIP3    H2 1189   4.598   0.902   0.911
  423TIP3   OH2 1190   4.195   0.711   1.137
  423TIP3    H1 1191   4.180   0.676   1.048
  423TIP3    H2 1192   4.184   0.631   1.193
  424TIP3   OH2 1193   3.478   2.158   0.263
  424TIP3    H1 1194   3.574   2.160   0.243
  424TIP3    H2 1195   3.442   2.140   0.175
  425TIP3   OH2 1196   4.201   2.281   0.368
  425TIP3    H1 1197   4.193   2.183   0.358
  425TIP3    H2 1198   4.155   2.312   0.288
  426TIP3   OH2 1199   3.399   0.796   2.153
  426TIP3    H1 1200   3.371   0.727   2.217
  426TIP3    H2 1201   3.495   0.800   2.175
  427TIP3   OH2 1202   3.652   0.808   2.265
  427TIP3    H1 1203   3.739   0.783   2.232
  427TIP3    H2 1204   3.639   0.743   2.337
  428TIP3   OH2 1205   4.489   0.876   2.062
  428TIP3    H1 1206   4.509   0.845   2.152
  428TIP3    H2 1207   4.578   0.873   2.020
  429TIP3   OH2 1208   4.420   2.426   1.552
  429TIP3    H1 1209   4.340   2.397   1.503
  429TIP3    H2 1210   4.400   2.522   1.561
  430TIP3   OH2 1211   5.700   1.805   0.352
  430TIP3    H1 1212   5.691   1.899   0.332
  430TIP3    H2 1213   5.644   1.768   0.281
  431TIP3   OH2 1214   5.679   1.809   0.716
  431TIP3    H1 1215   5.719   1.778   0.800
  431TIP3    H2 1216   5.649   1.725   0.677
  432TIP3   OH2 1217   4.997   1.711   1.099
  432TIP3    H1 1218   5.022   1.632   1.153
  432TIP3    H2 1219   5.073   1.717   1.038
  433TIP3   OH2 1220   5.934   2.109   0.386
  433TIP3    H1 1221   5.918   2.034   0.446
  433TIP3    H2 1222   5.967   2.177   0.447
  434TIP3   OH2 1223   4.963   2.102   0.792
  434TIP3    H1 1224   4.955   2.004   0.793
  434TIP3    H2 1225   5.060   2.111   0.780
  435TIP3   OH2 1226   4.660   1.310   0.568
  435TIP3    H1 1227   4.614   1.395   0.581
  435TIP3    H2 1228   4.584   1.250   0.561
  436TIP3   OH2 1229   4.724   1.594   0.760
  436TIP3    H1 1230   4.775   1.515   0.787
  436TIP3    H2 1231   4.787   1.638   0.700
  437TIP3   OH2 1232   5.590   2.562   0.405
  437TIP3    H1 1233   5.626   2.489   0.351
  437TIP3    H2 1234   5.581   2.519   0.491
  438TIP3   OH2 1235   5.488   2.026   0.753
  438TIP3    H1 1236   5.532   1.945   0.719
  438TIP3    H2 1237   5.569   2.076   0.775
  439TIP3   OH2 1238   5.895   1.556   0.773
  439TIP3    H1 1239   5.930   1.468   0.799
  439TIP3    H2 1240   5.852   1.532   0.688
  440TIP3   OH2 1241   5.209   1.176   0.763
  440TIP3    H1 1242   5.221   1.244   0.694
  440TIP3    H2 1243   5.212   1.094   0.712
  441TIP3   OH2 1244   4.873   1.381   0.848
  441TIP3    H1 1245   4.954   1.365   0.902
  441TIP3    H2 1246   4.891   1.322   0.773
  442TIP3   OH2 1247   5.308   1.586   0.663
  442TIP3    H1 1248   5.405   1.570   0.671
  442TIP3    H2 1249   5.277   1.497   0.636
  443TIP3   OH2 1250   6.583   1.556   0.954
  443TIP3    H1 1251   6.489   1.578   0.938
  443TIP3    H2 1252   6.593   1.582   1.046
  444TIP3   OH2 1253   5.225   1.156   1.189
  444TIP3    H1 1254   5.175   1.207   1.123
  444TIP3    H2 1255   5.180   1.186   1.271
  445TIP3   OH2 1256   5.603   2.042   0.182
  445TIP3    H1 1257   5.549   2.002   0.112
  445TIP3    H2 1258   5.541   2.110   0.215
  446TIP3   OH2 1259   5.342   1.942   0.969
  446TIP3    H1 1260   5.287   2.015   1.005
  446TIP3    H2 1261   5.390   1.987   0.897
  447TIP3   OH2 1262   5.098   1.288   0.980
  447TIP3    H1 1263   5.162   1.360   1.002
  447TIP3    H2 1264   5.145   1.246   0.904
  448TIP3   OH2 1265   5.173   2.145   1.073
  448TIP3    H1 1266   5.150   2.232   1.035
  448TIP3    H2 1267   5.092   2.127   1.125
  449TIP3   OH2 1268   4.559   1.832   0.317
  449TIP3    H1 1269   4.521   1.854   0.229
  449TIP3    H2 1270   4.590   1.920   0.347
  450TIP3   OH2 1271   6.001   2.349   0.551
  450TIP3    H1 1272   5.911   2.338   0.589
  450TIP3    H2 1273   5.991   2.435   0.505
  451TIP3   OH2 1274   6.262   1.226   0.952
  451TIP3    H1 1275   6.210   1.298   0.991
  451TIP3    H2 1276   6.295   1.268   0.870
  452TIP3   OH2 1277   5.608   0.904   0.973
  452TIP3    H1 1278   5.571   0.814   0.965
  452TIP3    H2 1279   5.526   0.955   0.984
  453TIP3   OH2 1280   5.697   2.387   0.216
  453TIP3    H1 1281   5.751   2.305   0.202
  453TIP3    H2 1282   5.762   2.454   0.184
  454TIP3   OH2 1283   5.844   2.170   0.133
  454TIP3    H1 1284   5.767   2.110   0.137
  454TIP3    H2 1285   5.892   2.141   0.214
  455TIP3   OH2 1286   6.228   2.256   0.894
  455TIP3    H1 1287   6.216   2.177   0.836
  455TIP3    H2 1288   6.212   2.329   0.831
  456TIP3   OH2 1289   5.546   1.725   0.135
  456TIP3    H1 1290   5.451   1.729   0.119
  456TIP3    H2 1291   5.564   1.630   0.147
  457TIP3   OH2 1292   6.420   1.892   0.743
  457TIP3    H1 1293   6.336   1.943   0.743
  457TIP3    H2 1294   6.451   1.907   0.652
  458TIP3   OH2 1295   6.108   1.773   1.045
  458TIP3    H1 1296   6.103   1.856   1.096
  458TIP3    H2 1297   6.021   1.776   0.999
  459TIP3   OH2 1298   5.101   1.726   0.542
  459TIP3    H1 1299   5.065   1.664   0.476
  459TIP3    H2 1300   5.177   1.676   0.578
  460TIP3   OH2 1301   5.229   2.139   0.690
  460TIP3    H1 1302   5.214   2.109   0.598
  460TIP3    H2 1303   5.319   2.103   0.708
  461TIP3   OH2 1304   5.212   1.711   0.898
  461TIP3    H1 1305   5.256   1.675   0.817
  461TIP3    H2 1306   5.268   1.789   0.917
  462TIP3   OH2 1307   5.759   2.341   0.671
  462TIP3    H1 1308   5.750   2.419   0.729
  462TIP3    H2 1309   5.746   2.266   0.733
  463TIP3   OH2 1310   5.379   2.260   1.219
  463TIP3    H1 1311   5.316   2.320   1.265
  463TIP3    H2 1312   5.316   2.205   1.167
  464TIP3   OH2 1313   5.152   1.823   1.335
  464TIP3    H1 1314   5.137   1.909   1.379
  464TIP3    H2 1315   5.079   1.817   1.271
  465TIP3   OH2 1316   5.449   2.270   0.236
  465TIP3    H1 1317   5.534   2.318   0.235
  465TIP3    H2 1318   5.393   2.324   0.180
  466TIP3   OH2 1319   5.168   2.421   1.306
  466TIP3    H1 1320   5.134   2.429   1.215
  466TIP3    H2 1321   5.087   2.402   1.357
  467TIP3   OH2 1322   4.964   1.565   0.340
  467TIP3    H1 1323   4.899   1.619   0.288
  467TIP3    H2 1324   4.908   1.490   0.365
  468TIP3   OH2 1325   4.604   2.149   0.888
  468TIP3    H1 1326   4.699   2.142   0.875
  468TIP3    H2 1327   4.597   2.228   0.943
  469TIP3   OH2 1328   6.464   2.604   0.942
  469TIP3    H1 1329   6.465   2.508   0.958
  469TIP3    H2 1330   6.381   2.628   0.989
  470TIP3   OH2 1331   5.571   2.390   1.074
  470TIP3    H1 1332   5.567   2.482   1.108
  470TIP3    H2 1333   5.502   2.347   1.130
  471TIP3   OH2 1334   5.333   2.514   0.035
  471TIP3    H1 1335   5.288   2.493  -0.049
  471TIP3    H2 1336   5.301   2.604   0.055
  472TIP3   OH2 1337   4.771   2.363   0.416
  472TIP3    H1 1338   4.819   2.354   0.502
  472TIP3    H2 1339   4.724   2.278   0.412
  473TIP3   OH2 1340   5.553   2.365  -0.291
  473TIP3    H1 1341   5.545   2.271  -0.271
  473TIP3    H2 1342   5.565   2.402  -0.201
  474TIP3   OH2 1343   5.587   2.462  -0.039
  474TIP3    H1 1344   5.496   2.475  -0.003
  474TIP3    H2 1345   5.633   2.428   0.039
  475TIP3   OH2 1346   6.351   1.712   1.212
  475TIP3    H1 1347   6.273   1.729   1.157
  475TIP3    H2 1348   6.340   1.619   1.237
  476TIP3   OH2 1349   4.954   2.137   1.243
  476TIP3    H1 1350   5.012   2.141   1.321
  476TIP3    H2 1351   4.902   2.058   1.261
  477TIP3   OH2 1352   5.340   0.981   1.018
  477TIP3    H1 1353   5.253   0.943   0.997
  477TIP3    H2 1354   5.311   1.053   1.079
  478TIP3   OH2 1355   5.855   1.070   1.245
  478TIP3    H1 1356   5.937   1.051   1.297
  478TIP3    H2 1357   5.788   1.071   1.316
  479TIP3   OH2 1358   6.102   1.494   1.104
  479TIP3    H1 1359   6.111   1.488   1.201
  479TIP3    H2 1360   6.100   1.590   1.089
  480TIP3   OH2 1361   5.275   1.482   1.042
  480TIP3    H1 1362   5.285   1.517   1.133
  480TIP3    H2 1363   5.265   1.564   0.990
  481TIP3   OH2 1364   5.160   1.366   0.567
  481TIP3    H1 1365   5.070   1.328   0.577
  481TIP3    H2 1366   5.183   1.345   0.476
  482TIP3   OH2 1367   5.834   1.728   1.376
  482TIP3    H1 1368   5.811   1.653   1.435
  482TIP3    H2 1369   5.930   1.735   1.393
  483TIP3   OH2 1370   5.803   1.487   0.526
  483TIP3    H1 1371   5.751   1.533   0.458
  483TIP3    H2 1372   5.853   1.423   0.473
  484TIP3   OH2 1373   5.086   1.515   1.275
  484TIP3    H1 1374   5.167   1.555   1.312
  484TIP3    H2 1375   5.089   1.425   1.314
  485TIP3   OH2 1376   4.684   1.043   0.860
  485TIP3    H1 1377   4.771   1.063   0.898
  485TIP3    H2 1378   4.703   1.019   0.767
  486TIP3   OH2 1379   4.690   1.074   0.334
  486TIP3    H1 1380   4.680   1.116   0.247
  486TIP3    H2 1381   4.627   1.124   0.388
  487TIP3   OH2 1382   5.819   1.734   0.957
  487TIP3    H1 1383   5.854   1.669   0.891
  487TIP3    H2 1384   5.795   1.673   1.030
  488TIP3   OH2 1385   5.462   1.222   0.634
  488TIP3    H1 1386   5.431   1.195   0.721
  488TIP3    H2 1387   5.547   1.174   0.625
  489TIP3   OH2 1388   4.915   1.233   0.607
  489TIP3    H1 1389   4.824   1.264   0.588
  489TIP3    H2 1390   4.904   1.138   0.590
  490TIP3   OH2 1391   5.962   1.299   0.821
  490TIP3    H1 1392   5.933   1.306   0.915
  490TIP3    H2 1393   5.978   1.203   0.815
  491TIP3   OH2 1394   6.161   2.953   1.044
  491TIP3    H1 1395   6.160   2.976   0.949
  491TIP3    H2 1396   6.243   2.998   1.074
  492TIP3   OH2 1397   5.112   2.070   1.463
  492TIP3    H1 1398   5.197   2.095   1.507
  492TIP3    H2 1399   5.053   2.067   1.541
  493TIP3   OH2 1400   5.572   1.530   0.713
  493TIP3    H1 1401   5.641   1.476   0.672
  493TIP3    H2 1402   5.569   1.491   0.804
  494TIP3   OH2 1403   5.561   1.446   0.972
  494TIP3    H1 1404   5.478   1.436   1.021
  494TIP3    H2 1405   5.623   1.475   1.042
  495TIP3   OH2 1406   5.260   1.823   0.092
  495TIP3    H1 1407   5.195   1.750   0.090
  495TIP3    H2 1408   5.255   1.850   0.187
  496TIP3   OH2 1409   6.188   2.041   0.727
  496TIP3    H1 1410   6.211   2.090   0.645
  496TIP3    H2 1411   6.101   2.002   0.704
  497TIP3   OH2 1412   5.683   2.119   1.099
  497TIP3    H1 1413   5.729   2.101   1.182
  497TIP3    H2 1414   5.653   2.210   1.109
  498TIP3   OH2 1415   4.984   1.821   0.774
  498TIP3    H1 1416   5.015   1.798   0.684
  498TIP3    H2 1417   5.054   1.779   0.827
  499TIP3   OH2 1418   5.449   1.969  -0.037
  499TIP3    H1 1419   5.398   2.052  -0.048
  499TIP3    H2 1420   5.379   1.910  -0.003
  500TIP3   OH2 1421   5.597   1.863   1.409
  500TIP3    H1 1422   5.545   1.811   1.346
  500TIP3    H2 1423   5.687   1.829   1.389
  501TIP3   OH2 1424   5.846   2.387   0.995
  501TIP3    H1 1425   5.750   2.384   1.008
  501TIP3    H2 1426   5.875   2.436   1.075
  502TIP3   OH2 1427   6.478   2.320   0.980
  502TIP3    H1 1428   6.381   2.309   0.975
  502TIP3    H2 1429   6.504   2.287   0.891
  503TIP3   OH2 1430   5.974   2.274  -0.209
  503TIP3    H1 1431   5.914   2.231  -0.145
  503TIP3    H2 1432   6.042   2.204  -0.222
  504TIP3   OH2 1433   5.943   1.919   0.654
  504TIP3    H1 1434   5.850   1.893   0.664
  504TIP3    H2 1435   5.979   1.839   0.611
  505TIP3   OH2 1436   5.086   2.133   0.407
  505TIP3    H1 1437   5.087   2.213   0.350
  505TIP3    H2 1438   4.992   2.115   0.412
  506TIP3   OH2 1439   4.662   1.413   0.166
  506TIP3    H1 1440   4.699   1.503   0.157
  506TIP3    H2 1441   4.577   1.429   0.210
  507TIP3   OH2 1442   5.212   1.893   0.347
  507TIP3    H1 1443   5.182   1.984   0.367
  507TIP3    H2 1444   5.182   1.844   0.426
  508TIP3   OH2 1445   5.356   2.471   0.871
  508TIP3    H1 1446   5.399   2.543   0.821
  508TIP3    H2 1447   5.432   2.433   0.918
  509TIP3   OH2 1448   5.000   2.372   0.255
  509TIP3    H1 1449   4.916   2.381   0.303
  509TIP3    H2 1450   5.035   2.464   0.259
  510TIP3   OH2 1451   5.739   2.111   0.830
  510TIP3    H1 1452   5.728   2.103   0.928
  510TIP3    H2 1453   5.815   2.053   0.816
  511TIP3   OH2 1454   5.989   2.638   0.882
  511TIP3    H1 1455   5.910   2.581   0.878
  511TIP3    H2 1456   5.971   2.701   0.808
  512TIP3   OH2 1457   5.079   1.255   1.401
  512TIP3    H1 1458   4.983   1.246   1.411
  512TIP3    H2 1459   5.113   1.198   1.472
  513TIP3   OH2 1460   4.793   2.340   1.026
  513TIP3    H1 1461   4.856   2.273   1.056
  513TIP3    H2 1462   4.820   2.417   1.077
  514TIP3   OH2 1463   5.043   2.003  -0.307
  514TIP3    H1 1464   5.118   1.941  -0.299
  514TIP3    H2 1465   5.010   2.001  -0.215
  515TIP3   OH2 1466   5.028   1.996  -0.023
  515TIP3    H1 1467   5.108   1.960   0.018
  515TIP3    H2 1468   5.038   2.093  -0.008
  516TIP3   OH2 1469   4.764   1.690   0.199
  516TIP3    H1 1470   4.695   1.735   0.252
  516TIP3    H2 1471   4.776   1.755   0.127
  517TIP3   OH2 1472   5.902   1.305   1.088
  517TIP3    H1 1473   5.983   1.354   1.111
  517TIP3    H2 1474   5.900   1.230   1.150
  518TIP3   OH2 1475   5.292   2.192  -0.050
  518TIP3    H1 1476   5.206   2.224  -0.018
  518TIP3    H2 1477   5.292   2.228  -0.140
  519TIP3   OH2 1478   5.757   1.561   1.158
  519TIP3    H1 1479   5.783   1.610   1.238
  519TIP3    H2 1480   5.814   1.482   1.164
  520TIP3   OH2 1481   5.033   2.266   0.004
  520TIP3    H1 1482   4.999   2.336  -0.056
  520TIP3    H2 1483   5.017   2.307   0.093
  521TIP3   OH2 1484   6.036   1.688   0.533
  521TIP3    H1 1485   5.976   1.615   0.555
  521TIP3    H2 1486   6.123   1.652   0.559
  522TIP3   OH2 1487   4.764   1.892  -0.005
  522TIP3    H1 1488   4.835   1.956   0.013
  522TIP3    H2 1489   4.812   1.839  -0.072
  523TIP3   OH2 1490   6.009   2.621   0.470
  523TIP3    H1 1491   5.969   2.669   0.395
  523TIP3    H2 1492   6.105   2.638   0.451
  524TIP3   OH2 1493   5.080   0.879   1.002
  524TIP3    H1 1494   5.031   0.848   0.923
  524TIP3    H2 1495   5.073   0.802   1.062
  525TIP3   OH2 1496   4.622   2.104   0.378
  525TIP3    H1 1497   4.557   2.131   0.443
  525TIP3    H2 1498   4.587   2.147   0.296
  526TIP3   OH2 1499   4.788   2.655   1.453
  526TIP3    H1 1500   4.873   2.660   1.502
  526TIP3    H2 1501   4.774   2.560   1.452
  527TIP3   OH2 1502   5.258   2.603   1.498
  527TIP3    H1 1503   5.353   2.590   1.507
  527TIP3    H2 1504   5.237   2.541   1.426
  528TIP3   OH2 1505   5.255   2.181  -0.333
  528TIP3    H1 1506   5.173   2.129  -0.330
  528TIP3    H2 1507   5.309   2.130  -0.394
  529TIP3   OH2 1508   5.899   2.516   1.233
  529TIP3    H1 1509   5.893   2.445   1.301
  529TIP3    H2 1510   5.978   2.565   1.261
  530TIP3   OH2 1511   4.913   2.052   1.659
  530TIP3    H1 1512   4.942   1.958   1.665
  530TIP3    H2 1513   4.828   2.044   1.612
  531TIP3   OH2 1514   4.916   1.729  -0.157
  531TIP3    H1 1515   4.888   1.657  -0.097
  531TIP3    H2 1516   4.944   1.675  -0.233
  532TIP3   OH2 1517   5.518   2.137   1.429
  532TIP3    H1 1518   5.484   2.158   1.339
  532TIP3    H2 1519   5.553   2.046   1.417
  533TIP3   OH2 1520   6.011   2.155   1.036
  533TIP3    H1 1521   6.090   2.192   0.992
  533TIP3    H2 1522   5.945   2.223   1.014
  534TIP3   OH2 1523   5.029   1.803   1.638
  534TIP3    H1 1524   5.098   1.752   1.594
  534TIP3    H2 1525   5.069   1.822   1.725
  535TIP3   OH2 1526   5.111   1.597   0.106
  535TIP3    H1 1527   5.064   1.578   0.189
  535TIP3    H2 1528   5.196   1.551   0.116
  536TIP3   OH2 1529   5.345   1.643   1.271
  536TIP3    H1 1530   5.288   1.720   1.297
  536TIP3    H2 1531   5.413   1.688   1.216
  537TIP3   OH2 1532   5.886   2.071   1.427
  537TIP3    H1 1533   5.964   2.037   1.379
  537TIP3    H2 1534   5.880   2.007   1.501
  538TIP3   OH2 1535   5.484   1.468   1.434
  538TIP3    H1 1536   5.492   1.386   1.381
  538TIP3    H2 1537   5.442   1.525   1.366
  539TIP3   OH2 1538   5.474   1.295   1.221
  539TIP3    H1 1539   5.542   1.255   1.165
  539TIP3    H2 1540   5.411   1.222   1.231
  540TIP3   OH2 1541   5.516   1.783   1.119
  540TIP3    H1 1542   5.602   1.777   1.074
  540TIP3    H2 1543   5.468   1.846   1.062
  541TIP3   OH2 1544   6.100   1.747   1.486
  541TIP3    H1 1545   6.137   1.658   1.497
  541TIP3    H2 1546   6.176   1.796   1.451
  542TIP3   OH2 1547   6.140   2.005   1.221
  542TIP3    H1 1548   6.083   2.060   1.163
  542TIP3    H2 1549   6.228   2.026   1.183
  543TIP3   OH2 1550   5.363   1.568   1.660
  543TIP3    H1 1551   5.297   1.496   1.672
  543TIP3    H2 1552   5.402   1.543   1.574
  544TIP3   OH2 1553   5.751   1.511   1.515
  544TIP3    H1 1554   5.739   1.492   1.610
  544TIP3    H2 1555   5.662   1.485   1.483
  545TIP3   OH2 1556   6.004   1.469   1.373
  545TIP3    H1 1557   5.930   1.460   1.435
  545TIP3    H2 1558   6.068   1.403   1.405
  546TIP3   OH2 1559   5.206   1.344   1.715
  546TIP3    H1 1560   5.220   1.256   1.676
  546TIP3    H2 1561   5.247   1.332   1.803
  547TIP3   OH2 1562   5.777   1.221   1.710
  547TIP3    H1 1563   5.742   1.160   1.641
  547TIP3    H2 1564   5.706   1.288   1.709
  548TIP3   OH2 1565   4.988   2.457  -0.195
  548TIP3    H1 1566   5.085   2.455  -0.208
  548TIP3    H2 1567   4.958   2.488  -0.282
  549TIP3   OH2 1568   4.492   1.849   0.046
  549TIP3    H1 1569   4.583   1.875   0.019
  549TIP3    H2 1570   4.483   1.764   0.002
  550TIP3   OH2 1571   4.404   2.453   0.445
  550TIP3    H1 1572   4.338   2.391   0.407
  550TIP3    H2 1573   4.448   2.394   0.510
  551TIP3   OH2 1574   4.536   2.300   0.633
  551TIP3    H1 1575   4.522   2.231   0.700
  551TIP3    H2 1576   4.590   2.363   0.684
  552TIP3   OH2 1577   6.267   2.704   0.436
  552TIP3    H1 1578   6.294   2.734   0.524
  552TIP3    H2 1579   6.338   2.740   0.380
  553TIP3   OH2 1580   6.295   2.724   0.717
  553TIP3    H1 1581   6.249   2.638   0.713
  553TIP3    H2 1582   6.369   2.699   0.776
  554TIP3   OH2 1583   6.338   2.404   1.287
  554TIP3    H1 1584   6.268   2.413   1.355
  554TIP3    H2 1585   6.383   2.491   1.293
  555TIP3   OH2 1586   6.342   2.175   0.539
  555TIP3    H1 1587   6.397   2.107   0.495
  555TIP3    H2 1588   6.337   2.245   0.472
  556TIP3   OH2 1589   6.168   2.477   0.734
  556TIP3    H1 1590   6.096   2.515   0.788
  556TIP3    H2 1591   6.118   2.429   0.664
  557TIP3   OH2 1592   4.726   1.715   1.013
  557TIP3    H1 1593   4.723   1.684   0.920
  557TIP3    H2 1594   4.823   1.725   1.027
  558TIP3   OH2 1595   6.384   2.070   1.113
  558TIP3    H1 1596   6.452   1.999   1.106
  558TIP3    H2 1597   6.413   2.133   1.045
  559TIP3   OH2 1598   6.560   1.870   1.132
  559TIP3    H1 1599   6.489   1.809   1.162
  559TIP3    H2 1600   6.640   1.819   1.159
  560TIP3   OH2 1601   6.294   1.604   0.611
  560TIP3    H1 1602   6.388   1.584   0.628
  560TIP3    H2 1603   6.266   1.612   0.705
  561TIP3   OH2 1604   6.331   1.670   0.885
  561TIP3    H1 1605   6.253   1.705   0.931
  561TIP3    H2 1606   6.369   1.750   0.844
  562TIP3   OH2 1607   4.941   1.400   1.676
  562TIP3    H1 1608   5.039   1.395   1.680
  562TIP3    H2 1609   4.919   1.314   1.716
  563TIP3   OH2 1610   6.795   1.280   1.433
  563TIP3    H1 1611   6.820   1.202   1.382
  563TIP3    H2 1612   6.754   1.337   1.364
  564TIP3   OH2 1613   4.903   1.094   1.026
  564TIP3    H1 1614   4.965   1.018   1.026
  564TIP3    H2 1615   4.967   1.167   1.013
  565TIP3   OH2 1616   4.698   1.388   1.079
  565TIP3    H1 1617   4.746   1.348   1.004
  565TIP3    H2 1618   4.732   1.478   1.075
  566TIP3   OH2 1619   6.647   1.451   1.274
  566TIP3    H1 1620   6.557   1.456   1.313
  566TIP3    H2 1621   6.631   1.381   1.207
  567TIP3   OH2 1622   4.666   0.924   0.608
  567TIP3    H1 1623   4.581   0.882   0.627
  567TIP3    H2 1624   4.690   0.885   0.523
  568TIP3   OH2 1625   5.845   2.579   0.101
  568TIP3    H1 1626   5.898   2.571   0.019
  568TIP3    H2 1627   5.896   2.643   0.152
  569TIP3   OH2 1628   4.905   0.957   1.400
  569TIP3    H1 1629   4.853   0.949   1.481
  569TIP3    H2 1630   4.837   0.986   1.336
  570TIP3   OH2 1631   4.946   2.375   1.468
  570TIP3    H1 1632   4.851   2.356   1.464
  570TIP3    H2 1633   4.965   2.365   1.562
  571TIP3   OH2 1634   5.128   2.414   1.019
  571TIP3    H1 1635   5.083   2.492   0.980
  571TIP3    H2 1636   5.215   2.425   0.975
  572TIP3   OH2 1637   5.566   2.656   1.158
  572TIP3    H1 1638   5.610   2.653   1.246
  572TIP3    H2 1639   5.633   2.707   1.107
  573TIP3   OH2 1640   5.748   2.809   1.020
  573TIP3    H1 1641   5.818   2.756   0.978
  573TIP3    H2 1642   5.802   2.865   1.080
  574TIP3   OH2 1643   6.581   1.238   1.122
  574TIP3    H1 1644   6.496   1.264   1.163
  574TIP3    H2 1645   6.550   1.161   1.069
  575TIP3   OH2 1646   4.801   2.664   1.050
  575TIP3    H1 1647   4.710   2.694   1.028
  575TIP3    H2 1648   4.821   2.721   1.126
  576TIP3   OH2 1649   5.038   2.646   0.905
  576TIP3    H1 1650   4.950   2.657   0.947
  576TIP3    H2 1651   5.020   2.677   0.814
  577TIP3   OH2 1652   5.463   2.671   0.703
  577TIP3    H1 1653   5.395   2.690   0.636
  577TIP3    H2 1654   5.476   2.758   0.745
  578TIP3   OH2 1655   5.734   2.611   0.756
  578TIP3    H1 1656   5.640   2.629   0.734
  578TIP3    H2 1657   5.779   2.684   0.709
  579TIP3   OH2 1658   5.938   2.801   0.665
  579TIP3    H1 1659   5.926   2.886   0.617
  579TIP3    H2 1660   5.966   2.741   0.593
  580TIP3   OH2 1661   4.714   2.459   0.787
  580TIP3    H1 1662   4.740   2.431   0.877
  580TIP3    H2 1663   4.787   2.417   0.736
  581TIP3   OH2 1664   4.911   2.332   0.650
  581TIP3    H1 1665   4.927   2.247   0.699
  581TIP3    H2 1666   5.002   2.368   0.646
  582TIP3   OH2 1667   5.178   2.423   0.656
  582TIP3    H1 1668   5.208   2.332   0.643
  582TIP3    H2 1669   5.229   2.446   0.736
  583TIP3   OH2 1670   4.952   0.802   0.777
  583TIP3    H1 1671   4.865   0.758   0.772
  583TIP3    H2 1672   5.003   0.752   0.711
  584TIP3   OH2 1673   4.503   2.235   0.175
  584TIP3    H1 1674   4.420   2.198   0.142
  584TIP3    H2 1675   4.487   2.329   0.157
  585TIP3   OH2 1676   5.259   2.436  -0.233
  585TIP3    H1 1677   5.331   2.481  -0.281
  585TIP3    H2 1678   5.253   2.354  -0.287
  586TIP3   OH2 1679   5.989   2.541  -0.131
  586TIP3    H1 1680   5.990   2.444  -0.148
  586TIP3    H2 1681   5.952   2.575  -0.214
  587TIP3   OH2 1682   5.203   1.065   1.628
  587TIP3    H1 1683   5.177   0.999   1.695
  587TIP3    H2 1684   5.300   1.068   1.646
  588TIP3   OH2 1685   5.444   1.079   1.769
  588TIP3    H1 1686   5.501   1.082   1.689
  588TIP3    H2 1687   5.477   0.998   1.810
  589TIP3   OH2 1688   4.597   2.290  -0.157
  589TIP3    H1 1689   4.560   2.300  -0.069
  589TIP3    H2 1690   4.665   2.223  -0.146
  590TIP3   OH2 1691   6.258   1.100   1.546
  590TIP3    H1 1692   6.293   1.089   1.636
  590TIP3    H2 1693   6.303   1.179   1.514
  591TIP3   OH2 1694   6.217   2.682   1.042
  591TIP3    H1 1695   6.138   2.652   0.992
  591TIP3    H2 1696   6.197   2.778   1.050
  592TIP3   OH2 1697   6.787   1.956   0.552
  592TIP3    H1 1698   6.799   1.891   0.622
  592TIP3    H2 1699   6.870   2.005   0.557
  593TIP3   OH2 1700   6.781   2.339   0.278
  593TIP3    H1 1701   6.737   2.261   0.315
  593TIP3    H2 1702   6.858   2.348   0.336
  594TIP3   OH2 1703   7.103   2.214   0.431
  594TIP3    H1 1704   7.056   2.273   0.491
  594TIP3    H2 1705   7.189   2.201   0.474
  595TIP3   OH2 1706   6.954   2.406   0.558
  595TIP3    H1 1707   6.935   2.500   0.535
  595TIP3    H2 1708   6.880   2.390   0.620
  596TIP3   OH2 1709   7.076   2.427   0.159
  596TIP3    H1 1710   7.042   2.337   0.141
  596TIP3    H2 1711   7.129   2.412   0.238
  597TIP3   OH2 1712   7.520   2.584   0.145
  597TIP3    H1 1713   7.512   2.665   0.198
  597TIP3    H2 1714   7.558   2.522   0.209
  598TIP3   OH2 1715   7.169   2.514   0.703
  598TIP3    H1 1716   7.111   2.576   0.751
  598TIP3    H2 1717   7.103   2.463   0.653
  599TIP3   OH2 1718   6.907   2.079   0.814
  599TIP3    H1 1719   6.911   2.166   0.858
  599TIP3    H2 1720   6.815   2.053   0.835
  600TIP3   OH2 1721   6.964   2.679   0.794
  600TIP3    H1 1722   6.928   2.687   0.704
  600TIP3    H2 1723   6.883   2.660   0.847
  601TIP3   OH2 1724   6.541   2.217   0.738
  601TIP3    H1 1725   6.471   2.191   0.674
  601TIP3    H2 1726   6.574   2.131   0.771
  602TIP3   OH2 1727   6.394   2.412   0.372
  602TIP3    H1 1728   6.490   2.413   0.364
  602TIP3    H2 1729   6.379   2.484   0.434
  603TIP3   OH2 1730   7.365   2.640   0.555
  603TIP3    H1 1731   7.370   2.731   0.590
  603TIP3    H2 1732   7.298   2.600   0.615
  604TIP3   OH2 1733   6.538   2.697  -0.022
  604TIP3    H1 1734   6.612   2.657   0.027
  604TIP3    H2 1735   6.473   2.625  -0.019
  605TIP3   OH2 1736   6.743   2.401   0.726
  605TIP3    H1 1737   6.793   2.385   0.808
  605TIP3    H2 1738   6.670   2.335   0.734
  606TIP3   OH2 1739   7.653   2.031   0.929
  606TIP3    H1 1740   7.598   1.956   0.960
  606TIP3    H2 1741   7.705   1.991   0.858
  607TIP3   OH2 1742   6.833   1.767   0.808
  607TIP3    H1 1743   6.900   1.836   0.802
  607TIP3    H2 1744   6.873   1.700   0.752
  608TIP3   OH2 1745   7.915   3.253   0.540
  608TIP3    H1 1746   7.918   3.235   0.446
  608TIP3    H2 1747   8.005   3.225   0.565
  609TIP3   OH2 1748   6.907   2.325   0.947
  609TIP3    H1 1749   6.990   2.348   0.995
  609TIP3    H2 1750   6.845   2.319   1.022
  610TIP3   OH2 1751   7.522   2.382   0.642
  610TIP3    H1 1752   7.517   2.401   0.736
  610TIP3    H2 1753   7.468   2.452   0.602
  611TIP3   OH2 1754   6.649   2.012   0.885
  611TIP3    H1 1755   6.673   1.993   0.978
  611TIP3    H2 1756   6.602   1.930   0.861
  612TIP3   OH2 1757   7.392   2.150   0.919
  612TIP3    H1 1758   7.320   2.099   0.876
  612TIP3    H2 1759   7.471   2.100   0.893
  613TIP3   OH2 1760   7.656   2.664   0.459
  613TIP3    H1 1761   7.561   2.641   0.458
  613TIP3    H2 1762   7.665   2.692   0.553
  614TIP3   OH2 1763   7.148   2.701   0.374
  614TIP3    H1 1764   7.174   2.786   0.331
  614TIP3    H2 1765   7.231   2.675   0.417
  615TIP3   OH2 1766   7.753   2.911   0.398
  615TIP3    H1 1767   7.718   2.819   0.395
  615TIP3    H2 1768   7.824   2.909   0.331
  616TIP3   OH2 1769   6.880   1.522   0.996
  616TIP3    H1 1770   6.808   1.583   0.970
  616TIP3    H2 1771   6.932   1.517   0.913
  617TIP3   OH2 1772   6.590   2.586   0.523
  617TIP3    H1 1773   6.639   2.518   0.573
  617TIP3    H2 1774   6.617   2.666   0.570
  618TIP3   OH2 1775   6.405   2.433  -0.137
  618TIP3    H1 1776   6.376   2.403  -0.050
  618TIP3    H2 1777   6.323   2.427  -0.191
  619TIP3   OH2 1778   6.583   2.909   0.940
  619TIP3    H1 1779   6.669   2.910   0.987
  619TIP3    H2 1780   6.565   2.813   0.938
  620TIP3   OH2 1781   7.055   2.859   0.985
  620TIP3    H1 1782   7.150   2.842   0.992
  620TIP3    H2 1783   7.032   2.797   0.912
  621TIP3   OH2 1784   7.674   2.752   0.712
  621TIP3    H1 1785   7.667   2.687   0.785
  621TIP3    H2 1786   7.738   2.817   0.749
  622TIP3   OH2 1787   6.708   2.310   1.140
  622TIP3    H1 1788   6.725   2.214   1.147
  622TIP3    H2 1789   6.621   2.310   1.094
  623TIP3   OH2 1790   7.316   2.414   0.916
  623TIP3    H1 1791   7.273   2.425   0.829
  623TIP3    H2 1792   7.349   2.322   0.912
  624TIP3   OH2 1793   7.794   2.387   0.505
  624TIP3    H1 1794   7.766   2.390   0.412
  624TIP3    H2 1795   7.707   2.383   0.549
  625TIP3   OH2 1796   6.825   2.050   1.121
  625TIP3    H1 1797   6.894   1.988   1.094
  625TIP3    H2 1798   6.858   2.079   1.209
  626TIP3   OH2 1799   7.177   2.036   0.791
  626TIP3    H1 1800   7.082   2.053   0.806
  626TIP3    H2 1801   7.172   1.975   0.716
  627TIP3   OH2 1802   7.677   2.329   0.915
  627TIP3    H1 1803   7.765   2.294   0.888
  627TIP3    H2 1804   7.645   2.255   0.967
  628TIP3   OH2 1805   7.161   1.853   1.146
  628TIP3    H1 1806   7.108   1.772   1.164
  628TIP3    H2 1807   7.177   1.848   1.051
  629TIP3   OH2 1808   7.484   1.848   1.028
  629TIP3    H1 1809   7.494   1.839   1.124
  629TIP3    H2 1810   7.476   1.755   1.002
  630TIP3   OH2 1811   7.032   1.623   1.210
  630TIP3    H1 1812   6.992   1.550   1.160
  630TIP3    H2 1813   7.063   1.580   1.292
  631TIP3   OH2 1814   6.189   2.717  -0.050
  631TIP3    H1 1815   6.129   2.654  -0.094
  631TIP3    H2 1816   6.239   2.658   0.009
  632TIP3   OH2 1817   6.330   2.557   0.132
  632TIP3    H1 1818   6.318   2.489   0.202
  632TIP3    H2 1819   6.381   2.623   0.182
  633TIP3   OH2 1820   6.525   1.976   0.481
  633TIP3    H1 1821   6.533   1.930   0.397
  633TIP3    H2 1822   6.620   1.976   0.510
  634TIP3   OH2 1823   6.749   1.691   1.201
  634TIP3    H1 1824   6.836   1.661   1.168
  634TIP3    H2 1825   6.716   1.607   1.241
  635TIP3   OH2 1826   6.742   2.640   0.956
  635TIP3    H1 1827   6.649   2.611   0.944
  635TIP3    H2 1828   6.759   2.613   1.047
  636TIP3   OH2 1829   6.917   2.672   0.514
  636TIP3    H1 1830   6.877   2.750   0.470
  636TIP3    H2 1831   7.006   2.677   0.471
  637TIP3   OH2 1832   7.364   2.909   0.646
  637TIP3    H1 1833   7.408   2.907   0.733
  637TIP3    H2 1834   7.431   2.958   0.593
  638TIP3   OH2 1835   7.544   3.059   0.502
  638TIP3    H1 1836   7.622   3.010   0.467
  638TIP3    H2 1837   7.589   3.117   0.568
  639TIP3   OH2 1838   6.597   2.923   0.532
  639TIP3    H1 1839   6.506   2.956   0.514
  639TIP3    H2 1840   6.617   2.970   0.614
  640TIP3   OH2 1841   6.835   2.901   0.390
  640TIP3    H1 1842   6.748   2.913   0.434
  640TIP3    H2 1843   6.815   2.933   0.300
  641TIP3   OH2 1844   7.205   2.923   0.230
  641TIP3    H1 1845   7.160   2.939   0.146
  641TIP3    H2 1846   7.241   3.012   0.250
  642TIP3   OH2 1847   7.467   2.832   0.271
  642TIP3    H1 1848   7.374   2.846   0.246
  642TIP3    H2 1849   7.492   2.921   0.298
  643TIP3   OH2 1850   6.512   2.716   0.287
  643TIP3    H1 1851   6.539   2.686   0.377
  643TIP3    H2 1852   6.586   2.676   0.236
  644TIP3   OH2 1853   6.717   2.588   0.157
  644TIP3    H1 1854   6.737   2.498   0.189
  644TIP3    H2 1855   6.808   2.623   0.143
  645TIP3   OH2 1856   6.981   2.682   0.146
  645TIP3    H1 1857   7.014   2.590   0.131
  645TIP3    H2 1858   7.032   2.702   0.228
  646TIP3   OH2 1859   7.950   2.891   0.593
  646TIP3    H1 1860   7.870   2.892   0.537
  646TIP3    H2 1861   8.006   2.953   0.542
  647TIP3   OH2 1862   0.473   3.300   2.115
  647TIP3    H1 1863   0.458   3.244   2.036
  647TIP3    H2 1864   0.457   3.389   2.075
  648TIP3   OH2 1865   0.716   3.656   2.120
  648TIP3    H1 1866   0.717   3.559   2.132
  648TIP3    H2 1867   0.632   3.677   2.166
  649TIP3   OH2 1868   0.649   2.763   2.406
  649TIP3    H1 1869   0.569   2.750   2.349
  649TIP3    H2 1870   0.688   2.673   2.411
  650TIP3   OH2 1871   0.410   3.996   2.223
  650TIP3    H1 1872   0.402   4.020   2.129
  650TIP3    H2 1873   0.489   4.046   2.250
  651TIP3   OH2 1874   0.077   3.519   2.189
  651TIP3    H1 1875  -0.009   3.502   2.230
  651TIP3    H2 1876   0.131   3.532   2.271
  652TIP3   OH2 1877   0.737   3.373   2.157
  652TIP3    H1 1878   0.641   3.358   2.170
  652TIP3    H2 1879   0.751   3.332   2.068
  653TIP3   OH2 1880   0.242   3.696   2.064
  653TIP3    H1 1881   0.164   3.641   2.087
  653TIP3    H2 1882   0.207   3.757   1.995
  654TIP3   OH2 1883  -0.478   3.630   2.656
  654TIP3    H1 1884  -0.385   3.626   2.684
  654TIP3    H2 1885  -0.463   3.678   2.572
  655TIP3   OH2 1886   0.155   3.572   2.444
  655TIP3    H1 1887   0.135   3.504   2.512
  655TIP3    H2 1888   0.233   3.619   2.481
  656TIP3   OH2 1889   0.144   3.120   2.621
  656TIP3    H1 1890   0.195   3.081   2.548
  656TIP3    H2 1891   0.142   3.048   2.687
  657TIP3   OH2 1892   0.379   2.807   2.732
  657TIP3    H1 1893   0.412   2.720   2.699
  657TIP3    H2 1894   0.401   2.866   2.659
  658TIP3   OH2 1895   0.378   3.064   2.403
  658TIP3    H1 1896   0.326   3.035   2.327
  658TIP3    H2 1897   0.464   3.083   2.359
  659TIP3   OH2 1898   0.492   2.565   2.688
  659TIP3    H1 1899   0.520   2.476   2.661
  659TIP3    H2 1900   0.490   2.554   2.784
  660TIP3   OH2 1901   0.534   3.740   1.601
  660TIP3    H1 1902   0.552   3.797   1.678
  660TIP3    H2 1903   0.606   3.766   1.540
  661TIP3   OH2 1904   0.552   3.776   1.897
  661TIP3    H1 1905   0.500   3.694   1.906
  661TIP3    H2 1906   0.627   3.753   1.954
  662TIP3   OH2 1907   0.591   3.446   2.467
  662TIP3    H1 1908   0.517   3.456   2.530
  662TIP3    H2 1909   0.632   3.535   2.471
  663TIP3   OH2 1910   0.432   3.529   1.969
  663TIP3    H1 1911   0.356   3.582   2.001
  663TIP3    H2 1912   0.404   3.500   1.880
  664TIP3   OH2 1913   0.632   3.111   2.296
  664TIP3    H1 1914   0.706   3.049   2.276
  664TIP3    H2 1915   0.625   3.164   2.215
  665TIP3   OH2 1916   0.829   2.925   2.288
  665TIP3    H1 1917   0.763   2.871   2.337
  665TIP3    H2 1918   0.911   2.880   2.316
  666TIP3   OH2 1919   1.034   2.338   2.620
  666TIP3    H1 1920   1.070   2.269   2.564
  666TIP3    H2 1921   0.963   2.378   2.561
  667TIP3   OH2 1922   0.008   3.885   2.167
  667TIP3    H1 1923   0.056   3.803   2.174
  667TIP3    H2 1924   0.041   3.933   2.246
  668TIP3   OH2 1925   0.213   3.857   1.842
  668TIP3    H1 1926   0.180   3.939   1.800
  668TIP3    H2 1927   0.220   3.796   1.765
  669TIP3   OH2 1928   0.469   3.729   2.225
  669TIP3    H1 1929   0.390   3.703   2.173
  669TIP3    H2 1930   0.451   3.825   2.233
  670TIP3   OH2 1931   1.759   3.142   1.005
  670TIP3    H1 1932   1.708   3.216   0.965
  670TIP3    H2 1933   1.688   3.090   1.046
  671TIP3   OH2 1934   1.724   3.094   1.376
  671TIP3    H1 1935   1.770   3.078   1.460
  671TIP3    H2 1936   1.689   3.005   1.356
  672TIP3   OH2 1937   1.035   2.981   1.747
  672TIP3    H1 1938   1.059   2.914   1.814
  672TIP3    H2 1939   1.090   3.056   1.775
  673TIP3   OH2 1940   1.979   3.401   1.050
  673TIP3    H1 1941   1.958   3.334   1.116
  673TIP3    H2 1942   2.010   3.475   1.104
  674TIP3   OH2 1943   1.014   3.392   1.433
  674TIP3    H1 1944   0.969   3.349   1.508
  674TIP3    H2 1945   1.104   3.403   1.465
  675TIP3   OH2 1946   1.636   3.867   1.069
  675TIP3    H1 1947   1.674   3.794   1.015
  675TIP3    H2 1948   1.620   3.822   1.153
  676TIP3   OH2 1949   1.538   3.318   1.410
  676TIP3    H1 1950   1.586   3.238   1.381
  676TIP3    H2 1951   1.616   3.372   1.434
  677TIP3   OH2 1952   2.555   2.645   1.416
  677TIP3    H1 1953   2.580   2.729   1.460
  677TIP3    H2 1954   2.569   2.668   1.323
  678TIP3   OH2 1955   1.958   2.826   1.447
  678TIP3    H1 1956   1.986   2.735   1.470
  678TIP3    H2 1957   1.931   2.813   1.354
  679TIP3   OH2 1958   2.622   2.856   1.586
  679TIP3    H1 1959   2.539   2.903   1.564
  679TIP3    H2 1960   2.644   2.897   1.672
  680TIP3   OH2 1961   1.611   3.330   0.871
  680TIP3    H1 1962   1.593   3.305   0.779
  680TIP3    H2 1963   1.565   3.416   0.877
  681TIP3   OH2 1964   1.383   3.242   1.638
  681TIP3    H1 1965   1.324   3.311   1.676
  681TIP3    H2 1966   1.428   3.291   1.567
  682TIP3   OH2 1967   2.227   2.540   1.266
  682TIP3    H1 1968   2.148   2.556   1.323
  682TIP3    H2 1969   2.253   2.631   1.247
  683TIP3   OH2 1970   1.211   3.440   1.732
  683TIP3    H1 1971   1.194   3.533   1.706
  683TIP3    H2 1972   1.132   3.425   1.790
  684TIP3   OH2 1973   2.048   3.649   1.215
  684TIP3    H1 1974   1.958   3.639   1.254
  684TIP3    H2 1975   2.039   3.734   1.168
  685TIP3   OH2 1976   2.347   2.534   1.579
  685TIP3    H1 1977   2.258   2.569   1.558
  685TIP3    H2 1978   2.401   2.572   1.507
  686TIP3   OH2 1979   1.746   3.687   0.888
  686TIP3    H1 1980   1.798   3.606   0.867
  686TIP3    H2 1981   1.806   3.754   0.848
  687TIP3   OH2 1982   1.897   3.477   0.796
  687TIP3    H1 1983   1.843   3.406   0.759
  687TIP3    H2 1984   1.930   3.438   0.880
  688TIP3   OH2 1985   2.274   3.556   1.558
  688TIP3    H1 1986   2.260   3.479   1.499
  688TIP3    H2 1987   2.254   3.631   1.498
  689TIP3   OH2 1988   2.469   3.198   1.410
  689TIP3    H1 1989   2.383   3.247   1.412
  689TIP3    H2 1990   2.499   3.221   1.319
  690TIP3   OH2 1991   1.925   3.070   0.805
  690TIP3    H1 1992   1.881   3.108   0.885
  690TIP3    H2 1993   2.007   3.034   0.844
  691TIP3   OH2 1994   2.147   3.077   1.699
  691TIP3    H1 1995   2.143   3.160   1.750
  691TIP3    H2 1996   2.061   3.079   1.652
  692TIP3   OH2 1997   1.299   3.449   1.343
  692TIP3    H1 1998   1.260   3.379   1.290
  692TIP3    H2 1999   1.386   3.411   1.366
  693TIP3   OH2 2000   1.275   3.004   1.532
  693TIP3    H1 2001   1.351   2.988   1.474
  693TIP3    H2 2002   1.302   3.089   1.574
  694TIP3   OH2 2003   1.807   3.641   1.336
  694TIP3    H1 2004   1.794   3.722   1.390
  694TIP3    H2 2005   1.791   3.569   1.400
  695TIP3   OH2 2006   1.419   3.555   1.882
  695TIP3    H1 2007   1.359   3.618   1.929
  695TIP3    H2 2008   1.353   3.505   1.830
  696TIP3   OH2 2009   1.172   3.115   1.984
  696TIP3    H1 2010   1.180   3.203   2.028
  696TIP3    H2 2011   1.079   3.094   2.005
  697TIP3   OH2 2012   1.487   3.581   0.891
  697TIP3    H1 2013   1.576   3.621   0.898
  697TIP3    H2 2014   1.433   3.659   0.868
  698TIP3   OH2 2015   1.216   3.723   1.974
  698TIP3    H1 2016   1.184   3.727   1.882
  698TIP3    H2 2017   1.134   3.701   2.024
  699TIP3   OH2 2018   2.063   3.492   0.211
  699TIP3    H1 2019   2.074   3.588   0.194
  699TIP3    H2 2020   2.154   3.460   0.191
  700TIP3   OH2 2021   0.792   3.253   1.915
  700TIP3    H1 2022   0.803   3.239   1.818
  700TIP3    H2 2023   0.825   3.167   1.948
  701TIP3   OH2 2024   0.668   3.503   1.654
  701TIP3    H1 2025   0.685   3.489   1.558
  701TIP3    H2 2026   0.624   3.590   1.650
  702TIP3   OH2 2027   2.512   3.908   1.608
  702TIP3    H1 2028   2.510   3.811   1.621
  702TIP3    H2 2029   2.428   3.933   1.653
  703TIP3   OH2 2030   1.616   3.686   1.742
  703TIP3    H1 2031   1.612   3.779   1.773
  703TIP3    H2 2032   1.543   3.646   1.794
  704TIP3   OH2 2033   1.387   3.819   0.776
  704TIP3    H1 2034   1.347   3.785   0.694
  704TIP3    H2 2035   1.365   3.914   0.773
  705TIP3   OH2 2036   1.597   3.728   0.387
  705TIP3    H1 2037   1.670   3.677   0.348
  705TIP3    H2 2038   1.632   3.749   0.476
  706TIP3   OH2 2039   1.628   3.788   0.648
  706TIP3    H1 2040   1.547   3.793   0.702
  706TIP3    H2 2041   1.675   3.717   0.694
  707TIP3   OH2 2042   2.401   3.032   1.880
  707TIP3    H1 2043   2.315   3.044   1.837
  707TIP3    H2 2044   2.410   2.935   1.877
  708TIP3   OH2 2045   1.001   3.434   1.906
  708TIP3    H1 2046   1.048   3.419   1.990
  708TIP3    H2 2047   0.922   3.378   1.916
  709TIP3   OH2 2048   1.928   2.347   1.889
  709TIP3    H1 2049   1.997   2.366   1.955
  709TIP3    H2 2050   1.845   2.370   1.934
  710TIP3   OH2 2051   2.181   2.826   1.812
  710TIP3    H1 2052   2.122   2.811   1.890
  710TIP3    H2 2053   2.146   2.908   1.773
  711TIP3   OH2 2054   1.272   2.755   1.671
  711TIP3    H1 2055   1.239   2.772   1.760
  711TIP3    H2 2056   1.270   2.843   1.631
  712TIP3   OH2 2057   1.882   3.044   2.047
  712TIP3    H1 2058   1.855   2.960   2.088
  712TIP3    H2 2059   1.978   3.045   2.067
  713TIP3   OH2 2060   1.877   2.785   1.186
  713TIP3    H1 2061   1.818   2.826   1.119
  713TIP3    H2 2062   1.880   2.693   1.151
  714TIP3   OH2 2063   1.146   2.803   1.933
  714TIP3    H1 2064   1.186   2.873   1.987
  714TIP3    H2 2065   1.142   2.728   1.996
  715TIP3   OH2 2066   1.870   3.020   1.613
  715TIP3    H1 2067   1.904   2.948   1.554
  715TIP3    H2 2068   1.840   2.968   1.688
  716TIP3   OH2 2069   2.036   2.555   1.456
  716TIP3    H1 2070   2.027   2.558   1.554
  716TIP3    H2 2071   1.953   2.507   1.433
  717TIP3   OH2 2072   2.207   4.252   1.707
  717TIP3    H1 2073   2.202   4.277   1.613
  717TIP3    H2 2074   2.285   4.303   1.737
  718TIP3   OH2 2075   1.163   3.361   2.127
  718TIP3    H1 2076   1.241   3.393   2.175
  718TIP3    H2 2077   1.097   3.361   2.199
  719TIP3   OH2 2078   1.648   2.815   1.400
  719TIP3    H1 2079   1.732   2.774   1.374
  719TIP3    H2 2080   1.637   2.770   1.487
  720TIP3   OH2 2081   2.233   3.339   1.392
  720TIP3    H1 2082   2.257   3.391   1.312
  720TIP3    H2 2083   2.149   3.297   1.365
  721TIP3   OH2 2084   1.736   3.426   1.761
  721TIP3    H1 2085   1.759   3.403   1.852
  721TIP3    H2 2086   1.696   3.514   1.771
  722TIP3   OH2 2087   0.914   3.047   2.054
  722TIP3    H1 2088   0.922   3.033   2.150
  722TIP3    H2 2089   0.844   2.983   2.032
  723TIP3   OH2 2090   1.637   3.167   2.075
  723TIP3    H1 2091   1.579   3.111   2.020
  723TIP3    H2 2092   1.725   3.131   2.051
  724TIP3   OH2 2093   1.893   3.684   1.658
  724TIP3    H1 2094   1.797   3.682   1.673
  724TIP3    H2 2095   1.922   3.736   1.737
  725TIP3   OH2 2096   2.524   3.617   1.645
  725TIP3    H1 2097   2.427   3.610   1.637
  725TIP3    H2 2098   2.550   3.585   1.555
  726TIP3   OH2 2099   1.995   3.584   0.469
  726TIP3    H1 2100   1.973   3.515   0.532
  726TIP3    H2 2101   2.016   3.535   0.387
  727TIP3   OH2 2102   1.999   3.205   1.311
  727TIP3    H1 2103   1.905   3.181   1.319
  727TIP3    H2 2104   2.034   3.124   1.268
  728TIP3   OH2 2105   1.403   3.776   1.532
  728TIP3    H1 2106   1.446   3.848   1.482
  728TIP3    H2 2107   1.478   3.739   1.581
  729TIP3   OH2 2108   1.053   3.680   0.934
  729TIP3    H1 2109   0.990   3.683   1.007
  729TIP3    H2 2110   1.086   3.772   0.932
  730TIP3   OH2 2111   1.784   3.408   1.494
  730TIP3    H1 2112   1.772   3.410   1.592
  730TIP3    H2 2113   1.866   3.358   1.485
  731TIP3   OH2 2114   2.035   3.939   1.543
  731TIP3    H1 2115   1.954   3.883   1.539
  731TIP3    H2 2116   2.017   4.003   1.471
  732TIP3   OH2 2117   2.100   3.777   0.192
  732TIP3    H1 2118   2.149   3.855   0.159
  732TIP3    H2 2119   2.019   3.821   0.225
  733TIP3   OH2 2120   1.110   2.578   2.100
  733TIP3    H1 2121   1.021   2.550   2.124
  733TIP3    H2 2122   1.164   2.514   2.149
  734TIP3   OH2 2123   1.926   3.225   0.581
  734TIP3    H1 2124   1.915   3.164   0.657
  734TIP3    H2 2125   2.012   3.262   0.600
  735TIP3   OH2 2126   0.886   3.676   1.697
  735TIP3    H1 2127   0.839   3.591   1.703
  735TIP3    H2 2128   0.905   3.695   1.789
  736TIP3   OH2 2129   2.014   2.586   1.721
  736TIP3    H1 2130   2.025   2.662   1.779
  736TIP3    H2 2131   1.920   2.562   1.737
  737TIP3   OH2 2132   2.438   2.754   1.804
  737TIP3    H1 2133   2.340   2.761   1.814
  737TIP3    H2 2134   2.445   2.741   1.709
  738TIP3   OH2 2135   2.088   2.964   1.199
  738TIP3    H1 2136   2.014   2.900   1.202
  738TIP3    H2 2137   2.159   2.914   1.244
  739TIP3   OH2 2138   2.056   3.920   1.135
  739TIP3    H1 2139   2.013   3.968   1.061
  739TIP3    H2 2140   2.150   3.936   1.114
  740TIP3   OH2 2141   0.831   3.952   2.114
  740TIP3    H1 2142   0.916   3.953   2.162
  740TIP3    H2 2143   0.808   3.858   2.117
  741TIP3   OH2 2144   1.305   3.905   2.162
  741TIP3    H1 2145   1.400   3.887   2.166
  741TIP3    H2 2146   1.278   3.843   2.091
  742TIP3   OH2 2147   1.949   3.816   1.893
  742TIP3    H1 2148   1.941   3.747   1.963
  742TIP3    H2 2149   2.023   3.870   1.925
  743TIP3   OH2 2150   0.962   3.353   2.319
  743TIP3    H1 2151   0.976   3.256   2.324
  743TIP3    H2 2152   0.876   3.359   2.272
  744TIP3   OH2 2153   1.565   3.442   2.089
  744TIP3    H1 2154   1.520   3.461   2.004
  744TIP3    H2 2155   1.593   3.348   2.078
  745TIP3   OH2 2156   2.057   3.450   1.699
  745TIP3    H1 2157   2.132   3.495   1.655
  745TIP3    H2 2158   1.986   3.515   1.685
  746TIP3   OH2 2159   1.085   3.094   2.302
  746TIP3    H1 2160   1.162   3.044   2.271
  746TIP3    H2 2161   1.116   3.127   2.389
  747TIP3   OH2 2162   1.408   2.973   1.965
  747TIP3    H1 2163   1.330   3.032   1.962
  747TIP3    H2 2164   1.460   3.005   1.888
  748TIP3   OH2 2165   1.932   3.375   2.093
  748TIP3    H1 2166   2.002   3.335   2.040
  748TIP3    H2 2167   1.916   3.307   2.161
  749TIP3   OH2 2168   1.539   2.770   2.081
  749TIP3    H1 2169   1.539   2.702   2.013
  749TIP3    H2 2170   1.493   2.843   2.034
  750TIP3   OH2 2171   1.563   3.086   1.778
  750TIP3    H1 2172   1.636   3.078   1.716
  750TIP3    H2 2173   1.504   3.150   1.732
  751TIP3   OH2 2174   2.146   3.047   2.147
  751TIP3    H1 2175   2.199   2.967   2.157
  751TIP3    H2 2176   2.211   3.110   2.111
  752TIP3   OH2 2177   2.187   3.301   1.884
  752TIP3    H1 2178   2.128   3.357   1.826
  752TIP3    H2 2179   2.274   3.323   1.844
  753TIP3   OH2 2180   1.415   2.868   2.322
  753TIP3    H1 2181   1.353   2.793   2.337
  753TIP3    H2 2182   1.446   2.849   2.231
  754TIP3   OH2 2183   1.659   2.337   1.965
  754TIP3    H1 2184   1.620   2.389   1.894
  754TIP3    H2 2185   1.611   2.252   1.957
  755TIP3   OH2 2186   1.801   2.810   2.171
  755TIP3    H1 2187   1.783   2.800   2.266
  755TIP3    H2 2188   1.711   2.792   2.135
  756TIP3   OH2 2189   2.037   2.758   2.029
  756TIP3    H1 2190   1.957   2.766   2.085
  756TIP3    H2 2191   2.106   2.732   2.092
  757TIP3   OH2 2192   2.275   2.706   2.185
  757TIP3    H1 2193   2.281   2.610   2.204
  757TIP3    H2 2194   2.265   2.745   2.275
  758TIP3   OH2 2195   1.269   2.643   2.379
  758TIP3    H1 2196   1.265   2.552   2.343
  758TIP3    H2 2197   1.306   2.625   2.468
  759TIP3   OH2 2198   1.755   2.318   2.224
  759TIP3    H1 2199   1.822   2.249   2.207
  759TIP3    H2 2200   1.714   2.328   2.135
  760TIP3   OH2 2201   1.829   2.533   2.380
  760TIP3    H1 2202   1.804   2.463   2.316
  760TIP3    H2 2203   1.752   2.595   2.374
  761TIP3   OH2 2204   2.314   4.000   1.100
  761TIP3    H1 2205   2.340   4.037   1.186
  761TIP3    H2 2206   2.374   4.046   1.039
  762TIP3   OH2 2207   2.339   4.027   1.382
  762TIP3    H1 2208   2.291   3.941   1.374
  762TIP3    H2 2209   2.412   3.999   1.440
  763TIP3   OH2 2210   2.387   3.702   1.953
  763TIP3    H1 2211   2.314   3.712   2.018
  763TIP3    H2 2212   2.428   3.791   1.956
  764TIP3   OH2 2213   2.362   3.055   0.797
  764TIP3    H1 2214   2.273   3.042   0.836
  764TIP3    H2 2215   2.349   3.131   0.735
  765TIP3   OH2 2216   2.389   3.479   1.210
  765TIP3    H1 2217   2.435   3.410   1.158
  765TIP3    H2 2218   2.386   3.553   1.146
  766TIP3   OH2 2219   2.213   3.777   1.400
  766TIP3    H1 2220   2.140   3.819   1.450
  766TIP3    H2 2221   2.164   3.732   1.328
  767TIP3   OH2 2222   2.254   3.016   0.450
  767TIP3    H1 2223   2.179   3.075   0.445
  767TIP3    H2 2224   2.315   3.073   0.503
  768TIP3   OH2 2225   2.135   2.951   0.929
  768TIP3    H1 2226   2.115   2.857   0.916
  768TIP3    H2 2227   2.126   2.962   1.026
  769TIP3   OH2 2228   2.433   3.367   1.779
  769TIP3    H1 2229   2.504   3.300   1.764
  769TIP3    H2 2230   2.453   3.434   1.711
  770TIP3   OH2 2231   2.616   3.165   1.779
  770TIP3    H1 2232   2.540   3.118   1.822
  770TIP3    H2 2233   2.688   3.102   1.800
  771TIP3   OH2 2234   2.300   2.824   1.309
  771TIP3    H1 2235   2.385   2.852   1.268
  771TIP3    H2 2236   2.312   2.864   1.398
  772TIP3   OH2 2237   2.372   2.973   1.539
  772TIP3    H1 2238   2.294   3.006   1.589
  772TIP3    H2 2239   2.403   3.056   1.496
  773TIP3   OH2 2240   1.027   2.762   2.370
  773TIP3    H1 2241   1.109   2.712   2.354
  773TIP3    H2 2242   0.964   2.687   2.384
  774TIP3   OH2 2243   2.821   2.568   2.097
  774TIP3    H1 2244   2.883   2.506   2.052
  774TIP3    H2 2245   2.789   2.621   2.021
  775TIP3   OH2 2246   2.691   2.705   1.904
  775TIP3    H1 2247   2.609   2.751   1.931
  775TIP3    H2 2248   2.653   2.638   1.845
  776TIP3   OH2 2249   1.901   3.872   0.760
  776TIP3    H1 2250   1.946   3.861   0.674
  776TIP3    H2 2251   1.955   3.940   0.802
  777TIP3   OH2 2252   0.994   3.677   2.134
  777TIP3    H1 2253   0.899   3.657   2.121
  777TIP3    H2 2254   1.003   3.661   2.229
  778TIP3   OH2 2255   1.187   3.709   1.692
  778TIP3    H1 2256   1.117   3.766   1.653
  778TIP3    H2 2257   1.263   3.740   1.638
  779TIP3   OH2 2258   1.612   3.953   1.819
  779TIP3    H1 2259   1.654   3.952   1.908
  779TIP3    H2 2260   1.677   4.007   1.770
  780TIP3   OH2 2261   1.792   4.110   1.684
  780TIP3    H1 2262   1.861   4.059   1.641
  780TIP3    H2 2263   1.845   4.166   1.744
  781TIP3   OH2 2264   2.592   2.474   1.781
  781TIP3    H1 2265   2.504   2.481   1.740
  781TIP3    H2 2266   2.614   2.379   1.768
  782TIP3   OH2 2267   0.855   3.995   1.700
  782TIP3    H1 2268   0.760   4.014   1.683
  782TIP3    H2 2269   0.859   4.011   1.795
  783TIP3   OH2 2270   1.090   3.948   1.567
  783TIP3    H1 2271   1.004   3.963   1.614
  783TIP3    H2 2272   1.066   3.974   1.477
  784TIP3   OH2 2273   1.510   3.972   1.365
  784TIP3    H1 2274   1.439   3.989   1.300
  784TIP3    H2 2275   1.520   4.060   1.407
  785TIP3   OH2 2276   1.779   3.911   1.419
  785TIP3    H1 2277   1.685   3.929   1.399
  785TIP3    H2 2278   1.822   3.984   1.371
  786TIP3   OH2 2279   1.986   4.104   1.329
  786TIP3    H1 2280   1.971   4.188   1.280
  786TIP3    H2 2281   2.012   4.043   1.256
  787TIP3   OH2 2282   0.775   3.776   1.467
  787TIP3    H1 2283   0.825   3.756   1.549
  787TIP3    H2 2284   0.817   3.713   1.405
  788TIP3   OH2 2285   0.952   3.632   1.305
  788TIP3    H1 2286   0.966   3.546   1.350
  788TIP3    H2 2287   1.042   3.669   1.304
  789TIP3   OH2 2288   1.228   3.729   1.314
  789TIP3    H1 2289   1.257   3.636   1.302
  789TIP3    H2 2290   1.273   3.749   1.398
  790TIP3   OH2 2291   2.304   2.281   1.319
  790TIP3    H1 2292   2.358   2.299   1.239
  790TIP3    H2 2293   2.265   2.372   1.326
  791TIP3   OH2 2294   2.444   2.346   1.093
  791TIP3    H1 2295   2.537   2.330   1.071
  791TIP3    H2 2296   2.440   2.442   1.074
  792TIP3   OH2 2297   2.037   3.847   0.519
  792TIP3    H1 2298   2.028   3.749   0.507
  792TIP3    H2 2299   1.992   3.879   0.438
  793TIP3   OH2 2300   1.255   2.383   2.303
  793TIP3    H1 2301   1.210   2.310   2.348
  793TIP3    H2 2302   1.346   2.373   2.337
  794TIP3   OH2 2303   1.502   2.368   2.430
  794TIP3    H1 2304   1.588   2.348   2.391
  794TIP3    H2 2305   1.491   2.296   2.495
  795TIP3   OH2 2306   2.330   2.433   2.216
  795TIP3    H1 2307   2.347   2.404   2.309
  795TIP3    H2 2308   2.420   2.431   2.177
  796TIP3   OH2 2309   2.263   3.982   1.705
  796TIP3    H1 2310   2.184   3.951   1.655
  796TIP3    H2 2311   2.242   4.077   1.713
  797TIP3   OH2 2312   3.528   3.360   0.457
  797TIP3    H1 2313   3.487   3.448   0.458
  797TIP3    H2 2314   3.454   3.306   0.423
  798TIP3   OH2 2315   3.530   3.355   0.860
  798TIP3    H1 2316   3.567   3.333   0.946
  798TIP3    H2 2317   3.488   3.271   0.835
  799TIP3   OH2 2318   2.830   3.250   1.216
  799TIP3    H1 2319   2.862   3.180   1.276
  799TIP3    H2 2320   2.909   3.305   1.208
  800TIP3   OH2 2321   3.774   3.658   0.537
  800TIP3    H1 2322   3.763   3.593   0.607
  800TIP3    H2 2323   3.807   3.736   0.585
  801TIP3   OH2 2324   2.803   3.668   0.943
  801TIP3    H1 2325   2.799   3.569   0.941
  801TIP3    H2 2326   2.898   3.680   0.956
  802TIP3   OH2 2327   2.515   2.841   0.728
  802TIP3    H1 2328   2.475   2.928   0.754
  802TIP3    H2 2329   2.436   2.798   0.694
  803TIP3   OH2 2330   2.616   3.180   0.906
  803TIP3    H1 2331   2.628   3.085   0.924
  803TIP3    H2 2332   2.558   3.180   0.828
  804TIP3   OH2 2333   3.396   4.107   0.559
  804TIP3    H1 2334   3.448   4.057   0.494
  804TIP3    H2 2335   3.430   4.075   0.643
  805TIP3   OH2 2336   3.329   3.580   0.896
  805TIP3    H1 2337   3.374   3.499   0.866
  805TIP3    H2 2338   3.409   3.631   0.921
  806TIP3   OH2 2339   4.346   2.901   0.900
  806TIP3    H1 2340   4.376   2.985   0.940
  806TIP3    H2 2341   4.372   2.915   0.807
  807TIP3   OH2 2342   3.750   3.082   0.928
  807TIP3    H1 2343   3.782   2.992   0.948
  807TIP3    H2 2344   3.706   3.068   0.842
  808TIP3   OH2 2345   3.082   2.742   0.897
  808TIP3    H1 2346   3.060   2.817   0.838
  808TIP3    H2 2347   3.033   2.671   0.851
  809TIP3   OH2 2348   3.779   2.826   0.522
  809TIP3    H1 2349   3.853   2.817   0.587
  809TIP3    H2 2350   3.827   2.864   0.446
  810TIP3   OH2 2351   2.708   2.930   1.008
  810TIP3    H1 2352   2.794   2.923   1.053
  810TIP3    H2 2353   2.728   2.884   0.924
  811TIP3   OH2 2354   3.154   3.149   0.795
  811TIP3    H1 2355   3.245   3.121   0.812
  811TIP3    H2 2356   3.111   3.065   0.768
  812TIP3   OH2 2357   4.419   3.112   1.069
  812TIP3    H1 2358   4.334   3.157   1.051
  812TIP3    H2 2359   4.439   3.144   1.158
  813TIP3   OH2 2360   3.075   2.726   1.336
  813TIP3    H1 2361   3.019   2.764   1.265
  813TIP3    H2 2362   3.021   2.746   1.415
  814TIP3   OH2 2363   3.341   3.566   0.357
  814TIP3    H1 2364   3.369   3.551   0.265
  814TIP3    H2 2365   3.355   3.663   0.366
  815TIP3   OH2 2366   3.185   3.506   1.125
  815TIP3    H1 2367   3.121   3.572   1.161
  815TIP3    H2 2368   3.223   3.554   1.049
  816TIP3   OH2 2369   3.983   2.837   0.706
  816TIP3    H1 2370   3.959   2.816   0.798
  816TIP3    H2 2371   4.036   2.918   0.719
  817TIP3   OH2 2372   2.950   2.839   1.117
  817TIP3    H1 2373   3.012   2.912   1.140
  817TIP3    H2 2374   2.998   2.800   1.041
  818TIP3   OH2 2375   3.013   3.701   1.222
  818TIP3    H1 2376   2.988   3.791   1.191
  818TIP3    H2 2377   2.933   3.681   1.277
  819TIP3   OH2 2378   3.848   3.908   0.703
  819TIP3    H1 2379   3.758   3.898   0.742
  819TIP3    H2 2380   3.839   3.994   0.657
  820TIP3   OH2 2381   4.140   2.802   1.066
  820TIP3    H1 2382   4.052   2.828   1.033
  820TIP3    H2 2383   4.200   2.833   0.995
  821TIP3   OH2 2384   3.445   2.454   1.064
  821TIP3    H1 2385   3.418   2.362   1.044
  821TIP3    H2 2386   3.359   2.491   1.093
  822TIP3   OH2 2387   3.535   3.943   0.374
  822TIP3    H1 2388   3.582   3.860   0.350
  822TIP3    H2 2389   3.602   4.009   0.342
  823TIP3   OH2 2390   3.664   3.712   0.288
  823TIP3    H1 2391   3.690   3.642   0.226
  823TIP3    H2 2392   3.713   3.687   0.369
  824TIP3   OH2 2393   4.150   3.784   1.030
  824TIP3    H1 2394   4.093   3.725   0.977
  824TIP3    H2 2395   4.115   3.870   1.000
  825TIP3   OH2 2396   3.355   3.206   0.302
  825TIP3    H1 2397   3.264   3.190   0.273
  825TIP3    H2 2398   3.405   3.203   0.218
  826TIP3   OH2 2399   3.311   2.989   0.041
  826TIP3    H1 2400   3.389   3.044   0.062
  826TIP3    H2 2401   3.352   2.908   0.007
  827TIP3   OH2 2402   4.265   3.490   0.903
  827TIP3    H1 2403   4.173   3.521   0.882
  827TIP3    H2 2404   4.304   3.496   0.812
  828TIP3   OH2 2405   3.712   3.287   0.271
  828TIP3    H1 2406   3.657   3.313   0.349
  828TIP3    H2 2407   3.796   3.263   0.315
  829TIP3   OH2 2408   3.938   3.336   1.186
  829TIP3    H1 2409   3.911   3.411   1.239
  829TIP3    H2 2410   3.856   3.322   1.134
  830TIP3   OH2 2411   2.953   3.304   0.671
  830TIP3    H1 2412   2.908   3.245   0.608
  830TIP3    H2 2413   3.024   3.247   0.706
  831TIP3   OH2 2414   3.083   3.704   0.833
  831TIP3    H1 2415   3.041   3.630   0.789
  831TIP3    H2 2416   3.172   3.668   0.854
  832TIP3   OH2 2417   3.101   3.250   1.054
  832TIP3    H1 2418   3.109   3.235   0.957
  832TIP3    H2 2419   3.123   3.345   1.062
  833TIP3   OH2 2420   3.608   3.897   0.824
  833TIP3    H1 2421   3.590   3.979   0.874
  833TIP3    H2 2422   3.587   3.827   0.889
  834TIP3   OH2 2423   3.217   3.813   1.371
  834TIP3    H1 2424   3.155   3.876   1.416
  834TIP3    H2 2425   3.152   3.762   1.318
  835TIP3   OH2 2426   3.543   3.151   0.102
  835TIP3    H1 2427   3.604   3.209   0.153
  835TIP3    H2 2428   3.573   3.173   0.010
  836TIP3   OH2 2429   2.973   3.366   1.478
  836TIP3    H1 2430   2.976   3.456   1.517
  836TIP3    H2 2431   2.877   3.347   1.489
  837TIP3   OH2 2432   3.275   3.825   0.387
  837TIP3    H1 2433   3.356   3.878   0.403
  837TIP3    H2 2434   3.228   3.886   0.328
  838TIP3   OH2 2435   3.011   3.979   1.458
  838TIP3    H1 2436   2.976   3.985   1.368
  838TIP3    H2 2437   2.930   3.958   1.510
  839TIP3   OH2 2438   4.072   2.391   0.147
  839TIP3    H1 2439   3.989   2.410   0.195
  839TIP3    H2 2440   4.081   2.472   0.093
  840TIP3   OH2 2441   2.815   3.132   0.486
  840TIP3    H1 2442   2.746   3.180   0.435
  840TIP3    H2 2443   2.761   3.063   0.526
  841TIP3   OH2 2444   3.858   3.765  -0.309
  841TIP3    H1 2445   3.875   3.860  -0.286
  841TIP3    H2 2446   3.945   3.725  -0.287
  842TIP3   OH2 2447   2.589   3.516   1.403
  842TIP3    H1 2448   2.519   3.500   1.336
  842TIP3    H2 2449   2.625   3.426   1.418
  843TIP3   OH2 2450   2.443   3.704   1.044
  843TIP3    H1 2451   2.538   3.709   1.028
  843TIP3    H2 2452   2.426   3.789   1.089
  844TIP3   OH2 2453   4.298   4.167   1.092
  844TIP3    H1 2454   4.270   4.075   1.082
  844TIP3    H2 2455   4.221   4.201   1.144
  845TIP3   OH2 2456   3.415   3.940   1.229
  845TIP3    H1 2457   3.411   4.034   1.259
  845TIP3    H2 2458   3.341   3.901   1.281
  846TIP3   OH2 2459   3.179   4.063   0.184
  846TIP3    H1 2460   3.139   4.048   0.096
  846TIP3    H2 2461   3.147   4.152   0.207
  847TIP3   OH2 2462   2.621   3.934   0.563
  847TIP3    H1 2463   2.660   3.921   0.652
  847TIP3    H2 2464   2.570   3.850   0.553
  848TIP3   OH2 2465   3.373   3.980  -0.171
  848TIP3    H1 2466   3.429   3.917  -0.221
  848TIP3    H2 2467   3.416   3.982  -0.084
  849TIP3   OH2 2468   3.435   4.025   0.099
  849TIP3    H1 2469   3.343   4.034   0.131
  849TIP3    H2 2470   3.482   4.003   0.181
  850TIP3   OH2 2471   4.189   3.294   1.357
  850TIP3    H1 2472   4.101   3.281   1.317
  850TIP3    H2 2473   4.219   3.201   1.363
  851TIP3   OH2 2474   2.794   3.697   1.386
  851TIP3    H1 2475   2.841   3.681   1.471
  851TIP3    H2 2476   2.719   3.635   1.394
  852TIP3   OH2 2477   3.194   2.522   1.182
  852TIP3    H1 2478   3.107   2.494   1.149
  852TIP3    H2 2479   3.167   2.604   1.229
  853TIP3   OH2 2480   3.728   2.639   1.375
  853TIP3    H1 2481   3.797   2.609   1.438
  853TIP3    H2 2482   3.644   2.617   1.422
  854TIP3   OH2 2483   3.967   3.073   1.295
  854TIP3    H1 2484   3.914   3.062   1.377
  854TIP3    H2 2485   3.928   3.152   1.254
  855TIP3   OH2 2486   3.635   3.199  -0.147
  855TIP3    H1 2487   3.593   3.171  -0.228
  855TIP3    H2 2488   3.715   3.244  -0.182
  856TIP3   OH2 2489   3.366   2.580   0.162
  856TIP3    H1 2490   3.294   2.609   0.220
  856TIP3    H2 2491   3.324   2.506   0.116
  857TIP3   OH2 2492   3.129   3.030   1.202
  857TIP3    H1 2493   3.074   3.054   1.280
  857TIP3    H2 2494   3.119   3.112   1.147
  858TIP3   OH2 2495   3.010   2.930   0.717
  858TIP3    H1 2496   2.916   2.904   0.733
  858TIP3    H2 2497   3.025   2.887   0.630
  859TIP3   OH2 2498   3.505   3.016   0.443
  859TIP3    H1 2499   3.450   3.084   0.398
  859TIP3    H2 2500   3.555   2.978   0.369
  860TIP3   OH2 2501   3.675   3.282   1.520
  860TIP3    H1 2502   3.650   3.211   1.582
  860TIP3    H2 2503   3.768   3.296   1.546
  861TIP3   OH2 2504   3.662   3.037   0.671
  861TIP3    H1 2505   3.595   3.061   0.604
  861TIP3    H2 2506   3.694   2.954   0.629
  862TIP3   OH2 2507   2.946   3.066   1.403
  862TIP3    H1 2508   2.962   3.133   1.471
  862TIP3    H2 2509   2.932   2.985   1.456
  863TIP3   OH2 2510   3.048   2.569   0.145
  863TIP3    H1 2511   3.031   2.570   0.242
  863TIP3    H2 2512   2.961   2.538   0.113
  864TIP3   OH2 2513   2.557   2.570   0.978
  864TIP3    H1 2514   2.613   2.608   1.049
  864TIP3    H2 2515   2.580   2.626   0.903
  865TIP3   OH2 2516   3.676   3.279   1.095
  865TIP3    H1 2517   3.704   3.206   1.034
  865TIP3    H2 2518   3.639   3.226   1.169
  866TIP3   OH2 2519   3.339   2.781   0.776
  866TIP3    H1 2520   3.251   2.760   0.811
  866TIP3    H2 2521   3.395   2.746   0.846
  867TIP3   OH2 2522   2.777   2.799   0.776
  867TIP3    H1 2523   2.684   2.808   0.743
  867TIP3    H2 2524   2.804   2.712   0.743
  868TIP3   OH2 2525   3.052   2.790   0.491
  868TIP3    H1 2526   3.147   2.799   0.469
  868TIP3    H2 2527   3.007   2.812   0.406
  869TIP3   OH2 2528   3.826   2.817   0.972
  869TIP3    H1 2529   3.803   2.835   1.066
  869TIP3    H2 2530   3.754   2.755   0.949
  870TIP3   OH2 2531   2.911   2.840   0.265
  870TIP3    H1 2532   2.818   2.860   0.244
  870TIP3    H2 2533   2.953   2.863   0.180
  871TIP3   OH2 2534   4.003   4.509   1.194
  871TIP3    H1 2535   3.998   4.536   1.100
  871TIP3    H2 2536   4.081   4.559   1.224
  872TIP3   OH2 2537   2.957   3.619   1.611
  872TIP3    H1 2538   3.035   3.649   1.661
  872TIP3    H2 2539   2.890   3.617   1.683
  873TIP3   OH2 2540   3.420   3.084   0.874
  873TIP3    H1 2541   3.465   3.019   0.817
  873TIP3    H2 2542   3.416   3.036   0.959
  874TIP3   OH2 2543   2.940   2.564   0.743
  874TIP3    H1 2544   2.908   2.487   0.795
  874TIP3    H2 2545   2.996   2.521   0.678
  875TIP3   OH2 2546   3.395   2.976   1.153
  875TIP3    H1 2547   3.303   3.005   1.170
  875TIP3    H2 2548   3.449   3.039   1.205
  876TIP3   OH2 2549   4.018   3.598   0.877
  876TIP3    H1 2550   4.040   3.649   0.795
  876TIP3    H2 2551   3.934   3.554   0.850
  877TIP3   OH2 2552   3.620   2.668   0.118
  877TIP3    H1 2553   3.526   2.639   0.114
  877TIP3    H2 2554   3.613   2.763   0.138
  878TIP3   OH2 2555   3.544   3.685   1.251
  878TIP3    H1 2556   3.552   3.660   1.344
  878TIP3    H2 2557   3.497   3.770   1.255
  879TIP3   OH2 2558   3.656   2.925   0.225
  879TIP3    H1 2559   3.753   2.927   0.238
  879TIP3    H2 2560   3.639   3.004   0.171
  880TIP3   OH2 2561   2.855   3.400   0.927
  880TIP3    H1 2562   2.861   3.361   0.838
  880TIP3    H2 2563   2.829   3.323   0.980
  881TIP3   OH2 2564   3.266   3.512   0.075
  881TIP3    H1 2565   3.237   3.606   0.079
  881TIP3    H2 2566   3.184   3.468   0.102
  882TIP3   OH2 2567   2.709   3.296   1.538
  882TIP3    H1 2568   2.717   3.282   1.634
  882TIP3    H2 2569   2.634   3.238   1.517
  883TIP3   OH2 2570   3.433   3.421   1.560
  883TIP3    H1 2571   3.368   3.361   1.519
  883TIP3    H2 2572   3.517   3.382   1.528
  884TIP3   OH2 2573   3.693   3.936   1.149
  884TIP3    H1 2574   3.596   3.935   1.160
  884TIP3    H2 2575   3.720   3.991   1.226
  885TIP3   OH2 2576   4.097   3.020   0.055
  885TIP3    H1 2577   4.038   2.975  -0.010
  885TIP3    H2 2578   4.093   3.109   0.016
  886TIP3   OH2 2579   3.816   3.822  -0.031
  886TIP3    H1 2580   3.763   3.770   0.031
  886TIP3    H2 2581   3.796   3.779  -0.116
  887TIP3   OH2 2582   3.792   3.458   0.793
  887TIP3    H1 2583   3.699   3.432   0.808
  887TIP3    H2 2584   3.826   3.377   0.749
  888TIP3   OH2 2585   2.935   3.678   0.508
  888TIP3    H1 2586   2.907   3.767   0.476
  888TIP3    H2 2587   2.855   3.649   0.554
  889TIP3   OH2 2588   2.448   3.028   0.245
  889TIP3    H1 2589   2.508   3.098   0.275
  889TIP3    H2 2590   2.394   3.013   0.325
  890TIP3   OH2 2591   3.197   4.031   1.021
  890TIP3    H1 2592   3.236   4.104   0.968
  890TIP3    H2 2593   3.275   3.997   1.067
  891TIP3   OH2 2594   2.850   3.923   0.408
  891TIP3    H1 2595   2.764   3.937   0.454
  891TIP3    H2 2596   2.884   4.015   0.410
  892TIP3   OH2 2597   3.576   3.664   0.982
  892TIP3    H1 2598   3.568   3.665   1.080
  892TIP3    H2 2599   3.655   3.609   0.969
  893TIP3   OH2 2600   3.568   3.564  -0.136
  893TIP3    H1 2601   3.612   3.536  -0.054
  893TIP3    H2 2602   3.476   3.537  -0.121
  894TIP3   OH2 2603   3.832   4.194   1.025
  894TIP3    H1 2604   3.749   4.143   1.019
  894TIP3    H2 2605   3.817   4.261   0.954
  895TIP3   OH2 2606   3.890   4.031  -0.282
  895TIP3    H1 2607   3.916   4.061  -0.371
  895TIP3    H2 2608   3.817   4.094  -0.260
  896TIP3   OH2 2609   2.911   2.807   1.547
  896TIP3    H1 2610   2.815   2.814   1.561
  896TIP3    H2 2611   2.939   2.756   1.625
  897TIP3   OH2 2612   3.724   3.504   0.099
  897TIP3    H1 2613   3.714   3.426   0.158
  897TIP3    H2 2614   3.819   3.495   0.074
  898TIP3   OH2 2615   2.637   3.893   1.178
  898TIP3    H1 2616   2.686   3.818   1.216
  898TIP3    H2 2617   2.660   3.964   1.238
  899TIP3   OH2 2618   2.942   3.526  -0.133
  899TIP3    H1 2619   2.898   3.447  -0.165
  899TIP3    H2 2620   2.921   3.523  -0.038
  900TIP3   OH2 2621   2.911   3.542   0.148
  900TIP3    H1 2622   2.838   3.511   0.203
  900TIP3    H2 2623   2.896   3.639   0.147
  901TIP3   OH2 2624   2.613   3.237   0.333
  901TIP3    H1 2625   2.551   3.254   0.408
  901TIP3    H2 2626   2.604   3.321   0.283
  902TIP3   OH2 2627   3.764   2.871   1.233
  902TIP3    H1 2628   3.839   2.908   1.282
  902TIP3    H2 2629   3.743   2.790   1.285
  903TIP3   OH2 2630   3.645   2.590   0.395
  903TIP3    H1 2631   3.626   2.618   0.303
  903TIP3    H2 2632   3.668   2.676   0.436
  904TIP3   OH2 2633   3.143   3.749   0.100
  904TIP3    H1 2634   3.051   3.774   0.121
  904TIP3    H2 2635   3.153   3.796   0.015
  905TIP3   OH2 2636   3.326   2.805   0.494
  905TIP3    H1 2637   3.390   2.879   0.485
  905TIP3    H2 2638   3.332   2.787   0.590
  906TIP3   OH2 2639   3.595   3.122   1.302
  906TIP3    H1 2640   3.615   3.175   1.382
  906TIP3    H2 2641   3.642   3.039   1.319
  907TIP3   OH2 2642   2.877   3.814   0.149
  907TIP3    H1 2643   2.852   3.880   0.081
  907TIP3    H2 2644   2.859   3.863   0.232
  908TIP3   OH2 2645   3.015   2.533   0.413
  908TIP3    H1 2646   3.011   2.620   0.458
  908TIP3    H2 2647   3.083   2.486   0.464
  909TIP3   OH2 2648   4.232   3.025   1.290
  909TIP3    H1 2649   4.134   3.026   1.298
  909TIP3    H2 2650   4.241   2.974   1.208
  910TIP3   OH2 2651   3.881   3.216   0.675
  910TIP3    H1 2652   3.804   3.158   0.686
  910TIP3    H2 2653   3.951   3.167   0.724
  911TIP3   OH2 2654   2.606   3.451   0.157
  911TIP3    H1 2655   2.613   3.542   0.127
  911TIP3    H2 2656   2.653   3.401   0.087
  912TIP3   OH2 2657   3.847   4.179   0.618
  912TIP3    H1 2658   3.801   4.222   0.542
  912TIP3    H2 2659   3.941   4.197   0.594
  913TIP3   OH2 2660   2.929   2.445   1.152
  913TIP3    H1 2661   2.908   2.414   1.061
  913TIP3    H2 2662   2.919   2.363   1.204
  914TIP3   OH2 2663   2.488   3.698   0.537
  914TIP3    H1 2664   2.434   3.634   0.584
  914TIP3    H2 2665   2.437   3.712   0.454
  915TIP3   OH2 2666   2.626   4.208   1.602
  915TIP3    H1 2667   2.712   4.207   1.648
  915TIP3    H2 2668   2.604   4.114   1.601
  916TIP3   OH2 2669   3.102   4.159   1.650
  916TIP3    H1 2670   3.197   4.142   1.651
  916TIP3    H2 2671   3.074   4.098   1.578
  917TIP3   OH2 2672   3.101   3.740  -0.197
  917TIP3    H1 2673   3.033   3.671  -0.179
  917TIP3    H2 2674   3.157   3.693  -0.260
  918TIP3   OH2 2675   3.745   4.072   1.381
  918TIP3    H1 2676   3.738   4.004   1.451
  918TIP3    H2 2677   3.820   4.127   1.413
  919TIP3   OH2 2678   3.531   3.785  -0.299
  919TIP3    H1 2679   3.551   3.705  -0.246
  919TIP3    H2 2680   3.604   3.788  -0.362
  920TIP3   OH2 2681   2.754   3.611   1.802
  920TIP3    H1 2682   2.768   3.515   1.810
  920TIP3    H2 2683   2.666   3.614   1.757
  921TIP3   OH2 2684   2.753   3.285  -0.008
  921TIP3    H1 2685   2.783   3.233   0.068
  921TIP3    H2 2686   2.750   3.219  -0.079
  922TIP3   OH2 2687   3.361   3.698   1.577
  922TIP3    H1 2688   3.316   3.718   1.492
  922TIP3    H2 2689   3.389   3.605   1.565
  923TIP3   OH2 2690   3.258   3.440  -0.199
  923TIP3    H1 2691   3.244   3.488  -0.115
  923TIP3    H2 2692   3.226   3.353  -0.177
  924TIP3   OH2 2693   3.862   3.706   1.184
  924TIP3    H1 2694   3.915   3.765   1.129
  924TIP3    H2 2695   3.777   3.754   1.183
  925TIP3   OH2 2696   2.875   3.349   1.790
  925TIP3    H1 2697   2.951   3.297   1.762
  925TIP3    H2 2698   2.904   3.380   1.878
  926TIP3   OH2 2699   2.978   3.164   0.234
  926TIP3    H1 2700   2.927   3.138   0.313
  926TIP3    H2 2701   2.981   3.083   0.182
  927TIP3   OH2 2702   3.214   3.231   1.453
  927TIP3    H1 2703   3.131   3.285   1.452
  927TIP3    H2 2704   3.260   3.265   1.373
  928TIP3   OH2 2705   3.035   2.948   0.045
  928TIP3    H1 2706   3.039   2.892  -0.033
  928TIP3    H2 2707   3.130   2.973   0.054
  929TIP3   OH2 2708   3.725   3.629   1.583
  929TIP3    H1 2709   3.805   3.596   1.540
  929TIP3    H2 2710   3.714   3.566   1.656
  930TIP3   OH2 2711   3.859   3.282  -0.298
  930TIP3    H1 2712   3.859   3.234  -0.382
  930TIP3    H2 2713   3.854   3.374  -0.327
  931TIP3   OH2 2714   3.335   3.018   1.569
  931TIP3    H1 2715   3.332   2.940   1.510
  931TIP3    H2 2716   3.289   3.086   1.515
  932TIP3   OH2 2717   3.335   2.804   1.380
  932TIP3    H1 2718   3.362   2.844   1.295
  932TIP3    H2 2719   3.241   2.781   1.362
  933TIP3   OH2 2720   3.358   3.341   1.257
  933TIP3    H1 2721   3.440   3.351   1.206
  933TIP3    H2 2722   3.297   3.401   1.209
  934TIP3   OH2 2723   3.939   3.302   1.631
  934TIP3    H1 2724   3.983   3.219   1.655
  934TIP3    H2 2725   4.014   3.359   1.609
  935TIP3   OH2 2726   4.001   3.575   1.374
  935TIP3    H1 2727   3.942   3.629   1.315
  935TIP3    H2 2728   4.061   3.536   1.309
  936TIP3   OH2 2729   3.213   3.120   1.807
  936TIP3    H1 2730   3.143   3.054   1.823
  936TIP3    H2 2731   3.243   3.096   1.717
  937TIP3   OH2 2732   3.466   2.566   1.453
  937TIP3    H1 2733   3.416   2.646   1.427
  937TIP3    H2 2734   3.399   2.496   1.438
  938TIP3   OH2 2735   3.592   3.066   1.664
  938TIP3    H1 2736   3.576   3.051   1.759
  938TIP3    H2 2737   3.503   3.044   1.630
  939TIP3   OH2 2738   3.828   3.014   1.517
  939TIP3    H1 2739   3.754   3.017   1.581
  939TIP3    H2 2740   3.903   2.986   1.574
  940TIP3   OH2 2741   4.060   2.960   1.665
  940TIP3    H1 2742   4.073   2.864   1.683
  940TIP3    H2 2743   4.054   2.998   1.755
  941TIP3   OH2 2744   3.049   2.901   1.860
  941TIP3    H1 2745   3.055   2.809   1.828
  941TIP3    H2 2746   3.086   2.892   1.951
  942TIP3   OH2 2747   3.558   2.573   1.711
  942TIP3    H1 2748   3.624   2.502   1.703
  942TIP3    H2 2749   3.518   2.571   1.621
  943TIP3   OH2 2750   3.627   2.790   1.867
  943TIP3    H1 2751   3.605   2.718   1.803
  943TIP3    H2 2752   3.549   2.848   1.861
  944TIP3   OH2 2753   2.844   4.003  -0.053
  944TIP3    H1 2754   2.940   4.017  -0.065
  944TIP3    H2 2755   2.811   4.050  -0.133
  945TIP3   OH2 2756   2.315   3.399   0.154
  945TIP3    H1 2757   2.403   3.436   0.172
  945TIP3    H2 2758   2.335   3.305   0.151
  946TIP3   OH2 2759   2.243   4.015   0.592
  946TIP3    H1 2760   2.177   3.951   0.558
  946TIP3    H2 2761   2.288   3.959   0.660
  947TIP3   OH2 2762   2.366   3.877   0.792
  947TIP3    H1 2763   2.360   3.793   0.839
  947TIP3    H2 2764   2.426   3.928   0.849
  948TIP3   OH2 2765   4.108   4.257   0.583
  948TIP3    H1 2766   4.133   4.295   0.669
  948TIP3    H2 2767   4.171   4.300   0.522
  949TIP3   OH2 2768   4.132   4.283   0.866
  949TIP3    H1 2769   4.087   4.197   0.861
  949TIP3    H2 2770   4.208   4.260   0.921
  950TIP3   OH2 2771   4.181   3.954   1.438
  950TIP3    H1 2772   4.108   3.968   1.502
  950TIP3    H2 2773   4.224   4.042   1.440
  951TIP3   OH2 2774   3.998   3.469   0.058
  951TIP3    H1 2775   4.064   3.537   0.033
  951TIP3    H2 2776   4.043   3.429   0.136
  952TIP3   OH2 2777   4.127   3.337   0.261
  952TIP3    H1 2778   4.060   3.297   0.321
  952TIP3    H2 2779   4.191   3.376   0.324
  953TIP3   OH2 2780   4.164   3.726   0.685
  953TIP3    H1 2781   4.233   3.669   0.649
  953TIP3    H2 2782   4.172   3.806   0.630
  954TIP3   OH2 2783   4.016   4.019   0.905
  954TIP3    H1 2784   3.943   4.067   0.948
  954TIP3    H2 2785   3.970   3.976   0.830
  955TIP3   OH2 2786   4.058   3.249  -0.098
  955TIP3    H1 2787   3.985   3.247  -0.163
  955TIP3    H2 2788   4.032   3.326  -0.044
  956TIP3   OH2 2789   3.941   2.926  -0.142
  956TIP3    H1 2790   3.877   2.960  -0.206
  956TIP3    H2 2791   3.917   2.830  -0.141
  957TIP3   OH2 2792   3.937   3.199   0.406
  957TIP3    H1 2793   3.942   3.102   0.397
  957TIP3    H2 2794   3.922   3.210   0.502
  958TIP3   OH2 2795   2.565   3.263   1.162
  958TIP3    H1 2796   2.568   3.239   1.067
  958TIP3    H2 2797   2.662   3.267   1.179
  959TIP3   OH2 2798   4.379   3.456   1.254
  959TIP3    H1 2799   4.317   3.393   1.297
  959TIP3    H2 2800   4.464   3.414   1.280
  960TIP3   OH2 2801   3.877   2.665  -0.133
  960TIP3    H1 2802   3.958   2.622  -0.099
  960TIP3    H2 2803   3.806   2.614  -0.092
  961TIP3   OH2 2804   3.935   2.915   0.299
  961TIP3    H1 2805   3.976   2.827   0.313
  961TIP3    H2 2806   3.992   2.949   0.227
  962TIP3   OH2 2807   4.096   3.083   0.794
  962TIP3    H1 2808   4.181   3.110   0.753
  962TIP3    H2 2809   4.110   3.119   0.883
  963TIP3   OH2 2810   4.169   3.240   1.022
  963TIP3    H1 2811   4.090   3.267   1.071
  963TIP3    H2 2812   4.195   3.322   0.977
  964TIP3   OH2 2813   2.782   2.953   1.822
  964TIP3    H1 2814   2.880   2.949   1.831
  964TIP3    H2 2815   2.758   2.868   1.864
  965TIP3   OH2 2816   4.612   2.824   1.580
  965TIP3    H1 2817   4.677   2.763   1.540
  965TIP3    H2 2818   4.586   2.879   1.503
  966TIP3   OH2 2819   4.047   2.666   0.338
  966TIP3    H1 2820   4.094   2.649   0.422
  966TIP3    H2 2821   3.989   2.587   0.334
  967TIP3   OH2 2822   2.741   2.650   1.165
  967TIP3    H1 2823   2.808   2.578   1.169
  967TIP3    H2 2824   2.799   2.727   1.153
  968TIP3   OH2 2825   2.546   2.920   1.234
  968TIP3    H1 2826   2.594   2.920   1.148
  968TIP3    H2 2827   2.560   3.010   1.264
  969TIP3   OH2 2828   4.487   2.965   1.382
  969TIP3    H1 2829   4.401   3.005   1.405
  969TIP3    H2 2830   4.456   2.890   1.328
  970TIP3   OH2 2831   4.134   2.595  -0.039
  970TIP3    H1 2832   4.201   2.541  -0.082
  970TIP3    H2 2833   4.183   2.680  -0.031
  971TIP3   OH2 2834   3.703   4.113   0.251
  971TIP3    H1 2835   3.750   4.114   0.165
  971TIP3    H2 2836   3.724   4.201   0.287
  972TIP3   OH2 2837   2.747   2.490   1.541
  972TIP3    H1 2838   2.702   2.504   1.626
  972TIP3    H2 2839   2.687   2.540   1.481
  973TIP3   OH2 2840   2.790   3.935   1.622
  973TIP3    H1 2841   2.696   3.913   1.605
  973TIP3    H2 2842   2.798   3.916   1.716
  974TIP3   OH2 2843   2.973   3.971   1.172
  974TIP3    H1 2844   2.921   4.044   1.133
  974TIP3    H2 2845   3.057   3.987   1.125
  975TIP3   OH2 2846   3.409   4.208   1.306
  975TIP3    H1 2847   3.450   4.209   1.395
  975TIP3    H2 2848   3.473   4.262   1.256
  976TIP3   OH2 2849   3.587   4.366   1.172
  976TIP3    H1 2850   3.657   4.318   1.126
  976TIP3    H2 2851   3.640   4.423   1.232
  977TIP3   OH2 2852   4.386   2.724   1.268
  977TIP3    H1 2853   4.296   2.713   1.233
  977TIP3    H2 2854   4.421   2.633   1.259
  978TIP3   OH2 2855   2.645   4.226   1.197
  978TIP3    H1 2856   2.555   4.256   1.172
  978TIP3    H2 2857   2.654   4.272   1.281
  979TIP3   OH2 2858   2.882   4.204   1.056
  979TIP3    H1 2859   2.794   4.216   1.099
  979TIP3    H2 2860   2.863   4.234   0.965
  980TIP3   OH2 2861   3.306   4.226   0.856
  980TIP3    H1 2862   3.241   4.237   0.784
  980TIP3    H2 2863   3.312   4.317   0.891
  981TIP3   OH2 2864   3.575   4.166   0.904
  981TIP3    H1 2865   3.480   4.185   0.889
  981TIP3    H2 2866   3.616   4.240   0.857
  982TIP3   OH2 2867   3.783   4.362   0.815
  982TIP3    H1 2868   3.765   4.447   0.768
  982TIP3    H2 2869   3.806   4.303   0.740
  983TIP3   OH2 2870   2.556   4.019   0.942
  983TIP3    H1 2871   2.585   3.989   1.031
  983TIP3    H2 2872   2.627   3.977   0.888
  984TIP3   OH2 2873   2.750   3.894   0.801
  984TIP3    H1 2874   2.764   3.809   0.850
  984TIP3    H2 2875   2.842   3.928   0.797
  985TIP3   OH2 2876   3.017   3.978   0.807
  985TIP3    H1 2877   3.049   3.886   0.799
  985TIP3    H2 2878   3.067   4.006   0.886
  986TIP3   OH2 2879   3.609   2.643   0.914
  986TIP3    H1 2880   3.558   2.580   0.969
  986TIP3    H2 2881   3.587   2.611   0.826
  987TIP3   OH2 2882   4.116   2.523   0.790
  987TIP3    H1 2883   4.161   2.571   0.718
  987TIP3    H2 2884   4.024   2.545   0.771
  988TIP3   OH2 2885   4.211   2.617   0.554
  988TIP3    H1 2886   4.284   2.565   0.515
  988TIP3    H2 2887   4.245   2.708   0.540
  989TIP3   OH2 2888   2.864   2.352   0.900
  989TIP3    H1 2889   2.775   2.315   0.914
  989TIP3    H2 2890   2.915   2.269   0.890
  990TIP3   OH2 2891   3.871   2.447   0.328
  990TIP3    H1 2892   3.790   2.502   0.335
  990TIP3    H2 2893   3.845   2.370   0.381
  991TIP3   OH2 2894   2.351   3.781   0.313
  991TIP3    H1 2895   2.265   3.745   0.282
  991TIP3    H2 2896   2.330   3.876   0.315
  992TIP3   OH2 2897   3.117   3.987  -0.081
  992TIP3    H1 2898   3.205   4.009  -0.120
  992TIP3    H2 2899   3.095   3.911  -0.138
  993TIP3   OH2 2900   3.837   4.096   0.011
  993TIP3    H1 2901   3.836   3.999  -0.005
  993TIP3    H2 2902   3.784   4.129  -0.064
  994TIP3   OH2 2903   3.048   2.623   1.788
  994TIP3    H1 2904   3.010   2.555   1.848
  994TIP3    H2 2905   3.141   2.624   1.819
  995TIP3   OH2 2906   3.296   2.624   1.912
  995TIP3    H1 2907   3.383   2.602   1.873
  995TIP3    H2 2908   3.285   2.554   1.978
  996TIP3   OH2 2909   2.416   3.828  -0.010
  996TIP3    H1 2910   2.397   3.851   0.082
  996TIP3    H2 2911   2.510   3.809  -0.010
  997TIP3   OH2 2912   4.125   2.690   1.700
  997TIP3    H1 2913   4.142   2.660   1.792
  997TIP3    H2 2914   4.215   2.685   1.661
  998TIP3   OH2 2915   4.054   4.240   1.194
  998TIP3    H1 2916   3.977   4.211   1.141
  998TIP3    H2 2917   4.036   4.336   1.200
  999TIP3   OH2 2918   5.303   3.591   0.002
  999TIP3    H1 2919   5.335   3.682   0.012
  999TIP3    H2 2920   5.277   3.591  -0.092
 1000TIP3   OH2 2921   5.336   3.623   0.340
 1000TIP3    H1 2922   5.359   3.583   0.426
 1000TIP3    H2 2923   5.294   3.549   0.293
 1001TIP3   OH2 2924   4.638   3.528   0.733
 1001TIP3    H1 2925   4.663   3.447   0.781
 1001TIP3    H2 2926   4.712   3.536   0.669
 1002TIP3   OH2 2927   5.527   3.893   0.045
 1002TIP3    H1 2928   5.537   3.831   0.119
 1002TIP3    H2 2929   5.582   3.967   0.076
 1003TIP3   OH2 2930   4.599   3.918   0.430
 1003TIP3    H1 2931   4.591   3.820   0.432
 1003TIP3    H2 2932   4.695   3.928   0.415
 1004TIP3   OH2 2933   4.305   3.117   0.209
 1004TIP3    H1 2934   4.258   3.200   0.230
 1004TIP3    H2 2935   4.233   3.068   0.166
 1005TIP3   OH2 2936   4.360   3.408   0.395
 1005TIP3    H1 2937   4.412   3.330   0.424
 1005TIP3    H2 2938   4.421   3.451   0.333
 1006TIP3   OH2 2939   5.230   4.414   0.066
 1006TIP3    H1 2940   5.247   4.336   0.012
 1006TIP3    H2 2941   5.192   4.376   0.146
 1007TIP3   OH2 2942   5.122   3.839   0.389
 1007TIP3    H1 2943   5.165   3.766   0.343
 1007TIP3    H2 2944   5.204   3.887   0.417
 1008TIP3   OH2 2945   6.141   3.160   0.387
 1008TIP3    H1 2946   6.171   3.242   0.432
 1008TIP3    H2 2947   6.169   3.177   0.296
 1009TIP3   OH2 2948   5.538   3.338   0.417
 1009TIP3    H1 2949   5.581   3.253   0.438
 1009TIP3    H2 2950   5.508   3.322   0.325
 1010TIP3   OH2 2951   4.879   2.999   0.384
 1010TIP3    H1 2952   4.861   3.071   0.321
 1010TIP3    H2 2953   4.831   2.925   0.340
 1011TIP3   OH2 2954   5.565   3.092   0.000
 1011TIP3    H1 2955   5.638   3.070   0.062
 1011TIP3    H2 2956   5.611   3.161  -0.052
 1012TIP3   OH2 2957   4.511   3.200   0.492
 1012TIP3    H1 2958   4.593   3.179   0.539
 1012TIP3    H2 2959   4.524   3.146   0.411
 1013TIP3   OH2 2960   4.944   3.397   0.301
 1013TIP3    H1 2961   5.040   3.378   0.306
 1013TIP3    H2 2962   4.910   3.315   0.261
 1014TIP3   OH2 2963   6.214   3.369   0.555
 1014TIP3    H1 2964   6.128   3.412   0.538
 1014TIP3    H2 2965   6.230   3.396   0.647
 1015TIP3   OH2 2966   4.873   2.983   0.819
 1015TIP3    H1 2967   4.813   3.019   0.751
 1015TIP3    H2 2968   4.820   3.001   0.900
 1016TIP3   OH2 2969   4.977   3.757   0.608
 1016TIP3    H1 2970   4.922   3.830   0.644
 1016TIP3    H2 2971   5.024   3.802   0.534
 1017TIP3   OH2 2972   5.774   3.103   0.184
 1017TIP3    H1 2973   5.758   3.054   0.266
 1017TIP3    H2 2974   5.821   3.182   0.216
 1018TIP3   OH2 2975   4.745   3.097   0.602
 1018TIP3    H1 2976   4.808   3.169   0.626
 1018TIP3    H2 2977   4.795   3.057   0.527
 1019TIP3   OH2 2978   4.811   3.956   0.708
 1019TIP3    H1 2979   4.789   4.044   0.669
 1019TIP3    H2 2980   4.729   3.940   0.760
 1020TIP3   OH2 2981   4.208   3.638  -0.029
 1020TIP3    H1 2982   4.155   3.655  -0.110
 1020TIP3    H2 2983   4.233   3.729  -0.002
 1021TIP3   OH2 2984   5.643   4.106   0.193
 1021TIP3    H1 2985   5.560   4.095   0.244
 1021TIP3    H2 2986   5.627   4.197   0.161
 1022TIP3   OH2 2987   5.934   3.058   0.552
 1022TIP3    H1 2988   5.846   3.084   0.519
 1022TIP3    H2 2989   5.994   3.090   0.482
 1023TIP3   OH2 2990   5.222   2.697   0.533
 1023TIP3    H1 2991   5.209   2.603   0.554
 1023TIP3    H2 2992   5.147   2.737   0.581
 1024TIP3   OH2 2993   5.865   4.069   0.534
 1024TIP3    H1 2994   5.852   3.992   0.474
 1024TIP3    H2 2995   5.847   4.144   0.474
 1025TIP3   OH2 2996   6.054   3.709   0.400
 1025TIP3    H1 2997   5.969   3.759   0.396
 1025TIP3    H2 2998   6.100   3.749   0.322
 1026TIP3   OH2 2999   5.739   3.585   0.680
 1026TIP3    H1 3000   5.736   3.669   0.729
 1026TIP3    H2 3001   5.652   3.588   0.635
 1027TIP3   OH2 3002   4.730   3.536   0.184
 1027TIP3    H1 3003   4.697   3.480   0.111
 1027TIP3    H2 3004   4.809   3.487   0.214
 1028TIP3   OH2 3005   4.860   3.949   0.327
 1028TIP3    H1 3006   4.843   3.926   0.234
 1028TIP3    H2 3007   4.950   3.914   0.341
 1029TIP3   OH2 3008   4.851   3.522   0.537
 1029TIP3    H1 3009   4.891   3.489   0.453
 1029TIP3    H2 3010   4.904   3.603   0.554
 1030TIP3   OH2 3011   5.404   4.147   0.307
 1030TIP3    H1 3012   5.391   4.234   0.351
 1030TIP3    H2 3013   5.379   4.084   0.377
 1031TIP3   OH2 3014   5.018   4.070   0.862
 1031TIP3    H1 3015   4.958   4.133   0.908
 1031TIP3    H2 3016   4.952   4.020   0.810
 1032TIP3   OH2 3017   4.779   3.623   0.973
 1032TIP3    H1 3018   4.775   3.712   1.014
 1032TIP3    H2 3019   4.722   3.634   0.894
 1033TIP3   OH2 3020   4.797   4.214   0.935
 1033TIP3    H1 3021   4.763   4.233   0.846
 1033TIP3    H2 3022   4.716   4.212   0.991
 1034TIP3   OH2 3023   4.608   3.383  -0.026
 1034TIP3    H1 3024   4.537   3.429  -0.075
 1034TIP3    H2 3025   4.563   3.302   0.001
 1035TIP3   OH2 3026   4.240   3.959   0.532
 1035TIP3    H1 3027   4.335   3.960   0.512
 1035TIP3    H2 3028   4.228   4.043   0.578
 1036TIP3   OH2 3029   6.105   4.420   0.589
 1036TIP3    H1 3030   6.103   4.324   0.602
 1036TIP3    H2 3031   6.019   4.446   0.630
 1037TIP3   OH2 3032   5.211   4.189   0.709
 1037TIP3    H1 3033   5.211   4.285   0.734
 1037TIP3    H2 3034   5.142   4.156   0.771
 1038TIP3   OH2 3035   4.399   4.179   0.058
 1038TIP3    H1 3036   4.451   4.171   0.141
 1038TIP3    H2 3037   4.341   4.101   0.066
 1039TIP3   OH2 3038   5.992   3.546   0.855
 1039TIP3    H1 3039   5.908   3.556   0.807
 1039TIP3    H2 3040   6.009   3.450   0.846
 1040TIP3   OH2 3041   4.592   3.946   0.874
 1040TIP3    H1 3042   4.652   3.947   0.951
 1040TIP3    H2 3043   4.508   3.922   0.915
 1041TIP3   OH2 3044   4.987   2.776   0.667
 1041TIP3    H1 3045   4.899   2.747   0.636
 1041TIP3    H2 3046   4.962   2.857   0.715
 1042TIP3   OH2 3047   5.526   2.891   0.859
 1042TIP3    H1 3048   5.597   2.863   0.921
 1042TIP3    H2 3049   5.444   2.871   0.909
 1043TIP3   OH2 3050   5.757   3.322   0.777
 1043TIP3    H1 3051   5.707   3.319   0.861
 1043TIP3    H2 3052   5.735   3.410   0.742
 1044TIP3   OH2 3053   5.088   2.803  -0.375
 1044TIP3    H1 3054   5.071   2.813  -0.280
 1044TIP3    H2 3055   5.147   2.727  -0.377
 1045TIP3   OH2 3056   4.921   3.295   0.678
 1045TIP3    H1 3057   4.881   3.317   0.765
 1045TIP3    H2 3058   4.903   3.377   0.628
 1046TIP3   OH2 3059   4.804   3.180   0.196
 1046TIP3    H1 3060   4.712   3.153   0.215
 1046TIP3    H2 3061   4.816   3.140   0.107
 1047TIP3   OH2 3062   5.283   3.278  -0.078
 1047TIP3    H1 3063   5.224   3.348  -0.109
 1047TIP3    H2 3064   5.348   3.275  -0.150
 1048TIP3   OH2 3065   5.473   3.536   1.005
 1048TIP3    H1 3066   5.450   3.465   1.068
 1048TIP3    H2 3067   5.566   3.553   1.030
 1049TIP3   OH2 3068   5.451   3.298   0.160
 1049TIP3    H1 3069   5.391   3.334   0.092
 1049TIP3    H2 3070   5.481   3.218   0.112
 1050TIP3   OH2 3071   4.740   3.321   0.892
 1050TIP3    H1 3072   4.787   3.378   0.955
 1050TIP3    H2 3073   4.729   3.239   0.943
 1051TIP3   OH2 3074   4.775   2.766  -0.379
 1051TIP3    H1 3075   4.801   2.774  -0.285
 1051TIP3    H2 3076   4.679   2.765  -0.372
 1052TIP3   OH2 3077   4.334   2.841   0.474
 1052TIP3    H1 3078   4.409   2.874   0.527
 1052TIP3    H2 3079   4.374   2.814   0.391
 1053TIP3   OH2 3080   4.291   2.827  -0.013
 1053TIP3    H1 3081   4.350   2.860  -0.084
 1053TIP3    H2 3082   4.236   2.906   0.004
 1054TIP3   OH2 3083   5.466   3.535   0.586
 1054TIP3    H1 3084   5.497   3.464   0.525
 1054TIP3    H2 3085   5.432   3.480   0.660
 1055TIP3   OH2 3086   5.137   3.000   0.255
 1055TIP3    H1 3087   5.058   2.999   0.312
 1055TIP3    H2 3088   5.209   2.993   0.319
 1056TIP3   OH2 3089   4.566   3.059   0.263
 1056TIP3    H1 3090   4.472   3.065   0.235
 1056TIP3    H2 3091   4.590   2.967   0.242
 1057TIP3   OH2 3092   4.832   3.055  -0.047
 1057TIP3    H1 3093   4.928   3.069  -0.060
 1057TIP3    H2 3094   4.794   3.075  -0.135
 1058TIP3   OH2 3095   5.626   3.078   0.461
 1058TIP3    H1 3096   5.594   3.091   0.553
 1058TIP3    H2 3097   5.558   3.018   0.426
 1059TIP3   OH2 3098   4.676   3.080  -0.274
 1059TIP3    H1 3099   4.584   3.058  -0.250
 1059TIP3    H2 3100   4.671   3.082  -0.370
 1060TIP3   OH2 3101   5.798   4.765   0.683
 1060TIP3    H1 3102   5.795   4.783   0.587
 1060TIP3    H2 3103   5.878   4.814   0.709
 1061TIP3   OH2 3104   4.749   3.874   1.097
 1061TIP3    H1 3105   4.831   3.905   1.140
 1061TIP3    H2 3106   4.686   3.880   1.171
 1062TIP3   OH2 3107   5.211   3.328   0.355
 1062TIP3    H1 3108   5.288   3.297   0.305
 1062TIP3    H2 3109   5.222   3.282   0.440
 1063TIP3   OH2 3110   4.731   2.817   0.238
 1063TIP3    H1 3111   4.696   2.740   0.288
 1063TIP3    H2 3112   4.773   2.772   0.163
 1064TIP3   OH2 3113   5.191   3.229   0.645
 1064TIP3    H1 3114   5.102   3.266   0.658
 1064TIP3    H2 3115   5.249   3.291   0.694
 1065TIP3   OH2 3116   4.921   3.604  -0.236
 1065TIP3    H1 3117   4.853   3.537  -0.221
 1065TIP3    H2 3118   4.934   3.638  -0.144
 1066TIP3   OH2 3119   5.821   3.851   0.368
 1066TIP3    H1 3120   5.850   3.899   0.287
 1066TIP3    H2 3121   5.736   3.812   0.340
 1067TIP3   OH2 3122   5.323   3.932   0.739
 1067TIP3    H1 3123   5.361   3.927   0.828
 1067TIP3    H2 3124   5.286   4.022   0.737
 1068TIP3   OH2 3125   4.618   3.634   0.414
 1068TIP3    H1 3126   4.646   3.612   0.323
 1068TIP3    H2 3127   4.688   3.589   0.465
 1069TIP3   OH2 3128   5.233   3.665   1.044
 1069TIP3    H1 3129   5.178   3.608   0.988
 1069TIP3    H2 3130   5.323   3.634   1.019
 1070TIP3   OH2 3131   5.486   4.185   0.629
 1070TIP3    H1 3132   5.390   4.193   0.644
 1070TIP3    H2 3133   5.521   4.240   0.702
 1071TIP3   OH2 3134   6.113   4.130   0.627
 1071TIP3    H1 3135   6.015   4.125   0.620
 1071TIP3    H2 3136   6.137   4.097   0.538
 1072TIP3   OH2 3137   5.589   3.722   0.270
 1072TIP3    H1 3138   5.498   3.695   0.297
 1072TIP3    H2 3139   5.623   3.638   0.235
 1073TIP3   OH2 3140   4.728   3.938   0.060
 1073TIP3    H1 3141   4.723   4.017   0.004
 1073TIP3    H2 3142   4.637   3.908   0.056
 1074TIP3   OH2 3143   4.293   3.248  -0.248
 1074TIP3    H1 3144   4.331   3.336  -0.229
 1074TIP3    H2 3145   4.210   3.252  -0.196
 1075TIP3   OH2 3146   4.871   3.705   0.013
 1075TIP3    H1 3147   4.833   3.795   0.018
 1075TIP3    H2 3148   4.820   3.659   0.082
 1076TIP3   OH2 3149   4.992   4.284   0.508
 1076TIP3    H1 3150   5.033   4.360   0.462
 1076TIP3    H2 3151   5.068   4.253   0.562
 1077TIP3   OH2 3152   4.637   4.159  -0.080
 1077TIP3    H1 3153   4.548   4.173  -0.042
 1077TIP3    H2 3154   4.671   4.251  -0.078
 1078TIP3   OH2 3155   5.372   3.921   0.471
 1078TIP3    H1 3156   5.361   3.922   0.569
 1078TIP3    H2 3157   5.452   3.868   0.463
 1079TIP3   OH2 3158   5.627   4.452   0.511
 1079TIP3    H1 3159   5.543   4.402   0.504
 1079TIP3    H2 3160   5.612   4.521   0.443
 1080TIP3   OH2 3161   4.711   3.066   1.032
 1080TIP3    H1 3162   4.614   3.066   1.045
 1080TIP3    H2 3163   4.740   3.013   1.108
 1081TIP3   OH2 3164   4.433   4.154   0.664
 1081TIP3    H1 3165   4.495   4.082   0.681
 1081TIP3    H2 3166   4.471   4.226   0.715
 1082TIP3   OH2 3167   4.399   3.494  -0.169
 1082TIP3    H1 3168   4.334   3.543  -0.113
 1082TIP3    H2 3169   4.428   3.563  -0.231
 1083TIP3   OH2 3170   5.552   3.128   0.720
 1083TIP3    H1 3171   5.633   3.168   0.758
 1083TIP3    H2 3172   5.541   3.047   0.775
 1084TIP3   OH2 3173   5.425   2.875  -0.122
 1084TIP3    H1 3174   5.415   2.891  -0.218
 1084TIP3    H2 3175   5.469   2.957  -0.092
 1085TIP3   OH2 3176   5.113   3.065  -0.014
 1085TIP3    H1 3177   5.175   3.139  -0.033
 1085TIP3    H2 3178   5.124   3.054   0.083
 1086TIP3   OH2 3179   5.387   3.374   0.792
 1086TIP3    H1 3180   5.415   3.427   0.869
 1086TIP3    H2 3181   5.441   3.293   0.801
 1087TIP3   OH2 3182   5.261   2.781   0.084
 1087TIP3    H1 3183   5.259   2.856   0.146
 1087TIP3    H2 3184   5.321   2.817   0.015
 1088TIP3   OH2 3185   4.781   2.785  -0.096
 1088TIP3    H1 3186   4.779   2.878  -0.067
 1088TIP3    H2 3187   4.878   2.769  -0.091
 1089TIP3   OH2 3188   6.024   3.279   0.774
 1089TIP3    H1 3189   5.926   3.280   0.782
 1089TIP3    H2 3190   6.034   3.227   0.693
 1090TIP3   OH2 3191   5.680   3.482   0.155
 1090TIP3    H1 3192   5.605   3.420   0.165
 1090TIP3    H2 3193   5.752   3.433   0.202
 1091TIP3   OH2 3194   4.370   2.989  -0.240
 1091TIP3    H1 3195   4.343   3.084  -0.242
 1091TIP3    H2 3196   4.301   2.950  -0.295
 1092TIP3   OH2 3197   5.586   4.366   0.140
 1092TIP3    H1 3198   5.541   4.394   0.059
 1092TIP3    H2 3199   5.668   4.418   0.132
 1093TIP3   OH2 3200   4.721   2.698   0.635
 1093TIP3    H1 3201   4.693   2.663   0.548
 1093TIP3    H2 3202   4.712   2.619   0.693
 1094TIP3   OH2 3203   4.254   3.905   0.022
 1094TIP3    H1 3204   4.189   3.939   0.085
 1094TIP3    H2 3205   4.225   3.949  -0.061
 1095TIP3   OH2 3206   4.427   4.470   1.084
 1095TIP3    H1 3207   4.509   4.475   1.138
 1095TIP3    H2 3208   4.410   4.375   1.086
 1096TIP3   OH2 3209   5.560   4.322   0.850
 1096TIP3    H1 3210   5.532   4.267   0.926
 1096TIP3    H2 3211   5.607   4.394   0.895
 1097TIP3   OH2 3212   4.530   3.849   1.294
 1097TIP3    H1 3213   4.574   3.761   1.288
 1097TIP3    H2 3214   4.462   3.828   1.361
 1098TIP3   OH2 3215   5.146   3.932   1.070
 1098TIP3    H1 3216   5.122   3.973   0.984
 1098TIP3    H2 3217   5.182   3.845   1.045
 1099TIP3   OH2 3218   5.649   3.962   0.673
 1099TIP3    H1 3219   5.725   4.006   0.630
 1099TIP3    H2 3220   5.579   4.029   0.658
 1100TIP3   OH2 3221   4.657   3.608   1.274
 1100TIP3    H1 3222   4.732   3.567   1.229
 1100TIP3    H2 3223   4.697   3.632   1.361
 1101TIP3   OH2 3224   4.717   3.412  -0.288
 1101TIP3    H1 3225   4.691   3.377  -0.201
 1101TIP3    H2 3226   4.795   3.359  -0.310
 1102TIP3   OH2 3227   4.999   3.467   0.924
 1102TIP3    H1 3228   4.931   3.536   0.941
 1102TIP3    H2 3229   5.054   3.510   0.853
 1103TIP3   OH2 3230   5.516   3.883   1.064
 1103TIP3    H1 3231   5.594   3.852   1.016
 1103TIP3    H2 3232   5.510   3.819   1.137
 1104TIP3   OH2 3233   5.129   3.272   1.060
 1104TIP3    H1 3234   5.132   3.193   1.002
 1104TIP3    H2 3235   5.085   3.337   1.001
 1105TIP3   OH2 3236   5.131   3.060   0.869
 1105TIP3    H1 3237   5.161   3.101   0.785
 1105TIP3    H2 3238   5.038   3.037   0.848
 1106TIP3   OH2 3239   5.152   3.593   0.743
 1106TIP3    H1 3240   5.240   3.610   0.707
 1106TIP3    H2 3241   5.098   3.660   0.696
 1107TIP3   OH2 3242   5.738   3.558   1.118
 1107TIP3    H1 3243   5.783   3.474   1.135
 1107TIP3    H2 3244   5.807   3.611   1.077
 1108TIP3   OH2 3245   5.778   3.816   0.860
 1108TIP3    H1 3246   5.720   3.871   0.801
 1108TIP3    H2 3247   5.866   3.838   0.822
 1109TIP3   OH2 3248   5.006   3.377   1.292
 1109TIP3    H1 3249   4.936   3.310   1.308
 1109TIP3    H2 3250   5.040   3.350   1.205
 1110TIP3   OH2 3251   5.262   2.821   0.939
 1110TIP3    H1 3252   5.213   2.903   0.915
 1110TIP3    H2 3253   5.194   2.752   0.927
 1111TIP3   OH2 3254   5.389   3.322   1.152
 1111TIP3    H1 3255   5.376   3.308   1.248
 1111TIP3    H2 3256   5.299   3.299   1.121
 1112TIP3   OH2 3257   5.626   3.274   1.007
 1112TIP3    H1 3258   5.552   3.275   1.070
 1112TIP3    H2 3259   5.701   3.244   1.062
 1113TIP3   OH2 3260   5.856   3.218   1.155
 1113TIP3    H1 3261   5.870   3.122   1.170
 1113TIP3    H2 3262   5.852   3.253   1.246
 1114TIP3   OH2 3263   4.836   3.161   1.348
 1114TIP3    H1 3264   4.844   3.069   1.316
 1114TIP3    H2 3265   4.877   3.152   1.436
 1115TIP3   OH2 3266   5.352   2.831   1.198
 1115TIP3    H1 3267   5.421   2.761   1.192
 1115TIP3    H2 3268   5.315   2.826   1.108
 1116TIP3   OH2 3269   5.423   3.046   1.354
 1116TIP3    H1 3270   5.401   2.975   1.290
 1116TIP3    H2 3271   5.343   3.104   1.347
 1117TIP3   OH2 3272   4.099   3.628  -0.280
 1117TIP3    H1 3273   4.179   3.664  -0.324
 1117TIP3    H2 3274   4.071   3.564  -0.346
 1118TIP3   OH2 3275   4.038   4.272   0.076
 1118TIP3    H1 3276   3.969   4.210   0.043
 1118TIP3    H2 3277   4.084   4.214   0.140
 1119TIP3   OH2 3278   4.175   4.116   0.262
 1119TIP3    H1 3279   4.152   4.050   0.329
 1119TIP3    H2 3280   4.229   4.178   0.315
 1120TIP3   OH2 3281   5.935   4.536   0.357
 1120TIP3    H1 3282   5.892   4.449   0.352
 1120TIP3    H2 3283   6.022   4.510   0.393
 1121TIP3   OH2 3284   5.981   4.217   0.931
 1121TIP3    H1 3285   5.904   4.228   0.989
 1121TIP3    H2 3286   6.021   4.307   0.932
 1122TIP3   OH2 3287   5.959   3.981   0.170
 1122TIP3    H1 3288   6.046   3.972   0.128
 1122TIP3    H2 3289   5.915   4.048   0.116
 1123TIP3   OH2 3290   5.796   4.283   0.371
 1123TIP3    H1 3291   5.731   4.334   0.424
 1123TIP3    H2 3292   5.737   4.229   0.315
 1124TIP3   OH2 3293   5.696   3.318  -0.081
 1124TIP3    H1 3294   5.792   3.316  -0.078
 1124TIP3    H2 3295   5.676   3.400  -0.034
 1125TIP3   OH2 3296   4.366   3.519   0.652
 1125TIP3    H1 3297   4.358   3.490   0.558
 1125TIP3    H2 3298   4.462   3.536   0.659
 1126TIP3   OH2 3299   6.027   3.881   0.759
 1126TIP3    H1 3300   6.096   3.813   0.742
 1126TIP3    H2 3301   6.048   3.949   0.693
 1127TIP3   OH2 3302   6.207   3.678   0.756
 1127TIP3    H1 3303   6.132   3.630   0.796
 1127TIP3    H2 3304   6.280   3.616   0.775
 1128TIP3   OH2 3305   5.889   3.343   0.281
 1128TIP3    H1 3306   5.978   3.364   0.243
 1128TIP3    H2 3307   5.902   3.378   0.371
 1129TIP3   OH2 3308   5.959   3.482   0.514
 1129TIP3    H1 3309   5.883   3.517   0.565
 1129TIP3    H2 3310   5.994   3.565   0.474
 1130TIP3   OH2 3311   4.567   3.228   1.313
 1130TIP3    H1 3312   4.665   3.223   1.316
 1130TIP3    H2 3313   4.545   3.142   1.353
 1131TIP3   OH2 3314   6.411   3.082   1.067
 1131TIP3    H1 3315   6.474   3.017   1.028
 1131TIP3    H2 3316   6.383   3.133   0.989
 1132TIP3   OH2 3317   5.800   2.944  -0.161
 1132TIP3    H1 3318   5.864   2.932  -0.089
 1132TIP3    H2 3319   5.765   2.854  -0.170
 1133TIP3   OH2 3320   4.539   2.908   0.649
 1133TIP3    H1 3321   4.599   2.831   0.655
 1133TIP3    H2 3322   4.603   2.980   0.638
 1134TIP3   OH2 3323   4.339   3.185   0.715
 1134TIP3    H1 3324   4.386   3.170   0.631
 1134TIP3    H2 3325   4.374   3.271   0.740
 1135TIP3   OH2 3326   6.281   3.217   0.868
 1135TIP3    H1 3327   6.195   3.259   0.888
 1135TIP3    H2 3328   6.250   3.141   0.814
 1136TIP3   OH2 3329   4.327   2.685   0.217
 1136TIP3    H1 3330   4.235   2.678   0.248
 1136TIP3    H2 3331   4.319   2.743   0.139
 1137TIP3   OH2 3332   4.546   2.760   1.032
 1137TIP3    H1 3333   4.495   2.759   1.115
 1137TIP3    H2 3334   4.480   2.799   0.971
 1138TIP3   OH2 3335   4.575   4.189   1.109
 1138TIP3    H1 3336   4.480   4.169   1.108
 1138TIP3    H2 3337   4.598   4.175   1.202
 1139TIP3   OH2 3338   4.761   4.224   0.649
 1139TIP3    H1 3339   4.720   4.305   0.611
 1139TIP3    H2 3340   4.850   4.236   0.611
 1140TIP3   OH2 3341   5.208   4.449   0.771
 1140TIP3    H1 3342   5.206   4.455   0.869
 1140TIP3    H2 3343   5.274   4.517   0.749
 1141TIP3   OH2 3344   5.390   4.633   0.657
 1141TIP3    H1 3345   5.455   4.575   0.615
 1141TIP3    H2 3346   5.447   4.685   0.717
 1142TIP3   OH2 3347   6.183   2.977   0.754
 1142TIP3    H1 3348   6.093   2.963   0.721
 1142TIP3    H2 3349   6.220   2.886   0.747
 1143TIP3   OH2 3350   4.438   4.482   0.686
 1143TIP3    H1 3351   4.352   4.518   0.655
 1143TIP3    H2 3352   4.428   4.498   0.780
 1144TIP3   OH2 3353   4.676   4.462   0.546
 1144TIP3    H1 3354   4.588   4.477   0.586
 1144TIP3    H2 3355   4.661   4.494   0.455
 1145TIP3   OH2 3356   5.103   4.484   0.343
 1145TIP3    H1 3357   5.040   4.503   0.271
 1145TIP3    H2 3358   5.115   4.573   0.382
 1146TIP3   OH2 3359   5.371   4.419   0.394
 1146TIP3    H1 3360   5.276   4.438   0.380
 1146TIP3    H2 3361   5.412   4.491   0.343
 1147TIP3   OH2 3362   5.569   4.626   0.306
 1147TIP3    H1 3363   5.557   4.718   0.276
 1147TIP3    H2 3364   5.589   4.582   0.223
 1148TIP3   OH2 3365   4.349   4.270   0.425
 1148TIP3    H1 3366   4.377   4.244   0.515
 1148TIP3    H2 3367   4.423   4.231   0.373
 1149TIP3   OH2 3368   4.547   4.148   0.286
 1149TIP3    H1 3369   4.565   4.063   0.333
 1149TIP3    H2 3370   4.638   4.185   0.281
 1150TIP3   OH2 3371   4.814   4.240   0.294
 1150TIP3    H1 3372   4.845   4.149   0.276
 1150TIP3    H2 3373   4.866   4.260   0.375
 1151TIP3   OH2 3374   5.384   2.894   0.371
 1151TIP3    H1 3375   5.346   2.821   0.423
 1151TIP3    H2 3376   5.462   2.851   0.329
 1152TIP3   OH2 3377   5.908   2.784   0.275
 1152TIP3    H1 3378   5.942   2.839   0.201
 1152TIP3    H2 3379   5.813   2.803   0.271
 1153TIP3   OH2 3380   6.002   2.896   0.038
 1153TIP3    H1 3381   6.070   2.833   0.005
 1153TIP3    H2 3382   6.042   2.980   0.009
 1154TIP3   OH2 3383   4.635   2.603   0.388
 1154TIP3    H1 3384   4.542   2.570   0.392
 1154TIP3    H2 3385   4.683   2.517   0.385
 1155TIP3   OH2 3386   4.408   2.472   0.040
 1155TIP3    H1 3387   4.457   2.524  -0.028
 1155TIP3    H2 3388   4.391   2.541   0.107
 1156TIP3   OH2 3389   5.082   2.637   0.273
 1156TIP3    H1 3390   5.138   2.682   0.207
 1156TIP3    H2 3391   5.116   2.674   0.356
 1157TIP3   OH2 3392   5.621   2.784   0.255
 1157TIP3    H1 3393   5.631   2.742   0.168
 1157TIP3    H2 3394   5.612   2.705   0.313
 1158TIP3   OH2 3395   5.653   2.697  -0.183
 1158TIP3    H1 3396   5.568   2.736  -0.157
 1158TIP3    H2 3397   5.651   2.613  -0.133
 1159TIP3   OH2 3398   4.138   4.044  -0.172
 1159TIP3    H1 3399   4.048   4.027  -0.206
 1159TIP3    H2 3400   4.145   4.140  -0.183
 1160TIP3   OH2 3401   4.547   2.624  -0.144
 1160TIP3    H1 3402   4.575   2.567  -0.216
 1160TIP3    H2 3403   4.628   2.676  -0.125
 1161TIP3   OH2 3404   5.054   2.812  -0.098
 1161TIP3    H1 3405   5.117   2.768  -0.038
 1161TIP3    H2 3406   5.075   2.905  -0.076
 1162TIP3   OH2 3407   4.844   2.882   1.276
 1162TIP3    H1 3408   4.808   2.813   1.336
 1162TIP3    H2 3409   4.938   2.883   1.306
 1163TIP3   OH2 3410   5.093   2.881   1.398
 1163TIP3    H1 3411   5.180   2.859   1.358
 1163TIP3    H2 3412   5.084   2.810   1.464
 1164TIP3   OH2 3413   5.921   2.948   1.186
 1164TIP3    H1 3414   5.938   2.916   1.277
 1164TIP3    H2 3415   6.010   2.942   1.146
 1165TIP3   OH2 3416   5.850   4.493   0.686
 1165TIP3    H1 3417   5.774   4.464   0.631
 1165TIP3    H2 3418   5.835   4.590   0.686
 1166TIP3   OH2 3419   6.459   3.767   0.226
 1166TIP3    H1 3420   6.468   3.687   0.283
 1166TIP3    H2 3421   6.491   3.835   0.290
 1167TIP3   OH2 3422   6.664   3.235   0.310
 1167TIP3    H1 3423   6.609   3.274   0.240
 1167TIP3    H2 3424   6.613   3.257   0.390
 1168TIP3   OH2 3425   6.550   3.336   0.079
 1168TIP3    H1 3426   6.610   3.407   0.111
 1168TIP3    H2 3427   6.580   3.327  -0.012
 1169TIP3   OH2 3428   6.585   4.150   0.229
 1169TIP3    H1 3429   6.575   4.216   0.158
 1169TIP3    H2 3430   6.505   4.169   0.282
 1170TIP3   OH2 3431   6.992   2.933   0.029
 1170TIP3    H1 3432   6.971   2.845   0.067
 1170TIP3    H2 3433   6.921   2.987   0.069
 1171TIP3   OH2 3434   6.763   4.294   0.388
 1171TIP3    H1 3435   6.703   4.368   0.413
 1171TIP3    H2 3436   6.700   4.232   0.346
 1172TIP3   OH2 3437   6.561   3.891   0.448
 1172TIP3    H1 3438   6.571   3.982   0.484
 1172TIP3    H2 3439   6.474   3.867   0.487
 1173TIP3   OH2 3440   6.580   4.505   0.421
 1173TIP3    H1 3441   6.529   4.529   0.340
 1173TIP3    H2 3442   6.507   4.484   0.483
 1174TIP3   OH2 3443   6.179   4.022   0.391
 1174TIP3    H1 3444   6.135   3.991   0.310
 1174TIP3    H2 3445   6.226   3.940   0.418
 1175TIP3   OH2 3446   6.371   4.216   0.384
 1175TIP3    H1 3447   6.420   4.199   0.467
 1175TIP3    H2 3448   6.295   4.155   0.391
 1176TIP3   OH2 3449   6.764   3.030   0.159
 1176TIP3    H1 3450   6.678   3.002   0.122
 1176TIP3    H2 3451   6.736   3.107   0.213
 1177TIP3   OH2 3452   7.319   3.142   0.357
 1177TIP3    H1 3453   7.395   3.119   0.415
 1177TIP3    H2 3454   7.242   3.121   0.413
 1178TIP3   OH2 3455   7.583   3.653   0.302
 1178TIP3    H1 3456   7.530   3.617   0.376
 1178TIP3    H2 3457   7.514   3.675   0.238
 1179TIP3   OH2 3458   6.720   3.526   0.187
 1179TIP3    H1 3459   6.671   3.557   0.265
 1179TIP3    H2 3460   6.706   3.598   0.122
 1180TIP3   OH2 3461   7.254   3.800   0.516
 1180TIP3    H1 3462   7.241   3.718   0.569
 1180TIP3    H2 3463   7.351   3.808   0.518
 1181TIP3   OH2 3464   6.545   3.570   0.398
 1181TIP3    H1 3465   6.579   3.622   0.472
 1181TIP3    H2 3466   6.530   3.483   0.440
 1182TIP3   OH2 3467   6.152   3.110  -0.075
 1182TIP3    H1 3468   6.193   3.140   0.008
 1182TIP3    H2 3469   6.232   3.078  -0.121
 1183TIP3   OH2 3470   6.549   4.132   0.589
 1183TIP3    H1 3471   6.631   4.161   0.633
 1183TIP3    H2 3472   6.488   4.131   0.666
 1184TIP3   OH2 3473   6.988   3.494   0.136
 1184TIP3    H1 3474   6.897   3.503   0.170
 1184TIP3    H2 3475   7.044   3.530   0.208
 1185TIP3   OH2 3476   6.303   3.809   0.519
 1185TIP3    H1 3477   6.319   3.796   0.614
 1185TIP3    H2 3478   6.230   3.746   0.504
 1186TIP3   OH2 3479   7.015   3.929   0.538
 1186TIP3    H1 3480   6.960   3.856   0.507
 1186TIP3    H2 3481   7.105   3.896   0.516
 1187TIP3   OH2 3482   6.505   3.322   0.521
 1187TIP3    H1 3483   6.408   3.322   0.534
 1187TIP3    H2 3484   6.536   3.267   0.595
 1188TIP3   OH2 3485   6.202   4.421   0.199
 1188TIP3    H1 3486   6.250   4.339   0.220
 1188TIP3    H2 3487   6.276   4.482   0.185
 1189TIP3   OH2 3488   7.308   3.402   0.262
 1189TIP3    H1 3489   7.397   3.395   0.219
 1189TIP3    H2 3490   7.298   3.309   0.292
 1190TIP3   OH2 3491   7.141   3.614   0.322
 1190TIP3    H1 3492   7.195   3.683   0.366
 1190TIP3    H2 3493   7.210   3.545   0.304
 1191TIP3   OH2 3494   6.504   2.938   0.101
 1191TIP3    H1 3495   6.511   2.862   0.039
 1191TIP3    H2 3496   6.498   2.887   0.184
 1192TIP3   OH2 3497   6.214   4.718   0.591
 1192TIP3    H1 3498   6.304   4.711   0.628
 1192TIP3    H2 3499   6.193   4.625   0.573
 1193TIP3   OH2 3500   6.696   4.682   0.604
 1193TIP3    H1 3501   6.788   4.654   0.615
 1193TIP3    H2 3502   6.665   4.618   0.537
 1194TIP3   OH2 3503   6.345   4.122   0.779
 1194TIP3    H1 3504   6.359   4.026   0.785
 1194TIP3    H2 3505   6.258   4.127   0.735
 1195TIP3   OH2 3506   6.959   4.212   0.564
 1195TIP3    H1 3507   6.903   4.228   0.485
 1195TIP3    H2 3508   6.994   4.122   0.548
 1196TIP3   OH2 3509   6.471   3.855   0.757
 1196TIP3    H1 3510   6.551   3.806   0.735
 1196TIP3    H2 3511   6.496   3.892   0.845
 1197TIP3   OH2 3512   6.809   3.752   0.413
 1197TIP3    H1 3513   6.730   3.809   0.424
 1197TIP3    H2 3514   6.844   3.779   0.327
 1198TIP3   OH2 3515   7.294   4.137   0.592
 1198TIP3    H1 3516   7.375   4.132   0.540
 1198TIP3    H2 3517   7.306   4.064   0.656
 1199TIP3   OH2 3518   6.916   3.529   0.549
 1199TIP3    H1 3519   6.928   3.450   0.491
 1199TIP3    H2 3520   6.892   3.598   0.484
 1200TIP3   OH2 3521   6.925   3.317   0.357
 1200TIP3    H1 3522   6.965   3.341   0.271
 1200TIP3    H2 3523   6.833   3.295   0.332
 1201TIP3   OH2 3524   7.550   3.826   0.607
 1201TIP3    H1 3525   7.560   3.730   0.594
 1201TIP3    H2 3526   7.642   3.855   0.612
 1202TIP3   OH2 3527   6.796   3.637   0.777
 1202TIP3    H1 3528   6.733   3.565   0.796
 1202TIP3    H2 3529   6.834   3.606   0.692
 1203TIP3   OH2 3530   7.053   3.085   0.441
 1203TIP3    H1 3531   7.006   3.165   0.412
 1203TIP3    H2 3532   6.991   3.014   0.416
 1204TIP3   OH2 3533   7.183   3.568   0.643
 1204TIP3    H1 3534   7.163   3.555   0.737
 1204TIP3    H2 3535   7.095   3.548   0.605
 1205TIP3   OH2 3536   7.435   3.563   0.512
 1205TIP3    H1 3537   7.351   3.535   0.555
 1205TIP3    H2 3538   7.501   3.507   0.558
 1206TIP3   OH2 3539   7.663   3.481   0.643
 1206TIP3    H1 3540   7.669   3.385   0.658
 1206TIP3    H2 3541   7.658   3.516   0.735
 1207TIP3   OH2 3542   6.641   3.415   0.837
 1207TIP3    H1 3543   6.647   3.323   0.803
 1207TIP3    H2 3544   6.682   3.404   0.925
 1208TIP3   OH2 3545   7.150   3.086   0.693
 1208TIP3    H1 3546   7.218   3.015   0.683
 1208TIP3    H2 3547   7.110   3.085   0.604
 1209TIP3   OH2 3548   7.219   3.304   0.843
 1209TIP3    H1 3549   7.200   3.230   0.781
 1209TIP3    H2 3550   7.139   3.360   0.833
 1210TIP3   OH2 3551   6.192   3.814   0.194
 1210TIP3    H1 3552   6.165   3.766   0.113
 1210TIP3    H2 3553   6.290   3.811   0.189
 1211TIP3   OH2 3554   6.376   3.470   0.802
 1211TIP3    H1 3555   6.474   3.463   0.809
 1211TIP3    H2 3556   6.351   3.382   0.839
 1212TIP3   OH2 3557   6.326   3.170   0.138
 1212TIP3    H1 3558   6.377   3.087   0.142
 1212TIP3    H2 3559   6.398   3.234   0.121
 1213TIP3   OH2 3560   6.137   3.426   0.201
 1213TIP3    H1 3561   6.191   3.412   0.122
 1213TIP3    H2 3562   6.159   3.516   0.226
 1214TIP3   OH2 3563   8.074   3.505   0.419
 1214TIP3    H1 3564   7.995   3.519   0.363
 1214TIP3    H2 3565   8.139   3.479   0.353
 1215TIP3   OH2 3566   6.342   3.021   0.520
 1215TIP3    H1 3567   6.292   3.014   0.603
 1215TIP3    H2 3568   6.274   3.057   0.461
 1216TIP3   OH2 3569   6.382   4.457   0.605
 1216TIP3    H1 3570   6.292   4.430   0.578
 1216TIP3    H2 3571   6.384   4.431   0.697
 1217TIP3   OH2 3572   6.639   3.141   0.767
 1217TIP3    H1 3573   6.605   3.070   0.824
 1217TIP3    H2 3574   6.734   3.140   0.794
 1218TIP3   OH2 3575   6.890   3.139   0.884
 1218TIP3    H1 3576   6.976   3.116   0.845
 1218TIP3    H2 3577   6.881   3.069   0.952
 1219TIP3   OH2 3578   7.689   3.208   0.682
 1219TIP3    H1 3579   7.718   3.187   0.773
 1219TIP3    H2 3580   7.776   3.217   0.636
 1220TIP3   OH2 3581   0.387   4.201   1.569
 1220TIP3    H1 3582   0.423   4.288   1.593
 1220TIP3    H2 3583   0.377   4.209   1.472
 1221TIP3   OH2 3584  -0.144   4.367   1.682
 1221TIP3    H1 3585  -0.164   4.298   1.748
 1221TIP3    H2 3586  -0.195   4.336   1.605
 1222TIP3   OH2 3587   0.471   4.418   1.731
 1222TIP3    H1 3588   0.383   4.457   1.713
 1222TIP3    H2 3589   0.476   4.431   1.827
 1223TIP3   OH2 3590   0.189   4.112   1.737
 1223TIP3    H1 3591   0.108   4.152   1.704
 1223TIP3    H2 3592   0.254   4.136   1.668
 1224TIP3   OH2 3593   0.113   5.137   1.715
 1224TIP3    H1 3594   0.122   5.045   1.680
 1224TIP3    H2 3595   0.083   5.183   1.636
 1225TIP3   OH2 3596   0.328   4.741   1.556
 1225TIP3    H1 3597   0.251   4.801   1.568
 1225TIP3    H2 3598   0.354   4.765   1.465
 1226TIP3   OH2 3599  -0.006   4.635   1.857
 1226TIP3    H1 3600  -0.014   4.714   1.913
 1226TIP3    H2 3601  -0.094   4.635   1.813
 1227TIP3   OH2 3602   0.357   5.453   1.755
 1227TIP3    H1 3603   0.357   5.359   1.782
 1227TIP3    H2 3604   0.271   5.482   1.794
 1228TIP3   OH2 3605   0.238   4.590   2.032
 1228TIP3    H1 3606   0.156   4.596   1.980
 1228TIP3    H2 3607   0.259   4.495   2.023
 1229TIP3   OH2 3608  -0.220   3.985   2.059
 1229TIP3    H1 3609  -0.138   3.956   2.105
 1229TIP3    H2 3610  -0.267   3.900   2.054
 1230TIP3   OH2 3611   0.013   4.365   1.953
 1230TIP3    H1 3612  -0.039   4.363   2.038
 1230TIP3    H2 3613  -0.017   4.449   1.913
 1231TIP3   OH2 3614  -0.258   4.594   2.197
 1231TIP3    H1 3615  -0.289   4.521   2.255
 1231TIP3    H2 3616  -0.163   4.592   2.218
 1232TIP3   OH2 3617  -0.272   4.594   1.760
 1232TIP3    H1 3618  -0.227   4.519   1.715
 1232TIP3    H2 3619  -0.312   4.545   1.836
 1233TIP3   OH2 3620   0.115   4.910   1.571
 1233TIP3    H1 3621   0.109   4.951   1.482
 1233TIP3    H2 3622   0.025   4.874   1.578
 1234TIP3   OH2 3623  -0.430   4.935   1.949
 1234TIP3    H1 3624  -0.401   4.913   2.039
 1234TIP3    H2 3625  -0.369   5.005   1.922
 1235TIP3   OH2 3626  -0.460   4.769   2.159
 1235TIP3    H1 3627  -0.488   4.750   2.067
 1235TIP3    H2 3628  -0.377   4.716   2.166
 1236TIP3   OH2 3629   0.366   5.173   1.805
 1236TIP3    H1 3630   0.267   5.171   1.796
 1236TIP3    H2 3631   0.392   5.143   1.715
 1237TIP3   OH2 3632  -0.199   4.195   1.892
 1237TIP3    H1 3633  -0.111   4.226   1.920
 1237TIP3    H2 3634  -0.214   4.125   1.959
 1238TIP3   OH2 3635  -0.362   4.450   1.970
 1238TIP3    H1 3636  -0.328   4.478   2.057
 1238TIP3    H2 3637  -0.335   4.356   1.969
 1239TIP3   OH2 3638   0.278   4.325   1.948
 1239TIP3    H1 3639   0.180   4.326   1.958
 1239TIP3    H2 3640   0.284   4.265   1.872
 1240TIP3   OH2 3641  -0.091   4.532   1.354
 1240TIP3    H1 3642  -0.131   4.453   1.314
 1240TIP3    H2 3643  -0.013   4.493   1.398
 1241TIP3   OH2 3644  -0.228   5.400   2.062
 1241TIP3    H1 3645  -0.219   5.321   2.119
 1241TIP3    H2 3646  -0.141   5.442   2.074
 1242TIP3   OH2 3647  -0.096   5.001   1.848
 1242TIP3    H1 3648  -0.034   5.068   1.816
 1242TIP3    H2 3649  -0.181   5.048   1.841
 1243TIP3   OH2 3650  -0.209   4.935   2.246
 1243TIP3    H1 3651  -0.135   4.896   2.198
 1243TIP3    H2 3652  -0.223   4.870   2.317
 1244TIP3   OH2 3653  -0.588   4.301   2.223
 1244TIP3    H1 3654  -0.631   4.214   2.241
 1244TIP3    H2 3655  -0.667   4.357   2.221
 1245TIP3   OH2 3656  -0.595   4.655   1.937
 1245TIP3    H1 3657  -0.532   4.582   1.925
 1245TIP3    H2 3658  -0.617   4.677   1.845
 1246TIP3   OH2 3659   0.004   4.597   2.294
 1246TIP3    H1 3660   0.039   4.507   2.303
 1246TIP3    H2 3661   0.077   4.642   2.249
 1247TIP3   OH2 3662   0.031   4.861   2.040
 1247TIP3    H1 3663  -0.026   4.913   1.978
 1247TIP3    H2 3664   0.119   4.879   1.999
 1248TIP3   OH2 3665  -0.349   4.378   2.332
 1248TIP3    H1 3666  -0.369   4.346   2.422
 1248TIP3    H2 3667  -0.433   4.352   2.287
 1249TIP3   OH2 3668  -0.115   4.330   2.186
 1249TIP3    H1 3669  -0.191   4.324   2.247
 1249TIP3    H2 3670  -0.044   4.290   2.240
 1250TIP3   OH2 3671   0.115   4.268   2.334
 1250TIP3    H1 3672   0.124   4.171   2.346
 1250TIP3    H2 3673   0.105   4.299   2.426
 1251TIP3   OH2 3674  -0.311   4.071   2.518
 1251TIP3    H1 3675  -0.315   3.986   2.468
 1251TIP3    H2 3676  -0.394   4.115   2.493
 1252TIP3   OH2 3677   0.194   5.552   1.524
 1252TIP3    H1 3678   0.181   5.459   1.500
 1252TIP3    H2 3679   0.281   5.546   1.567
 1253TIP3   OH2 3680   0.229   5.263   2.094
 1253TIP3    H1 3681   0.161   5.271   2.164
 1253TIP3    H2 3682   0.273   5.350   2.101
 1254TIP3   OH2 3683   0.266   5.052   1.342
 1254TIP3    H1 3684   0.309   4.965   1.322
 1254TIP3    H2 3685   0.276   5.096   1.257
 1255TIP3   OH2 3686   0.275   4.925   1.926
 1255TIP3    H1 3687   0.343   4.855   1.917
 1255TIP3    H2 3688   0.312   4.995   1.869
 1256TIP3   OH2 3689   0.455   4.724   1.937
 1256TIP3    H1 3690   0.380   4.674   1.975
 1256TIP3    H2 3691   0.528   4.661   1.956
 1257TIP3   OH2 3692   0.135   4.409   1.457
 1257TIP3    H1 3693   0.223   4.431   1.419
 1257TIP3    H2 3694   0.150   4.435   1.550
 1258TIP3   OH2 3695   0.216   4.530   1.696
 1258TIP3    H1 3696   0.138   4.564   1.744
 1258TIP3    H2 3697   0.252   4.610   1.653
 1259TIP3   OH2 3698   0.663   4.129   2.243
 1259TIP3    H1 3699   0.723   4.064   2.202
 1259TIP3    H2 3700   0.632   4.180   2.165
 1260TIP3   OH2 3701   0.531   4.262   2.045
 1260TIP3    H1 3702   0.445   4.304   2.065
 1260TIP3    H2 3703   0.500   4.186   1.992
 1261TIP3   OH2 3704   0.433   4.025   1.931
 1261TIP3    H1 3705   0.342   4.007   1.899
 1261TIP3    H2 3706   0.470   3.934   1.924
 1262TIP3   OH2 3707  -0.640   3.914   2.587
 1262TIP3    H1 3708  -0.568   3.919   2.521
 1262TIP3    H2 3709  -0.624   3.826   2.623
 1263TIP3   OH2 3710   0.166   3.998   2.368
 1263TIP3    H1 3711   0.183   3.965   2.459
 1263TIP3    H2 3712   0.254   3.985   2.327
 1264TIP3   OH2 3713   0.106   5.532   1.844
 1264TIP3    H1 3714   0.033   5.471   1.859
 1264TIP3    H2 3715   0.061   5.617   1.841
 1265TIP3   OH2 3716   1.378   4.899   0.625
 1265TIP3    H1 3717   1.351   4.992   0.607
 1265TIP3    H2 3718   1.297   4.853   0.597
 1266TIP3   OH2 3719   1.374   4.916   1.009
 1266TIP3    H1 3720   1.410   4.891   1.096
 1266TIP3    H2 3721   1.333   4.832   0.981
 1267TIP3   OH2 3722   0.670   4.804   1.370
 1267TIP3    H1 3723   0.701   4.736   1.433
 1267TIP3    H2 3724   0.749   4.860   1.363
 1268TIP3   OH2 3725   1.615   5.218   0.683
 1268TIP3    H1 3726   1.600   5.151   0.750
 1268TIP3    H2 3727   1.644   5.294   0.736
 1269TIP3   OH2 3728   0.658   5.207   1.145
 1269TIP3    H1 3729   0.652   5.109   1.138
 1269TIP3    H2 3730   0.750   5.219   1.114
 1270TIP3   OH2 3731   0.418   4.717   1.053
 1270TIP3    H1 3732   0.463   4.638   1.088
 1270TIP3    H2 3733   0.415   4.699   0.958
 1271TIP3   OH2 3734   1.272   5.662   0.721
 1271TIP3    H1 3735   1.316   5.591   0.671
 1271TIP3    H2 3736   1.262   5.623   0.808
 1272TIP3   OH2 3737   1.174   5.138   1.053
 1272TIP3    H1 3738   1.217   5.061   1.012
 1272TIP3    H2 3739   1.255   5.188   1.078
 1273TIP3   OH2 3740   2.188   4.459   1.050
 1273TIP3    H1 3741   2.217   4.544   1.089
 1273TIP3    H2 3742   2.210   4.473   0.956
 1274TIP3   OH2 3743   1.585   4.640   1.080
 1274TIP3    H1 3744   1.627   4.554   1.101
 1274TIP3    H2 3745   1.551   4.621   0.990
 1275TIP3   OH2 3746   0.929   4.305   1.053
 1275TIP3    H1 3747   0.902   4.376   0.991
 1275TIP3    H2 3748   0.894   4.225   1.008
 1276TIP3   OH2 3749   1.618   4.398   0.666
 1276TIP3    H1 3750   1.688   4.380   0.733
 1276TIP3    H2 3751   1.675   4.429   0.592
 1277TIP3   OH2 3752   0.556   4.502   1.157
 1277TIP3    H1 3753   0.638   4.480   1.206
 1277TIP3    H2 3754   0.569   4.449   1.076
 1278TIP3   OH2 3755   1.000   4.708   0.953
 1278TIP3    H1 3756   1.094   4.683   0.967
 1278TIP3    H2 3757   0.959   4.622   0.933
 1279TIP3   OH2 3758   2.261   4.672   1.217
 1279TIP3    H1 3759   2.176   4.715   1.196
 1279TIP3    H2 3760   2.269   4.694   1.311
 1280TIP3   OH2 3761   0.919   4.282   1.483
 1280TIP3    H1 3762   0.859   4.323   1.418
 1280TIP3    H2 3763   0.867   4.295   1.565
 1281TIP3   OH2 3764   1.267   5.123   0.517
 1281TIP3    H1 3765   1.204   5.095   0.448
 1281TIP3    H2 3766   1.261   5.219   0.514
 1282TIP3   OH2 3767   1.025   5.059   1.276
 1282TIP3    H1 3768   0.965   5.126   1.315
 1282TIP3    H2 3769   1.063   5.108   1.200
 1283TIP3   OH2 3770   1.820   4.400   0.847
 1283TIP3    H1 3771   1.808   4.351   0.929
 1283TIP3    H2 3772   1.872   4.478   0.876
 1284TIP3   OH2 3773   0.790   4.400   1.270
 1284TIP3    H1 3774   0.849   4.474   1.296
 1284TIP3    H2 3775   0.845   4.360   1.198
 1285TIP3   OH2 3776   0.858   5.251   1.386
 1285TIP3    H1 3777   0.825   5.322   1.328
 1285TIP3    H2 3778   0.778   5.239   1.441
 1286TIP3   OH2 3779   1.685   5.462   0.849
 1286TIP3    H1 3780   1.596   5.453   0.890
 1286TIP3    H2 3781   1.675   5.549   0.805
 1287TIP3   OH2 3782   1.979   4.362   1.217
 1287TIP3    H1 3783   1.891   4.384   1.183
 1287TIP3    H2 3784   2.039   4.392   1.145
 1288TIP3   OH2 3785   1.265   3.995   1.196
 1288TIP3    H1 3786   1.253   3.902   1.223
 1288TIP3    H2 3787   1.190   4.037   1.245
 1289TIP3   OH2 3788   1.379   5.481   0.541
 1289TIP3    H1 3789   1.423   5.397   0.517
 1289TIP3    H2 3790   1.444   5.542   0.500
 1290TIP3   OH2 3791   1.529   5.280   0.425
 1290TIP3    H1 3792   1.489   5.201   0.386
 1290TIP3    H2 3793   1.569   5.246   0.508
 1291TIP3   OH2 3794   1.911   5.371   1.195
 1291TIP3    H1 3795   1.896   5.293   1.136
 1291TIP3    H2 3796   1.892   5.445   1.134
 1292TIP3   OH2 3797   1.200   4.773   0.443
 1292TIP3    H1 3798   1.144   4.850   0.418
 1292TIP3    H2 3799   1.252   4.762   0.361
 1293TIP3   OH2 3800   1.162   4.506   0.176
 1293TIP3    H1 3801   1.225   4.550   0.236
 1293TIP3    H2 3802   1.201   4.419   0.165
 1294TIP3   OH2 3803   2.106   5.015   1.045
 1294TIP3    H1 3804   2.021   5.064   1.047
 1294TIP3    H2 3805   2.135   5.037   0.953
 1295TIP3   OH2 3806   1.553   4.849   0.419
 1295TIP3    H1 3807   1.497   4.869   0.498
 1295TIP3    H2 3808   1.637   4.825   0.464
 1296TIP3   OH2 3809   1.784   4.886   1.341
 1296TIP3    H1 3810   1.780   4.969   1.392
 1296TIP3    H2 3811   1.697   4.888   1.296
 1297TIP3   OH2 3812   0.785   4.844   0.852
 1297TIP3    H1 3813   0.744   4.777   0.797
 1297TIP3    H2 3814   0.865   4.798   0.886
 1298TIP3   OH2 3815   0.910   5.232   1.025
 1298TIP3    H1 3816   0.898   5.248   0.930
 1298TIP3    H2 3817   1.003   5.201   1.028
 1299TIP3   OH2 3818   0.924   4.814   1.200
 1299TIP3    H1 3819   0.953   4.796   1.109
 1299TIP3    H2 3820   0.959   4.904   1.216
 1300TIP3   OH2 3821   1.446   5.456   0.975
 1300TIP3    H1 3822   1.434   5.535   1.031
 1300TIP3    H2 3823   1.430   5.382   1.037
 1301TIP3   OH2 3824   1.060   5.376   1.522
 1301TIP3    H1 3825   0.998   5.437   1.568
 1301TIP3    H2 3826   0.996   5.322   1.471
 1302TIP3   OH2 3827   1.392   4.714   0.243
 1302TIP3    H1 3828   1.452   4.774   0.292
 1302TIP3    H2 3829   1.394   4.753   0.153
 1303TIP3   OH2 3830   0.814   4.927   1.626
 1303TIP3    H1 3831   0.818   5.016   1.667
 1303TIP3    H2 3832   0.720   4.906   1.641
 1304TIP3   OH2 3833   0.852   5.540   1.609
 1304TIP3    H1 3834   0.819   5.542   1.517
 1304TIP3    H2 3835   0.771   5.519   1.660
 1305TIP3   OH2 3836   1.906   3.949   0.295
 1305TIP3    H1 3837   1.822   3.963   0.344
 1305TIP3    H2 3838   1.908   4.029   0.239
 1306TIP3   OH2 3839   0.435   5.077   1.564
 1306TIP3    H1 3840   0.379   5.060   1.486
 1306TIP3    H2 3841   0.474   4.989   1.583
 1307TIP3   OH2 3842   2.148   5.721   1.245
 1307TIP3    H1 3843   2.147   5.625   1.259
 1307TIP3    H2 3844   2.065   5.746   1.290
 1308TIP3   OH2 3845   1.254   5.504   1.378
 1308TIP3    H1 3846   1.250   5.596   1.411
 1308TIP3    H2 3847   1.183   5.462   1.431
 1309TIP3   OH2 3848   2.038   4.847   1.517
 1309TIP3    H1 3849   1.952   4.857   1.472
 1309TIP3    H2 3850   2.054   4.751   1.507
 1310TIP3   OH2 3851   0.635   5.266   1.549
 1310TIP3    H1 3852   0.687   5.241   1.628
 1310TIP3    H2 3853   0.563   5.200   1.551
 1311TIP3   OH2 3854   1.031   4.079   1.326
 1311TIP3    H1 3855   0.944   4.047   1.296
 1311TIP3    H2 3856   1.003   4.155   1.380
 1312TIP3   OH2 3857   1.568   4.193   1.522
 1312TIP3    H1 3858   1.637   4.165   1.587
 1312TIP3    H2 3859   1.485   4.174   1.570
 1313TIP3   OH2 3860   1.806   4.625   1.444
 1313TIP3    H1 3861   1.754   4.621   1.527
 1313TIP3    H2 3862   1.780   4.711   1.406
 1314TIP3   OH2 3863   1.469   4.814  -0.036
 1314TIP3    H1 3864   1.443   4.729  -0.078
 1314TIP3    H2 3865   1.567   4.808  -0.037
 1315TIP3   OH2 3866   0.968   4.595   1.349
 1315TIP3    H1 3867   0.917   4.616   1.430
 1315TIP3    H2 3868   0.953   4.676   1.296
 1316TIP3   OH2 3869   0.841   4.494   0.877
 1316TIP3    H1 3870   0.747   4.468   0.877
 1316TIP3    H2 3871   0.862   4.485   0.781
 1317TIP3   OH2 3872   1.341   4.572   0.586
 1317TIP3    H1 3873   1.290   4.642   0.540
 1317TIP3    H2 3874   1.398   4.538   0.514
 1318TIP3   OH2 3875   1.514   4.840   1.672
 1318TIP3    H1 3876   1.491   4.769   1.734
 1318TIP3    H2 3877   1.608   4.854   1.695
 1319TIP3   OH2 3878   1.495   4.592   0.824
 1319TIP3    H1 3879   1.433   4.621   0.754
 1319TIP3    H2 3880   1.533   4.514   0.778
 1320TIP3   OH2 3881   0.786   4.621   1.554
 1320TIP3    H1 3882   0.815   4.682   1.623
 1320TIP3    H2 3883   0.772   4.538   1.605
 1321TIP3   OH2 3884   0.416   4.204   1.088
 1321TIP3    H1 3885   0.464   4.212   1.174
 1321TIP3    H2 3886   0.386   4.112   1.093
 1322TIP3   OH2 3887   1.509   4.838   1.245
 1322TIP3    H1 3888   1.541   4.766   1.186
 1322TIP3    H2 3889   1.477   4.784   1.321
 1323TIP3   OH2 3890   1.187   4.311   0.926
 1323TIP3    H1 3891   1.108   4.311   0.983
 1323TIP3    H2 3892   1.259   4.295   0.990
 1324TIP3   OH2 3893   0.601   4.352   0.929
 1324TIP3    H1 3894   0.509   4.321   0.936
 1324TIP3    H2 3895   0.648   4.274   0.962
 1325TIP3   OH2 3896   0.905   4.450   0.619
 1325TIP3    H1 3897   1.000   4.424   0.617
 1325TIP3    H2 3898   0.863   4.379   0.566
 1326TIP3   OH2 3899   1.671   4.379   1.125
 1326TIP3    H1 3900   1.639   4.392   1.217
 1326TIP3    H2 3901   1.603   4.318   1.091
 1327TIP3   OH2 3902   1.843   6.067   1.345
 1327TIP3    H1 3903   1.840   6.090   1.250
 1327TIP3    H2 3904   1.923   6.116   1.374
 1328TIP3   OH2 3905   0.798   5.178   1.762
 1328TIP3    H1 3906   0.878   5.206   1.811
 1328TIP3    H2 3907   0.734   5.173   1.836
 1329TIP3   OH2 3908   1.259   4.635   1.020
 1329TIP3    H1 3909   1.332   4.592   0.973
 1329TIP3    H2 3910   1.260   4.590   1.107
 1330TIP3   OH2 3911   0.832   4.100   0.895
 1330TIP3    H1 3912   0.873   4.017   0.923
 1330TIP3    H2 3913   0.877   4.115   0.810
 1331TIP3   OH2 3914   1.235   4.537   1.299
 1331TIP3    H1 3915   1.145   4.567   1.320
 1331TIP3    H2 3916   1.291   4.595   1.354
 1332TIP3   OH2 3917   1.870   5.155   1.028
 1332TIP3    H1 3918   1.892   5.206   0.948
 1332TIP3    H2 3919   1.785   5.111   1.001
 1333TIP3   OH2 3920   1.410   4.233   0.292
 1333TIP3    H1 3921   1.371   4.225   0.204
 1333TIP3    H2 3922   1.450   4.322   0.292
 1334TIP3   OH2 3923   1.374   5.240   1.399
 1334TIP3    H1 3924   1.400   5.218   1.489
 1334TIP3    H2 3925   1.332   5.327   1.409
 1335TIP3   OH2 3926   1.501   4.486   0.366
 1335TIP3    H1 3927   1.597   4.489   0.387
 1335TIP3    H2 3928   1.487   4.569   0.316
 1336TIP3   OH2 3929   0.675   4.942   1.089
 1336TIP3    H1 3930   0.702   4.913   1.000
 1336TIP3    H2 3931   0.701   4.866   1.143
 1337TIP3   OH2 3932   0.551   4.859   1.693
 1337TIP3    H1 3933   0.565   4.843   1.788
 1337TIP3    H2 3934   0.486   4.790   1.671
 1338TIP3   OH2 3935   1.274   4.979   1.709
 1338TIP3    H1 3936   1.211   4.918   1.668
 1338TIP3    H2 3937   1.360   4.941   1.680
 1339TIP3   OH2 3938   1.530   5.501   1.296
 1339TIP3    H1 3939   1.434   5.496   1.310
 1339TIP3    H2 3940   1.558   5.552   1.374
 1340TIP3   OH2 3941   1.937   4.573   0.209
 1340TIP3    H1 3942   1.879   4.529   0.143
 1340TIP3    H2 3943   1.936   4.663   0.169
 1341TIP3   OH2 3944   2.161   5.432   1.282
 1341TIP3    H1 3945   2.063   5.424   1.275
 1341TIP3    H2 3946   2.187   5.400   1.193
 1342TIP3   OH2 3947   1.640   5.426   0.134
 1342TIP3    H1 3948   1.638   5.395   0.225
 1342TIP3    H2 3949   1.616   5.344   0.085
 1343TIP3   OH2 3950   1.637   5.018   0.943
 1343TIP3    H1 3951   1.544   4.994   0.958
 1343TIP3    H2 3952   1.670   4.937   0.900
 1344TIP3   OH2 3953   0.884   5.000   0.645
 1344TIP3    H1 3954   0.888   5.096   0.658
 1344TIP3    H2 3955   0.857   4.968   0.733
 1345TIP3   OH2 3956   1.047   5.592   1.184
 1345TIP3    H1 3957   1.087   5.658   1.124
 1345TIP3    H2 3958   1.125   5.556   1.229
 1346TIP3   OH2 3959   1.424   5.224   1.132
 1346TIP3    H1 3960   1.412   5.223   1.230
 1346TIP3    H2 3961   1.502   5.167   1.123
 1347TIP3   OH2 3962   1.672   5.752   1.182
 1347TIP3    H1 3963   1.591   5.697   1.177
 1347TIP3    H2 3964   1.655   5.817   1.109
 1348TIP3   OH2 3965   0.754   4.367   1.694
 1348TIP3    H1 3966   0.657   4.372   1.707
 1348TIP3    H2 3967   0.780   4.310   1.768
 1349TIP3   OH2 3968   1.581   5.033   0.202
 1349TIP3    H1 3969   1.562   4.977   0.280
 1349TIP3    H2 3970   1.679   5.034   0.203
 1350TIP3   OH2 3971   0.485   5.497   1.385
 1350TIP3    H1 3972   0.493   5.428   1.317
 1350TIP3    H2 3973   0.547   5.463   1.452
 1351TIP3   OH2 3974   1.598   4.430   1.384
 1351TIP3    H1 3975   1.678   4.467   1.425
 1351TIP3    H2 3976   1.583   4.349   1.438
 1352TIP3   OH2 3977   1.470   4.184   0.556
 1352TIP3    H1 3978   1.449   4.198   0.461
 1352TIP3    H2 3979   1.516   4.267   0.581
 1353TIP3   OH2 3980   1.168   4.369   0.656
 1353TIP3    H1 3981   1.234   4.439   0.637
 1353TIP3    H2 3982   1.179   4.359   0.754
 1354TIP3   OH2 3983   1.435   4.678   1.453
 1354TIP3    H1 3984   1.458   4.729   1.533
 1354TIP3    H2 3985   1.485   4.595   1.465
 1355TIP3   OH2 3986   1.322   4.091   0.765
 1355TIP3    H1 3987   1.316   4.170   0.821
 1355TIP3    H2 3988   1.380   4.126   0.692
 1356TIP3   OH2 3989   2.072   4.579   1.435
 1356TIP3    H1 3990   1.974   4.582   1.447
 1356TIP3    H2 3991   2.076   4.526   1.354
 1357TIP3   OH2 3992   1.723   4.773   0.825
 1357TIP3    H1 3993   1.646   4.715   0.838
 1357TIP3    H2 3994   1.793   4.725   0.874
 1358TIP3   OH2 3995   1.690   5.732   0.774
 1358TIP3    H1 3996   1.641   5.771   0.698
 1358TIP3    H2 3997   1.783   5.754   0.749
 1359TIP3   OH2 3998   0.768   3.986   1.296
 1359TIP3    H1 3999   0.729   3.923   1.234
 1359TIP3    H2 4000   0.773   3.929   1.375
 1360TIP3   OH2 4001   0.469   5.758   1.764
 1360TIP3    H1 4002   0.555   5.765   1.811
 1360TIP3    H2 4003   0.459   5.661   1.760
 1361TIP3   OH2 4004   0.944   5.722   1.796
 1361TIP3    H1 4005   1.038   5.698   1.803
 1361TIP3    H2 4006   0.916   5.659   1.726
 1362TIP3   OH2 4007   1.582   5.632   1.533
 1362TIP3    H1 4008   1.576   5.561   1.601
 1362TIP3    H2 4009   1.660   5.683   1.562
 1363TIP3   OH2 4010   0.597   5.168   1.955
 1363TIP3    H1 4011   0.614   5.072   1.963
 1363TIP3    H2 4012   0.509   5.169   1.911
 1364TIP3   OH2 4013   1.201   5.255   1.728
 1364TIP3    H1 4014   1.159   5.275   1.642
 1364TIP3    H2 4015   1.232   5.162   1.717
 1365TIP3   OH2 4016   1.695   5.266   1.336
 1365TIP3    H1 4017   1.770   5.309   1.292
 1365TIP3    H2 4018   1.623   5.331   1.320
 1366TIP3   OH2 4019   0.716   4.907   1.938
 1366TIP3    H1 4020   0.789   4.850   1.912
 1366TIP3    H2 4021   0.745   4.936   2.027
 1367TIP3   OH2 4022   1.051   4.786   1.599
 1367TIP3    H1 4023   0.971   4.844   1.599
 1367TIP3    H2 4024   1.100   4.821   1.522
 1368TIP3   OH2 4025   1.568   5.188   1.730
 1368TIP3    H1 4026   1.643   5.151   1.681
 1368TIP3    H2 4027   1.559   5.124   1.803
 1369TIP3   OH2 4028   1.733   4.826  -0.143
 1369TIP3    H1 4029   1.710   4.766  -0.215
 1369TIP3    H2 4030   1.749   4.909  -0.193
 1370TIP3   OH2 4031   1.175   4.576   1.720
 1370TIP3    H1 4032   1.174   4.497   1.663
 1370TIP3    H2 4033   1.130   4.643   1.665
 1371TIP3   OH2 4034   1.176   4.363   1.530
 1371TIP3    H1 4035   1.203   4.402   1.445
 1371TIP3    H2 4036   1.083   4.338   1.513
 1372TIP3   OH2 4037   1.200   4.895   1.405
 1372TIP3    H1 4038   1.284   4.909   1.361
 1372TIP3    H2 4039   1.141   4.959   1.358
 1373TIP3   OH2 4040   1.780   4.860   1.781
 1373TIP3    H1 4041   1.826   4.777   1.798
 1373TIP3    H2 4042   1.850   4.916   1.745
 1374TIP3   OH2 4043   1.823   5.116   1.521
 1374TIP3    H1 4044   1.766   5.172   1.463
 1374TIP3    H2 4045   1.911   5.137   1.482
 1375TIP3   OH2 4046   1.053   4.679   1.956
 1375TIP3    H1 4047   0.985   4.611   1.973
 1375TIP3    H2 4048   1.085   4.653   1.867
 1376TIP3   OH2 4049   1.307   4.123   1.601
 1376TIP3    H1 4050   1.256   4.204   1.579
 1376TIP3    H2 4051   1.239   4.053   1.591
 1377TIP3   OH2 4052   1.433   4.624   1.815
 1377TIP3    H1 4053   1.416   4.608   1.910
 1377TIP3    H2 4054   1.344   4.602   1.780
 1378TIP3   OH2 4055   1.671   4.576   1.671
 1378TIP3    H1 4056   1.596   4.577   1.734
 1378TIP3    H2 4057   1.745   4.545   1.728
 1379TIP3   OH2 4058   1.907   4.520   1.818
 1379TIP3    H1 4059   1.917   4.424   1.834
 1379TIP3    H2 4060   1.899   4.556   1.909
 1380TIP3   OH2 4061   0.891   4.462   2.011
 1380TIP3    H1 4062   0.891   4.370   1.980
 1380TIP3    H2 4063   0.929   4.450   2.101
 1381TIP3   OH2 4064   1.401   4.133   1.859
 1381TIP3    H1 4065   1.466   4.060   1.852
 1381TIP3    H2 4066   1.360   4.129   1.770
 1382TIP3   OH2 4067   1.469   4.348   2.016
 1382TIP3    H1 4068   1.447   4.276   1.953
 1382TIP3    H2 4069   1.390   4.405   2.010
 1383TIP3   OH2 4070   1.947   5.819   0.734
 1383TIP3    H1 4071   1.971   5.848   0.824
 1383TIP3    H2 4072   2.012   5.867   0.680
 1384TIP3   OH2 4073   1.976   5.839   1.015
 1384TIP3    H1 4074   1.928   5.753   1.012
 1384TIP3    H2 4075   2.048   5.815   1.076
 1385TIP3   OH2 4076   2.023   5.518   1.589
 1385TIP3    H1 4077   1.951   5.528   1.655
 1385TIP3    H2 4078   2.065   5.606   1.594
 1386TIP3   OH2 4079   1.856   5.030   0.209
 1386TIP3    H1 4080   1.922   5.097   0.183
 1386TIP3    H2 4081   1.898   4.992   0.289
 1387TIP3   OH2 4082   1.970   4.896   0.417
 1387TIP3    H1 4083   1.901   4.854   0.473
 1387TIP3    H2 4084   2.032   4.932   0.483
 1388TIP3   OH2 4085   2.026   5.294   0.844
 1388TIP3    H1 4086   2.077   5.225   0.798
 1388TIP3    H2 4087   2.019   5.364   0.776
 1389TIP3   OH2 4088   1.849   5.591   1.036
 1389TIP3    H1 4089   1.777   5.633   1.088
 1389TIP3    H2 4090   1.800   5.546   0.965
 1390TIP3   OH2 4091   1.909   4.805   0.066
 1390TIP3    H1 4092   1.841   4.806  -0.006
 1390TIP3    H2 4093   1.882   4.883   0.118
 1391TIP3   OH2 4094   1.774   4.477   0.014
 1391TIP3    H1 4095   1.714   4.508  -0.054
 1391TIP3    H2 4096   1.749   4.382   0.020
 1392TIP3   OH2 4097   1.778   4.756   0.556
 1392TIP3    H1 4098   1.786   4.660   0.547
 1392TIP3    H2 4099   1.763   4.768   0.653
 1393TIP3   OH2 4100   0.407   4.824   1.308
 1393TIP3    H1 4101   0.403   4.795   1.213
 1393TIP3    H2 4102   0.505   4.824   1.321
 1394TIP3   OH2 4103   2.070   5.181   1.416
 1394TIP3    H1 4104   2.141   5.114   1.403
 1394TIP3    H2 4105   2.093   5.248   1.349
 1395TIP3   OH2 4106   2.253   4.980   1.418
 1395TIP3    H1 4107   2.178   4.933   1.460
 1395TIP3    H2 4108   2.325   4.917   1.439
 1396TIP3   OH2 4109   1.705   4.215   0.012
 1396TIP3    H1 4110   1.796   4.189   0.038
 1396TIP3    H2 4111   1.657   4.135   0.043
 1397TIP3   OH2 4112   1.777   4.474   0.446
 1397TIP3    H1 4113   1.818   4.385   0.462
 1397TIP3    H2 4114   1.837   4.507   0.376
 1398TIP3   OH2 4115   1.935   4.641   0.947
 1398TIP3    H1 4116   2.021   4.665   0.905
 1398TIP3    H2 4117   1.950   4.679   1.036
 1399TIP3   OH2 4118   2.009   4.790   1.175
 1399TIP3    H1 4119   1.932   4.822   1.225
 1399TIP3    H2 4120   2.041   4.873   1.132
 1400TIP3   OH2 4121   0.626   4.518   1.987
 1400TIP3    H1 4122   0.724   4.510   1.989
 1400TIP3    H2 4123   0.601   4.430   2.020
 1401TIP3   OH2 4124   2.462   4.387   1.731
 1401TIP3    H1 4125   2.521   4.321   1.688
 1401TIP3    H2 4126   2.428   4.437   1.654
 1402TIP3   OH2 4127   1.886   4.225   0.488
 1402TIP3    H1 4128   1.933   4.208   0.572
 1402TIP3    H2 4129   1.826   4.148   0.487
 1403TIP3   OH2 4130   0.587   4.202   1.301
 1403TIP3    H1 4131   0.646   4.126   1.314
 1403TIP3    H2 4132   0.649   4.277   1.308
 1404TIP3   OH2 4133   0.389   4.476   1.383
 1404TIP3    H1 4134   0.437   4.478   1.297
 1404TIP3    H2 4135   0.417   4.559   1.423
 1405TIP3   OH2 4136   2.326   4.517   1.535
 1405TIP3    H1 4137   2.241   4.561   1.556
 1405TIP3    H2 4138   2.293   4.444   1.479
 1406TIP3   OH2 4139   1.970   4.160   0.099
 1406TIP3    H1 4140   2.040   4.096   0.078
 1406TIP3    H2 4141   2.024   4.240   0.112
 1407TIP3   OH2 4142   1.549   5.645   0.410
 1407TIP3    H1 4143   1.597   5.670   0.330
 1407TIP3    H2 4144   1.563   5.724   0.467
 1408TIP3   OH2 4145   0.590   4.061   1.697
 1408TIP3    H1 4146   0.539   4.057   1.780
 1408TIP3    H2 4147   0.524   4.102   1.637
 1409TIP3   OH2 4148   0.631   5.498   1.773
 1409TIP3    H1 4149   0.540   5.465   1.755
 1409TIP3    H2 4150   0.643   5.472   1.865
 1410TIP3   OH2 4151   0.813   5.535   1.329
 1410TIP3    H1 4152   0.762   5.596   1.273
 1410TIP3    H2 4153   0.902   5.549   1.291
 1411TIP3   OH2 4154   1.249   5.770   1.459
 1411TIP3    H1 4155   1.292   5.768   1.547
 1411TIP3    H2 4156   1.315   5.822   1.408
 1412TIP3   OH2 4157   1.428   5.924   1.320
 1412TIP3    H1 4158   1.497   5.873   1.274
 1412TIP3    H2 4159   1.484   5.978   1.381
 1413TIP3   OH2 4160   2.227   4.280   1.418
 1413TIP3    H1 4161   2.137   4.268   1.383
 1413TIP3    H2 4162   2.262   4.188   1.409
 1414TIP3   OH2 4163   0.731   5.784   1.187
 1414TIP3    H1 4164   0.639   5.803   1.213
 1414TIP3    H2 4165   0.722   5.746   1.098
 1415TIP3   OH2 4166   1.150   5.778   0.994
 1415TIP3    H1 4167   1.120   5.799   0.903
 1415TIP3    H2 4168   1.156   5.868   1.033
 1416TIP3   OH2 4169   1.416   5.727   1.058
 1416TIP3    H1 4170   1.321   5.741   1.036
 1416TIP3    H2 4171   1.458   5.796   1.005
 1417TIP3   OH2 4172   1.625   5.913   0.969
 1417TIP3    H1 4173   1.600   5.993   0.920
 1417TIP3    H2 4174   1.648   5.852   0.895
 1418TIP3   OH2 4175   0.836   5.551   1.003
 1418TIP3    H1 4176   0.846   5.458   0.979
 1418TIP3    H2 4177   0.910   5.562   1.066
 1419TIP3   OH2 4178   1.428   4.196   1.037
 1419TIP3    H1 4179   1.389   4.123   1.089
 1419TIP3    H2 4180   1.503   4.151   0.993
 1420TIP3   OH2 4181   1.951   4.086   0.946
 1420TIP3    H1 4182   1.987   4.133   0.868
 1420TIP3    H2 4183   1.855   4.097   0.934
 1421TIP3   OH2 4184   2.049   4.176   0.707
 1421TIP3    H1 4185   2.122   4.123   0.667
 1421TIP3    H2 4186   2.083   4.267   0.692
 1422TIP3   OH2 4187   1.111   3.956   0.944
 1422TIP3    H1 4188   1.175   3.987   0.878
 1422TIP3    H2 4189   1.157   3.978   1.027
 1423TIP3   OH2 4190   1.667   4.085   0.914
 1423TIP3    H1 4191   1.670   4.042   0.828
 1423TIP3    H2 4192   1.658   4.007   0.974
 1424TIP3   OH2 4193   1.708   4.009   0.489
 1424TIP3    H1 4194   1.617   4.040   0.475
 1424TIP3    H2 4195   1.693   3.935   0.552
 1425TIP3   OH2 4196   1.109   4.108   0.595
 1425TIP3    H1 4197   1.187   4.074   0.643
 1425TIP3    H2 4198   1.126   4.204   0.606
 1426TIP3   OH2 4199   0.887   4.192   1.950
 1426TIP3    H1 4200   0.851   4.117   2.002
 1426TIP3    H2 4201   0.981   4.188   1.976
 1427TIP3   OH2 4202   1.139   4.183   2.064
 1427TIP3    H1 4203   1.224   4.155   2.026
 1427TIP3    H2 4204   1.124   4.114   2.132
 1428TIP3   OH2 4205   1.965   4.248   1.850
 1428TIP3    H1 4206   1.982   4.218   1.942
 1428TIP3    H2 4207   2.055   4.241   1.811
 1429TIP3   OH2 4208   1.899   5.797   1.342
 1429TIP3    H1 4209   1.821   5.767   1.292
 1429TIP3    H2 4210   1.879   5.892   1.350
 1430TIP3   OH2 4211   3.163   5.179   0.112
 1430TIP3    H1 4212   3.126   5.264   0.077
 1430TIP3    H2 4213   3.099   5.118   0.067
 1431TIP3   OH2 4214   3.169   5.131   0.482
 1431TIP3    H1 4215   3.201   5.139   0.575
 1431TIP3    H2 4216   3.116   5.048   0.489
 1432TIP3   OH2 4217   2.465   5.062   0.854
 1432TIP3    H1 4218   2.493   4.991   0.915
 1432TIP3    H2 4219   2.543   5.119   0.855
 1433TIP3   OH2 4220   3.417   5.469   0.208
 1433TIP3    H1 4221   3.421   5.425   0.294
 1433TIP3    H2 4222   3.449   5.558   0.231
 1434TIP3   OH2 4223   2.440   5.479   0.576
 1434TIP3    H1 4224   2.432   5.381   0.577
 1434TIP3    H2 4225   2.536   5.488   0.575
 1435TIP3   OH2 4226   2.147   4.678   0.360
 1435TIP3    H1 4227   2.096   4.759   0.379
 1435TIP3    H2 4228   2.077   4.624   0.319
 1436TIP3   OH2 4229   2.205   4.966   0.544
 1436TIP3    H1 4230   2.254   4.886   0.576
 1436TIP3    H2 4231   2.257   4.991   0.467
 1437TIP3   OH2 4232   3.052   5.919   0.192
 1437TIP3    H1 4233   3.111   5.856   0.146
 1437TIP3    H2 4234   3.051   5.884   0.282
 1438TIP3   OH2 4235   2.961   5.404   0.537
 1438TIP3    H1 4236   2.989   5.330   0.482
 1438TIP3    H2 4237   3.049   5.438   0.565
 1439TIP3   OH2 4238   3.985   4.715   0.538
 1439TIP3    H1 4239   4.015   4.801   0.573
 1439TIP3    H2 4240   4.002   4.726   0.443
 1440TIP3   OH2 4241   3.384   4.898   0.561
 1440TIP3    H1 4242   3.433   4.818   0.589
 1440TIP3    H2 4243   3.342   4.867   0.479
 1441TIP3   OH2 4244   2.721   4.557   0.533
 1441TIP3    H1 4245   2.701   4.628   0.469
 1441TIP3    H2 4246   2.675   4.482   0.489
 1442TIP3   OH2 4247   2.351   4.757   0.643
 1442TIP3    H1 4248   2.434   4.737   0.690
 1442TIP3    H2 4249   2.364   4.702   0.563
 1443TIP3   OH2 4250   2.789   4.956   0.438
 1443TIP3    H1 4251   2.882   4.927   0.451
 1443TIP3    H2 4252   2.747   4.873   0.406
 1444TIP3   OH2 4253   4.061   4.930   0.705
 1444TIP3    H1 4254   3.974   4.971   0.688
 1444TIP3    H2 4255   4.069   4.946   0.800
 1445TIP3   OH2 4256   2.714   4.542   0.971
 1445TIP3    H1 4257   2.655   4.577   0.902
 1445TIP3    H2 4258   2.660   4.558   1.051
 1446TIP3   OH2 4259   3.049   5.384  -0.023
 1446TIP3    H1 4260   3.003   5.371  -0.108
 1446TIP3    H2 4261   3.012   5.471   0.003
 1447TIP3   OH2 4262   2.820   5.319   0.760
 1447TIP3    H1 4263   2.759   5.385   0.798
 1447TIP3    H2 4264   2.860   5.369   0.686
 1448TIP3   OH2 4265   2.587   4.655   0.752
 1448TIP3    H1 4266   2.650   4.726   0.776
 1448TIP3    H2 4267   2.635   4.614   0.676
 1449TIP3   OH2 4268   2.650   5.514   0.861
 1449TIP3    H1 4269   2.625   5.602   0.827
 1449TIP3    H2 4270   2.571   5.495   0.916
 1450TIP3   OH2 4271   2.052   5.203   0.112
 1450TIP3    H1 4272   2.015   5.220   0.023
 1450TIP3    H2 4273   2.081   5.292   0.140
 1451TIP3   OH2 4274   3.479   5.718   0.332
 1451TIP3    H1 4275   3.391   5.712   0.375
 1451TIP3    H2 4276   3.473   5.806   0.289
 1452TIP3   OH2 4277   3.768   4.616   0.701
 1452TIP3    H1 4278   3.679   4.635   0.665
 1452TIP3    H2 4279   3.826   4.647   0.628
 1453TIP3   OH2 4280   3.066   4.248   0.691
 1453TIP3    H1 4281   3.046   4.154   0.705
 1453TIP3    H2 4282   2.989   4.290   0.735
 1454TIP3   OH2 4283   3.197   5.766   0.016
 1454TIP3    H1 4284   3.242   5.679   0.003
 1454TIP3    H2 4285   3.237   5.816  -0.056
 1455TIP3   OH2 4286   3.319   5.526  -0.051
 1455TIP3    H1 4287   3.315   5.437  -0.088
 1455TIP3    H2 4288   3.359   5.507   0.037
 1456TIP3   OH2 4289   3.707   5.631   0.685
 1456TIP3    H1 4290   3.693   5.554   0.626
 1456TIP3    H2 4291   3.686   5.706   0.625
 1457TIP3   OH2 4292   3.003   5.031  -0.052
 1457TIP3    H1 4293   2.919   5.076  -0.075
 1457TIP3    H2 4294   3.039   5.011  -0.140
 1458TIP3   OH2 4295   2.957   4.803  -0.320
 1458TIP3    H1 4296   3.041   4.848  -0.301
 1458TIP3    H2 4297   2.984   4.732  -0.381
 1459TIP3   OH2 4298   3.899   5.270   0.538
 1459TIP3    H1 4299   3.815   5.320   0.537
 1459TIP3    H2 4300   3.939   5.296   0.453
 1460TIP3   OH2 4301   3.341   5.090  -0.085
 1460TIP3    H1 4302   3.293   5.130  -0.011
 1460TIP3    H2 4303   3.430   5.072  -0.048
 1461TIP3   OH2 4304   3.579   5.145   0.828
 1461TIP3    H1 4305   3.577   5.225   0.883
 1461TIP3    H2 4306   3.489   5.147   0.790
 1462TIP3   OH2 4307   2.579   5.102   0.329
 1462TIP3    H1 4308   2.534   5.044   0.264
 1462TIP3    H2 4309   2.653   5.045   0.358
 1463TIP3   OH2 4310   2.709   5.521   0.472
 1463TIP3    H1 4311   2.686   5.480   0.388
 1463TIP3    H2 4312   2.797   5.483   0.491
 1464TIP3   OH2 4313   2.719   5.070   0.686
 1464TIP3    H1 4314   2.746   5.047   0.594
 1464TIP3    H2 4315   2.758   5.159   0.698
 1465TIP3   OH2 4316   3.244   5.710   0.463
 1465TIP3    H1 4317   3.228   5.794   0.509
 1465TIP3    H2 4318   3.218   5.643   0.529
 1466TIP3   OH2 4319   2.855   5.629   1.006
 1466TIP3    H1 4320   2.793   5.690   1.053
 1466TIP3    H2 4321   2.790   5.576   0.955
 1467TIP3   OH2 4322   3.178   4.969  -0.261
 1467TIP3    H1 4323   3.242   5.024  -0.209
 1467TIP3    H2 4324   3.166   5.025  -0.340
 1468TIP3   OH2 4325   2.609   5.184   1.112
 1468TIP3    H1 4326   2.613   5.273   1.153
 1468TIP3    H2 4327   2.514   5.163   1.127
 1469TIP3   OH2 4328   2.942   5.633   0.011
 1469TIP3    H1 4329   3.019   5.692   0.023
 1469TIP3    H2 4330   2.871   5.695  -0.010
 1470TIP3   OH2 4331   2.648   5.793   1.095
 1470TIP3    H1 4332   2.611   5.798   1.005
 1470TIP3    H2 4333   2.567   5.773   1.148
 1471TIP3   OH2 4334   3.698   4.206  -0.205
 1471TIP3    H1 4335   3.615   4.231  -0.158
 1471TIP3    H2 4336   3.689   4.254  -0.289
 1472TIP3   OH2 4337   2.443   4.948   0.140
 1472TIP3    H1 4338   2.375   4.988   0.082
 1472TIP3    H2 4339   2.418   4.855   0.139
 1473TIP3   OH2 4340   2.226   5.330   1.041
 1473TIP3    H1 4341   2.157   5.311   0.974
 1473TIP3    H2 4342   2.263   5.241   1.060
 1474TIP3   OH2 4343   2.079   5.525   0.667
 1474TIP3    H1 4344   2.176   5.521   0.666
 1474TIP3    H2 4345   2.064   5.601   0.725
 1475TIP3   OH2 4346   3.946   5.975   0.736
 1475TIP3    H1 4347   3.942   5.879   0.755
 1475TIP3    H2 4348   3.862   6.004   0.778
 1476TIP3   OH2 4349   3.049   5.759   0.863
 1476TIP3    H1 4350   3.045   5.852   0.896
 1476TIP3    H2 4351   2.978   5.718   0.917
 1477TIP3   OH2 4352   2.253   5.734   0.200
 1477TIP3    H1 4353   2.297   5.725   0.288
 1477TIP3    H2 4354   2.204   5.650   0.195
 1478TIP3   OH2 4355   3.835   5.102   1.005
 1478TIP3    H1 4356   3.750   5.110   0.959
 1478TIP3    H2 4357   3.853   5.007   0.996
 1479TIP3   OH2 4358   2.431   5.512   1.023
 1479TIP3    H1 4359   2.478   5.497   1.107
 1479TIP3    H2 4360   2.356   5.449   1.031
 1480TIP3   OH2 4361   2.829   4.334   0.818
 1480TIP3    H1 4362   2.742   4.303   0.785
 1480TIP3    H2 4363   2.800   4.414   0.866
 1481TIP3   OH2 4364   3.364   4.451   1.009
 1481TIP3    H1 4365   3.432   4.422   1.073
 1481TIP3    H2 4366   3.281   4.431   1.056
 1482TIP3   OH2 4367   3.605   4.883   0.933
 1482TIP3    H1 4368   3.550   4.876   1.015
 1482TIP3    H2 4369   3.574   4.967   0.894
 1483TIP3   OH2 4370   2.988   4.407  -0.234
 1483TIP3    H1 4371   2.957   4.392  -0.142
 1483TIP3    H2 4372   2.942   4.330  -0.276
 1484TIP3   OH2 4373   2.764   4.850   0.836
 1484TIP3    H1 4374   2.710   4.869   0.916
 1484TIP3    H2 4375   2.748   4.931   0.783
 1485TIP3   OH2 4376   2.643   4.741   0.347
 1485TIP3    H1 4377   2.552   4.712   0.367
 1485TIP3    H2 4378   2.656   4.699   0.259
 1486TIP3   OH2 4379   3.142   4.823   0.078
 1486TIP3    H1 4380   3.087   4.890   0.031
 1486TIP3    H2 4381   3.193   4.784   0.004
 1487TIP3   OH2 4382   3.311   5.097   1.158
 1487TIP3    H1 4383   3.287   5.025   1.220
 1487TIP3    H2 4384   3.404   5.111   1.183
 1488TIP3   OH2 4385   3.299   4.848   0.299
 1488TIP3    H1 4386   3.237   4.837   0.223
 1488TIP3    H2 4387   3.337   4.756   0.298
 1489TIP3   OH2 4388   2.581   4.878   1.040
 1489TIP3    H1 4389   2.603   4.941   1.109
 1489TIP3    H2 4390   2.567   4.795   1.090
 1490TIP3   OH2 4391   2.585   4.416  -0.247
 1490TIP3    H1 4392   2.655   4.388  -0.187
 1490TIP3    H2 4393   2.584   4.338  -0.304
 1491TIP3   OH2 4394   2.173   4.400   0.623
 1491TIP3    H1 4395   2.250   4.431   0.675
 1491TIP3    H2 4396   2.212   4.367   0.540
 1492TIP3   OH2 4397   2.133   4.382   0.139
 1492TIP3    H1 4398   2.190   4.414   0.066
 1492TIP3    H2 4399   2.079   4.462   0.155
 1493TIP3   OH2 4400   3.313   5.101   0.721
 1493TIP3    H1 4401   3.341   5.023   0.666
 1493TIP3    H2 4402   3.278   5.052   0.799
 1494TIP3   OH2 4403   2.982   4.584   0.415
 1494TIP3    H1 4404   2.903   4.565   0.469
 1494TIP3    H2 4405   3.054   4.544   0.469
 1495TIP3   OH2 4406   2.408   4.616   0.414
 1495TIP3    H1 4407   2.314   4.623   0.384
 1495TIP3    H2 4408   2.431   4.524   0.392
 1496TIP3   OH2 4409   2.671   4.612   0.108
 1496TIP3    H1 4410   2.766   4.623   0.088
 1496TIP3    H2 4411   2.627   4.643   0.026
 1497TIP3   OH2 4412   3.479   4.647   0.623
 1497TIP3    H1 4413   3.415   4.640   0.696
 1497TIP3    H2 4414   3.435   4.599   0.550
 1498TIP3   OH2 4415   2.515   4.676  -0.105
 1498TIP3    H1 4416   2.450   4.604  -0.113
 1498TIP3    H2 4417   2.563   4.666  -0.189
 1499TIP3   OH2 4418   3.641   6.323   0.838
 1499TIP3    H1 4419   3.638   6.347   0.744
 1499TIP3    H2 4420   3.720   6.372   0.868
 1500TIP3   OH2 4421   2.593   5.435   1.248
 1500TIP3    H1 4422   2.672   5.464   1.298
 1500TIP3    H2 4423   2.527   5.432   1.320
 1501TIP3   OH2 4424   3.053   4.886   0.513
 1501TIP3    H1 4425   3.090   4.813   0.461
 1501TIP3    H2 4426   3.048   4.844   0.602
 1502TIP3   OH2 4427   2.576   4.374   0.387
 1502TIP3    H1 4428   2.539   4.297   0.435
 1502TIP3    H2 4429   2.605   4.334   0.304
 1503TIP3   OH2 4430   3.031   4.800   0.781
 1503TIP3    H1 4431   2.939   4.824   0.806
 1503TIP3    H2 4432   3.085   4.856   0.839
 1504TIP3   OH2 4433   2.760   5.170  -0.106
 1504TIP3    H1 4434   2.691   5.102  -0.117
 1504TIP3    H2 4435   2.742   5.202  -0.014
 1505TIP3   OH2 4436   3.668   5.418   0.518
 1505TIP3    H1 4437   3.700   5.467   0.438
 1505TIP3    H2 4438   3.582   5.383   0.487
 1506TIP3   OH2 4439   3.250   4.489  -0.268
 1506TIP3    H1 4440   3.159   4.452  -0.259
 1506TIP3    H2 4441   3.239   4.579  -0.235
 1507TIP3   OH2 4442   3.166   5.497   0.886
 1507TIP3    H1 4443   3.194   5.474   0.976
 1507TIP3    H2 4444   3.127   5.585   0.898
 1508TIP3   OH2 4445   3.294   4.738  -0.134
 1508TIP3    H1 4446   3.390   4.742  -0.113
 1508TIP3    H2 4447   3.279   4.818  -0.187
 1509TIP3   OH2 4448   2.468   5.206   0.563
 1509TIP3    H1 4449   2.503   5.170   0.479
 1509TIP3    H2 4450   2.497   5.139   0.627
 1510TIP3   OH2 4451   2.879   5.368  -0.251
 1510TIP3    H1 4452   2.813   5.437  -0.239
 1510TIP3    H2 4453   2.831   5.288  -0.219
 1511TIP3   OH2 4454   2.346   5.114   1.177
 1511TIP3    H1 4455   2.356   5.098   1.273
 1511TIP3    H2 4456   2.273   5.052   1.156
 1512TIP3   OH2 4457   3.070   5.235   1.197
 1512TIP3    H1 4458   3.006   5.174   1.157
 1512TIP3    H2 4459   3.155   5.196   1.168
 1513TIP3   OH2 4460   3.325   5.749   0.784
 1513TIP3    H1 4461   3.229   5.752   0.800
 1513TIP3    H2 4462   3.356   5.803   0.860
 1514TIP3   OH2 4463   3.961   5.681   0.764
 1514TIP3    H1 4464   3.862   5.677   0.758
 1514TIP3    H2 4465   3.985   5.654   0.674
 1515TIP3   OH2 4466   3.438   5.271   0.447
 1515TIP3    H1 4467   3.384   5.256   0.526
 1515TIP3    H2 4468   3.494   5.192   0.444
 1516TIP3   OH2 4469   2.561   5.503   0.190
 1516TIP3    H1 4470   2.552   5.586   0.139
 1516TIP3    H2 4471   2.469   5.480   0.205
 1517TIP3   OH2 4472   2.127   4.810  -0.105
 1517TIP3    H1 4473   2.174   4.892  -0.081
 1517TIP3    H2 4474   2.053   4.810  -0.041
 1518TIP3   OH2 4475   2.699   5.268   0.139
 1518TIP3    H1 4476   2.660   5.356   0.157
 1518TIP3    H2 4477   2.660   5.214   0.211
 1519TIP3   OH2 4478   2.834   5.845   0.657
 1519TIP3    H1 4479   2.875   5.919   0.608
 1519TIP3    H2 4480   2.910   5.810   0.707
 1520TIP3   OH2 4481   2.487   5.744   0.054
 1520TIP3    H1 4482   2.399   5.747   0.096
 1520TIP3    H2 4483   2.511   5.840   0.057
 1521TIP3   OH2 4484   3.220   5.466   0.624
 1521TIP3    H1 4485   3.194   5.473   0.719
 1521TIP3    H2 4486   3.316   5.461   0.634
 1522TIP3   OH2 4487   3.466   6.008   0.664
 1522TIP3    H1 4488   3.385   5.955   0.659
 1522TIP3    H2 4489   3.449   6.074   0.593
 1523TIP3   OH2 4490   2.548   4.624   1.182
 1523TIP3    H1 4491   2.451   4.628   1.192
 1523TIP3    H2 4492   2.574   4.567   1.255
 1524TIP3   OH2 4493   2.272   5.705   0.814
 1524TIP3    H1 4494   2.325   5.635   0.854
 1524TIP3    H2 4495   2.292   5.780   0.872
 1525TIP3   OH2 4496   2.506   5.362  -0.236
 1525TIP3    H1 4497   2.567   5.333  -0.168
 1525TIP3    H2 4498   2.493   5.457  -0.215
 1526TIP3   OH2 4499   2.242   5.051  -0.019
 1526TIP3    H1 4500   2.178   5.095   0.041
 1526TIP3    H2 4501   2.254   5.121  -0.086
 1527TIP3   OH2 4502   3.377   4.699   0.887
 1527TIP3    H1 4503   3.469   4.723   0.906
 1527TIP3    H2 4504   3.368   4.612   0.933
 1528TIP3   OH2 4505   3.261   4.427   0.031
 1528TIP3    H1 4506   3.265   4.473  -0.055
 1528TIP3    H2 4507   3.310   4.486   0.091
 1529TIP3   OH2 4508   2.954   4.622   0.141
 1529TIP3    H1 4509   3.026   4.685   0.122
 1529TIP3    H2 4510   2.962   4.612   0.239
 1530TIP3   OH2 4511   3.236   4.943   0.929
 1530TIP3    H1 4512   3.260   4.984   1.015
 1530TIP3    H2 4513   3.281   4.856   0.934
 1531TIP3   OH2 4514   3.100   4.337   0.238
 1531TIP3    H1 4515   3.115   4.411   0.299
 1531TIP3    H2 4516   3.159   4.365   0.164
 1532TIP3   OH2 4517   2.480   5.624  -0.190
 1532TIP3    H1 4518   2.537   5.672  -0.253
 1532TIP3    H2 4519   2.486   5.676  -0.107
 1533TIP3   OH2 4520   2.618   4.336   0.059
 1533TIP3    H1 4521   2.621   4.432   0.074
 1533TIP3    H2 4522   2.713   4.318   0.043
 1534TIP3   OH2 4523   3.868   4.832   0.919
 1534TIP3    H1 4524   3.771   4.839   0.933
 1534TIP3    H2 4525   3.869   4.780   0.838
 1535TIP3   OH2 4526   3.502   5.026   0.317
 1535TIP3    H1 4527   3.454   4.941   0.323
 1535TIP3    H2 4528   3.587   4.998   0.360
 1536TIP3   OH2 4529   2.247   5.254  -0.212
 1536TIP3    H1 4530   2.313   5.326  -0.213
 1536TIP3    H2 4531   2.290   5.195  -0.278
 1537TIP3   OH2 4532   2.191   4.546  -0.081
 1537TIP3    H1 4533   2.182   4.642  -0.094
 1537TIP3    H2 4534   2.124   4.512  -0.141
 1538TIP3   OH2 4535   3.493   5.991   0.260
 1538TIP3    H1 4536   3.447   6.034   0.185
 1538TIP3    H2 4537   3.584   6.023   0.244
 1539TIP3   OH2 4538   2.564   4.255   0.785
 1539TIP3    H1 4539   2.533   4.222   0.698
 1539TIP3    H2 4540   2.553   4.176   0.842
 1540TIP3   OH2 4541   2.113   5.477   0.176
 1540TIP3    H1 4542   2.048   5.498   0.244
 1540TIP3    H2 4543   2.067   5.513   0.096
 1541TIP3   OH2 4544   2.264   6.024   1.239
 1541TIP3    H1 4545   2.350   6.024   1.287
 1541TIP3    H2 4546   2.243   5.929   1.239
 1542TIP3   OH2 4547   2.738   5.975   1.285
 1542TIP3    H1 4548   2.833   5.958   1.291
 1542TIP3    H2 4549   2.712   5.913   1.214
 1543TIP3   OH2 4550   3.385   5.884   1.014
 1543TIP3    H1 4551   3.376   5.817   1.086
 1543TIP3    H2 4552   3.459   5.939   1.047
 1544TIP3   OH2 4553   2.391   5.425   1.439
 1544TIP3    H1 4554   2.406   5.329   1.447
 1544TIP3    H2 4555   2.304   5.427   1.394
 1545TIP3   OH2 4556   2.391   5.076  -0.359
 1545TIP3    H1 4557   2.441   5.042  -0.282
 1545TIP3    H2 4558   2.463   5.089  -0.422
 1546TIP3   OH2 4559   2.998   5.512   1.214
 1546TIP3    H1 4560   2.955   5.531   1.129
 1546TIP3    H2 4561   3.028   5.419   1.203
 1547TIP3   OH2 4562   3.485   5.518   0.808
 1547TIP3    H1 4563   3.564   5.565   0.776
 1547TIP3    H2 4564   3.419   5.590   0.808
 1548TIP3   OH2 4565   2.512   5.164   1.425
 1548TIP3    H1 4566   2.586   5.108   1.400
 1548TIP3    H2 4567   2.541   5.195   1.514
 1549TIP3   OH2 4568   2.571   4.972  -0.153
 1549TIP3    H1 4569   2.539   4.924  -0.075
 1549TIP3    H2 4570   2.609   4.898  -0.205
 1550TIP3   OH2 4571   2.847   5.044   1.091
 1550TIP3    H1 4572   2.766   5.100   1.090
 1550TIP3    H2 4573   2.895   5.078   1.012
 1551TIP3   OH2 4574   2.687   4.773  -0.317
 1551TIP3    H1 4575   2.695   4.718  -0.396
 1551TIP3    H2 4576   2.782   4.792  -0.302
 1552TIP3   OH2 4577   3.364   5.444   1.216
 1552TIP3    H1 4578   3.444   5.411   1.175
 1552TIP3    H2 4579   3.352   5.381   1.290
 1553TIP3   OH2 4580   2.972   4.832   1.207
 1553TIP3    H1 4581   2.970   4.754   1.147
 1553TIP3    H2 4582   2.925   4.900   1.153
 1554TIP3   OH2 4583   2.973   4.621   1.015
 1554TIP3    H1 4584   3.000   4.655   0.928
 1554TIP3    H2 4585   2.879   4.596   0.998
 1555TIP3   OH2 4586   2.991   5.153   0.894
 1555TIP3    H1 4587   3.076   5.162   0.849
 1555TIP3    H2 4588   2.934   5.218   0.847
 1556TIP3   OH2 4589   3.576   5.118   1.269
 1556TIP3    H1 4590   3.621   5.033   1.282
 1556TIP3    H2 4591   3.648   5.174   1.236
 1557TIP3   OH2 4592   3.618   5.374   1.000
 1557TIP3    H1 4593   3.560   5.428   0.942
 1557TIP3    H2 4594   3.706   5.396   0.963
 1558TIP3   OH2 4595   2.851   4.935   1.444
 1558TIP3    H1 4596   2.782   4.867   1.460
 1558TIP3    H2 4597   2.881   4.911   1.354
 1559TIP3   OH2 4598   3.103   4.381   1.090
 1559TIP3    H1 4599   3.053   4.462   1.064
 1559TIP3    H2 4600   3.035   4.311   1.076
 1560TIP3   OH2 4601   3.229   4.880   1.302
 1560TIP3    H1 4602   3.210   4.865   1.397
 1560TIP3    H2 4603   3.140   4.858   1.266
 1561TIP3   OH2 4604   3.470   4.837   1.162
 1561TIP3    H1 4605   3.393   4.834   1.222
 1561TIP3    H2 4606   3.543   4.803   1.218
 1562TIP3   OH2 4607   3.703   4.776   1.306
 1562TIP3    H1 4608   3.713   4.680   1.322
 1562TIP3    H2 4609   3.695   4.812   1.397
 1563TIP3   OH2 4610   2.687   4.717   1.498
 1563TIP3    H1 4611   2.688   4.625   1.465
 1563TIP3    H2 4612   2.724   4.705   1.588
 1564TIP3   OH2 4613   3.197   4.388   1.347
 1564TIP3    H1 4614   3.261   4.315   1.338
 1564TIP3    H2 4615   3.156   4.387   1.258
 1565TIP3   OH2 4616   3.264   4.603   1.505
 1565TIP3    H1 4617   3.242   4.532   1.441
 1565TIP3    H2 4618   3.186   4.662   1.498
 1566TIP3   OH2 4619   1.986   5.203  -0.158
 1566TIP3    H1 4620   2.073   5.241  -0.184
 1566TIP3    H2 4621   1.986   5.121  -0.210
 1567TIP3   OH2 4622   1.884   5.846   0.236
 1567TIP3    H1 4623   1.798   5.810   0.207
 1567TIP3    H2 4624   1.921   5.772   0.288
 1568TIP3   OH2 4625   2.009   5.677   0.418
 1568TIP3    H1 4626   1.997   5.607   0.484
 1568TIP3    H2 4627   2.062   5.740   0.470
 1569TIP3   OH2 4628   3.740   6.112   0.235
 1569TIP3    H1 4629   3.765   6.116   0.330
 1569TIP3    H2 4630   3.819   6.072   0.195
 1570TIP3   OH2 4631   3.772   6.091   0.508
 1570TIP3    H1 4632   3.731   6.002   0.513
 1570TIP3    H2 4633   3.854   6.075   0.557
 1571TIP3   OH2 4634   3.818   5.774   1.073
 1571TIP3    H1 4635   3.747   5.784   1.140
 1571TIP3    H2 4636   3.861   5.862   1.078
 1572TIP3   OH2 4637   3.753   5.141  -0.075
 1572TIP3    H1 4638   3.681   5.101  -0.022
 1572TIP3    H2 4639   3.806   5.189  -0.007
 1573TIP3   OH2 4640   3.817   5.542   0.332
 1573TIP3    H1 4641   3.869   5.485   0.274
 1573TIP3    H2 4642   3.821   5.626   0.281
 1574TIP3   OH2 4643   3.643   5.844   0.525
 1574TIP3    H1 4644   3.572   5.891   0.574
 1574TIP3    H2 4645   3.593   5.803   0.451
 1575TIP3   OH2 4646   3.564   4.996   0.049
 1575TIP3    H1 4647   3.564   4.902   0.019
 1575TIP3    H2 4648   3.560   4.986   0.146
 1576TIP3   OH2 4649   2.199   5.084   0.793
 1576TIP3    H1 4650   2.196   5.049   0.701
 1576TIP3    H2 4651   2.297   5.085   0.808
 1577TIP3   OH2 4652   3.867   5.439   0.900
 1577TIP3    H1 4653   3.936   5.370   0.890
 1577TIP3    H2 4654   3.897   5.508   0.839
 1578TIP3   OH2 4655   4.049   5.238   0.908
 1578TIP3    H1 4656   3.974   5.188   0.947
 1578TIP3    H2 4657   4.122   5.175   0.927
 1579TIP3   OH2 4658   3.573   4.741  -0.067
 1579TIP3    H1 4659   3.579   4.657  -0.017
 1579TIP3    H2 4660   3.647   4.727  -0.127
 1580TIP3   OH2 4661   3.727   4.947   0.433
 1580TIP3    H1 4662   3.816   4.949   0.393
 1580TIP3    H2 4663   3.750   4.953   0.528
 1581TIP3   OH2 4664   3.812   5.048   0.677
 1581TIP3    H1 4665   3.732   5.080   0.723
 1581TIP3    H2 4666   3.841   5.129   0.630
 1582TIP3   OH2 4667   2.421   4.772   1.471
 1582TIP3    H1 4668   2.519   4.764   1.473
 1582TIP3    H2 4669   2.396   4.684   1.506
 1583TIP3   OH2 4670   4.255   4.642   1.217
 1583TIP3    H1 4671   4.316   4.579   1.174
 1583TIP3    H2 4672   4.223   4.694   1.140
 1584TIP3   OH2 4673   3.676   4.482  -0.022
 1584TIP3    H1 4674   3.715   4.469   0.067
 1584TIP3    H2 4675   3.612   4.408  -0.024
 1585TIP3   OH2 4676   2.381   4.464   0.798
 1585TIP3    H1 4677   2.441   4.387   0.803
 1585TIP3    H2 4678   2.445   4.537   0.787
 1586TIP3   OH2 4679   2.180   4.736   0.867
 1586TIP3    H1 4680   2.230   4.731   0.783
 1586TIP3    H2 4681   2.211   4.820   0.902
 1587TIP3   OH2 4682   4.123   4.775   1.021
 1587TIP3    H1 4683   4.039   4.820   1.045
 1587TIP3    H2 4684   4.087   4.703   0.965
 1588TIP3   OH2 4685   2.169   4.247   0.372
 1588TIP3    H1 4686   2.076   4.236   0.400
 1588TIP3    H2 4687   2.160   4.302   0.291
 1589TIP3   OH2 4688   2.389   4.321   1.184
 1589TIP3    H1 4689   2.336   4.315   1.265
 1589TIP3    H2 4690   2.323   4.359   1.122
 1590TIP3   OH2 4691   2.426   5.750   1.258
 1590TIP3    H1 4692   2.333   5.728   1.243
 1590TIP3    H2 4693   2.437   5.730   1.352
 1591TIP3   OH2 4694   2.608   5.784   0.808
 1591TIP3    H1 4695   2.558   5.860   0.770
 1591TIP3    H2 4696   2.693   5.800   0.762
 1592TIP3   OH2 4697   3.046   6.024   0.943
 1592TIP3    H1 4698   3.087   6.023   1.032
 1592TIP3    H2 4699   3.112   6.078   0.893
 1593TIP3   OH2 4700   3.228   6.179   0.808
 1593TIP3    H1 4701   3.301   6.130   0.770
 1593TIP3    H2 4702   3.277   6.239   0.869
 1594TIP3   OH2 4703   4.021   4.538   0.905
 1594TIP3    H1 4704   3.931   4.528   0.869
 1594TIP3    H2 4705   4.054   4.446   0.895
 1595TIP3   OH2 4706   2.288   6.037   0.835
 1595TIP3    H1 4707   2.196   6.064   0.814
 1595TIP3    H2 4708   2.301   6.084   0.918
 1596TIP3   OH2 4709   2.520   6.018   0.690
 1596TIP3    H1 4710   2.433   6.029   0.736
 1596TIP3    H2 4711   2.498   6.049   0.600
 1597TIP3   OH2 4712   2.943   6.043   0.489
 1597TIP3    H1 4713   2.875   6.061   0.422
 1597TIP3    H2 4714   2.954   6.131   0.530
 1598TIP3   OH2 4715   3.211   5.979   0.536
 1598TIP3    H1 4716   3.117   6.000   0.521
 1598TIP3    H2 4717   3.254   6.057   0.498
 1599TIP3   OH2 4718   3.415   6.175   0.452
 1599TIP3    H1 4719   3.403   6.260   0.404
 1599TIP3    H2 4720   3.443   6.115   0.380
 1600TIP3   OH2 4721   2.193   5.831   0.575
 1600TIP3    H1 4722   2.218   5.801   0.665
 1600TIP3    H2 4723   2.264   5.787   0.524
 1601TIP3   OH2 4724   2.389   5.705   0.435
 1601TIP3    H1 4725   2.402   5.621   0.485
 1601TIP3    H2 4726   2.481   5.739   0.433
 1602TIP3   OH2 4727   2.658   5.796   0.441
 1602TIP3    H1 4728   2.683   5.702   0.434
 1602TIP3    H2 4729   2.705   5.819   0.523
 1603TIP3   OH2 4730   3.199   4.457   0.520
 1603TIP3    H1 4731   3.197   4.369   0.563
 1603TIP3    H2 4732   3.274   4.450   0.457
 1604TIP3   OH2 4733   3.736   4.340   0.421
 1604TIP3    H1 4734   3.786   4.387   0.351
 1604TIP3    H2 4735   3.649   4.381   0.412
 1605TIP3   OH2 4736   3.853   4.442   0.198
 1605TIP3    H1 4737   3.923   4.390   0.154
 1605TIP3    H2 4738   3.883   4.534   0.180
 1606TIP3   OH2 4739   2.472   4.165   0.539
 1606TIP3    H1 4740   2.381   4.129   0.543
 1606TIP3    H2 4741   2.523   4.081   0.535
 1607TIP3   OH2 4742   2.237   4.034   0.183
 1607TIP3    H1 4743   2.291   4.083   0.117
 1607TIP3    H2 4744   2.231   4.101   0.254
 1608TIP3   OH2 4745   2.930   4.188   0.421
 1608TIP3    H1 4746   2.979   4.236   0.352
 1608TIP3    H2 4747   2.960   4.233   0.501
 1609TIP3   OH2 4748   3.492   4.268  -0.029
 1609TIP3    H1 4749   3.402   4.306  -0.020
 1609TIP3    H2 4750   3.480   4.183   0.017
 1610TIP3   OH2 4751   1.965   5.584  -0.018
 1610TIP3    H1 4752   1.906   5.532  -0.072
 1610TIP3    H2 4753   1.949   5.674  -0.054
 1611TIP3   OH2 4754   2.391   4.176   0.007
 1611TIP3    H1 4755   2.417   4.131  -0.075
 1611TIP3    H2 4756   2.467   4.236   0.020
 1612TIP3   OH2 4757   2.898   4.373   0.041
 1612TIP3    H1 4758   2.956   4.325   0.101
 1612TIP3    H2 4759   2.916   4.465   0.071
 1613TIP3   OH2 4760   2.683   4.444   1.433
 1613TIP3    H1 4761   2.647   4.372   1.489
 1613TIP3    H2 4762   2.777   4.443   1.461
 1614TIP3   OH2 4763   2.935   4.441   1.551
 1614TIP3    H1 4764   3.019   4.414   1.511
 1614TIP3    H2 4765   2.921   4.370   1.617
 1615TIP3   OH2 4766   3.762   4.504   1.337
 1615TIP3    H1 4767   3.779   4.475   1.429
 1615TIP3    H2 4768   3.852   4.499   1.298
 1616TIP3   OH2 4769   3.697   6.054   0.827
 1616TIP3    H1 4770   3.617   6.025   0.778
 1616TIP3    H2 4771   3.678   6.149   0.838
 1617TIP3   OH2 4772   3.929   4.939  -0.135
 1617TIP3    H1 4773   3.871   5.017  -0.119
 1617TIP3    H2 4774   3.893   4.875  -0.072
 1618TIP3   OH2 4775   3.963   5.218   0.088
 1618TIP3    H1 4776   4.013   5.136   0.109
 1618TIP3    H2 4777   4.019   5.252   0.015
 1619TIP3   OH2 4778   4.517   4.796   0.101
 1619TIP3    H1 4779   4.585   4.856   0.066
 1619TIP3    H2 4780   4.482   4.756   0.020
 1620TIP3   OH2 4781   4.144   5.020   0.139
 1620TIP3    H1 4782   4.222   4.993   0.192
 1620TIP3    H2 4783   4.159   4.967   0.058
 1621TIP3   OH2 4784   4.507   4.799   0.466
 1621TIP3    H1 4785   4.445   4.835   0.401
 1621TIP3    H2 4786   4.455   4.815   0.548
 1622TIP3   OH2 4787   4.587   5.598   0.266
 1622TIP3    H1 4788   4.584   5.684   0.309
 1622TIP3    H2 4789   4.622   5.620   0.179
 1623TIP3   OH2 4790   4.359   4.924   0.273
 1623TIP3    H1 4791   4.421   4.996   0.297
 1623TIP3    H2 4792   4.415   4.874   0.209
 1624TIP3   OH2 4793   5.581   4.873   0.185
 1624TIP3    H1 4794   5.484   4.890   0.180
 1624TIP3    H2 4795   5.598   4.856   0.090
 1625TIP3   OH2 4796   4.858   4.505   0.183
 1625TIP3    H1 4797   4.842   4.410   0.200
 1625TIP3    H2 4798   4.779   4.544   0.228
 1626TIP3   OH2 4799   5.368   5.396   0.353
 1626TIP3    H1 4800   5.346   5.472   0.409
 1626TIP3    H2 4801   5.291   5.395   0.291
 1627TIP3   OH2 4802   4.490   5.348   0.194
 1627TIP3    H1 4803   4.550   5.346   0.117
 1627TIP3    H2 4804   4.530   5.422   0.245
 1628TIP3   OH2 4805   4.629   5.888   0.491
 1628TIP3    H1 4806   4.587   5.957   0.547
 1628TIP3    H2 4807   4.550   5.852   0.450
 1629TIP3   OH2 4808   4.347   5.487   0.536
 1629TIP3    H1 4809   4.379   5.548   0.605
 1629TIP3    H2 4810   4.286   5.431   0.588
 1630TIP3   OH2 4811   4.442   6.060   0.592
 1630TIP3    H1 4812   4.408   6.061   0.500
 1630TIP3    H2 4813   4.361   6.035   0.642
 1631TIP3   OH2 4814   4.030   5.582   0.516
 1631TIP3    H1 4815   3.953   5.559   0.460
 1631TIP3    H2 4816   4.053   5.495   0.556
 1632TIP3   OH2 4817   3.897   5.757   0.190
 1632TIP3    H1 4818   3.953   5.768   0.112
 1632TIP3    H2 4819   3.905   5.843   0.233
 1633TIP3   OH2 4820   4.866   5.994   0.392
 1633TIP3    H1 4821   4.846   6.088   0.387
 1633TIP3    H2 4822   4.779   5.957   0.419
 1634TIP3   OH2 4823   5.606   5.349   0.488
 1634TIP3    H1 4824   5.522   5.356   0.439
 1634TIP3    H2 4825   5.631   5.256   0.472
 1635TIP3   OH2 4826   4.245   5.751   0.480
 1635TIP3    H1 4827   4.299   5.753   0.562
 1635TIP3    H2 4828   4.161   5.715   0.515
 1636TIP3   OH2 4829   4.624   4.584   0.304
 1636TIP3    H1 4830   4.532   4.557   0.282
 1636TIP3    H2 4831   4.605   4.675   0.335
 1637TIP3   OH2 4832   5.163   4.707   0.500
 1637TIP3    H1 4833   5.234   4.673   0.559
 1637TIP3    H2 4834   5.081   4.679   0.547
 1638TIP3   OH2 4835   5.397   5.128   0.415
 1638TIP3    H1 4836   5.345   5.131   0.498
 1638TIP3    H2 4837   5.378   5.216   0.377
 1639TIP3   OH2 4838   4.551   5.113   0.320
 1639TIP3    H1 4839   4.511   5.128   0.408
 1639TIP3    H2 4840   4.534   5.200   0.279
 1640TIP3   OH2 4841   4.378   5.122   0.533
 1640TIP3    H1 4842   4.426   5.181   0.593
 1640TIP3    H2 4843   4.363   5.043   0.588
 1641TIP3   OH2 4844   3.957   4.681   0.112
 1641TIP3    H1 4845   4.043   4.694   0.157
 1641TIP3    H2 4846   3.982   4.650   0.022
 1642TIP3   OH2 4847   5.125   5.360   0.218
 1642TIP3    H1 4848   5.109   5.299   0.144
 1642TIP3    H2 4849   5.084   5.311   0.292
 1643TIP3   OH2 4850   4.190   4.872  -0.083
 1643TIP3    H1 4851   4.107   4.896  -0.129
 1643TIP3    H2 4852   4.205   4.782  -0.115
 1644TIP3   OH2 4853   5.313   4.880   0.146
 1644TIP3    H1 4854   5.237   4.899   0.203
 1644TIP3    H2 4855   5.269   4.854   0.064
 1645TIP3   OH2 4856   4.392   5.696   0.726
 1645TIP3    H1 4857   4.470   5.720   0.779
 1645TIP3    H2 4858   4.324   5.693   0.796
 1646TIP3   OH2 4859   4.819   5.032   0.306
 1646TIP3    H1 4860   4.734   5.078   0.306
 1646TIP3    H2 4861   4.883   5.102   0.326
 1647TIP3   OH2 4862   4.949   5.716   0.352
 1647TIP3    H1 4863   4.970   5.669   0.435
 1647TIP3    H2 4864   4.941   5.808   0.380
 1648TIP3   OH2 4865   4.243   5.457   0.136
 1648TIP3    H1 4866   4.202   5.453   0.048
 1648TIP3    H2 4867   4.322   5.400   0.124
 1649TIP3   OH2 4868   4.134   5.374   0.670
 1649TIP3    H1 4869   4.157   5.358   0.764
 1649TIP3    H2 4870   4.070   5.302   0.655
 1650TIP3   OH2 4871   5.136   5.958   0.313
 1650TIP3    H1 4872   5.040   5.968   0.299
 1650TIP3    H2 4873   5.168   6.048   0.294
 1651TIP3   OH2 4874   4.338   4.880   0.672
 1651TIP3    H1 4875   4.241   4.890   0.680
 1651TIP3    H2 4876   4.358   4.821   0.747
 1652TIP3   OH2 4877   4.067   5.970   0.330
 1652TIP3    H1 4878   4.141   5.914   0.361
 1652TIP3    H2 4879   4.084   6.055   0.374
 1653TIP3   OH2 4880   5.167   4.964   0.387
 1653TIP3    H1 4881   5.262   4.986   0.391
 1653TIP3    H2 4882   5.165   4.874   0.424
 1654TIP3   OH2 4883   5.023   5.209   0.422
 1654TIP3    H1 4884   5.040   5.248   0.509
 1654TIP3    H2 4885   5.073   5.124   0.426
 1655TIP3   OH2 4886   5.664   5.091   0.396
 1655TIP3    H1 4887   5.566   5.090   0.405
 1655TIP3    H2 4888   5.673   5.034   0.318
 1656TIP3   OH2 4889   4.359   4.514   0.282
 1656TIP3    H1 4890   4.329   4.484   0.193
 1656TIP3    H2 4891   4.348   4.433   0.335
 1657TIP3   OH2 4892   4.059   6.282   0.729
 1657TIP3    H1 4893   4.145   6.284   0.778
 1657TIP3    H2 4894   4.042   6.186   0.726
 1658TIP3   OH2 4895   4.531   6.236   0.783
 1658TIP3    H1 4896   4.627   6.240   0.779
 1658TIP3    H2 4897   4.508   6.174   0.711
 1659TIP3   OH2 4898   5.168   6.162   0.536
 1659TIP3    H1 4899   5.200   6.071   0.526
 1659TIP3    H2 4900   5.251   6.213   0.539
 1660TIP3   OH2 4901   4.190   5.682   0.922
 1660TIP3    H1 4902   4.205   5.587   0.937
 1660TIP3    H2 4903   4.102   5.682   0.878
 1661TIP3   OH2 4904   4.797   5.774   0.697
 1661TIP3    H1 4905   4.757   5.779   0.608
 1661TIP3    H2 4906   4.850   5.691   0.688
 1662TIP3   OH2 4907   5.325   5.767   0.302
 1662TIP3    H1 4908   5.352   5.784   0.211
 1662TIP3    H2 4909   5.250   5.830   0.310
 1663TIP3   OH2 4910   4.319   5.413   0.905
 1663TIP3    H1 4911   4.394   5.354   0.891
 1663TIP3    H2 4912   4.340   5.449   0.994
 1664TIP3   OH2 4913   4.635   5.279   0.557
 1664TIP3    H1 4914   4.596   5.365   0.576
 1664TIP3    H2 4915   4.701   5.304   0.489
 1665TIP3   OH2 4916   4.759   5.084   0.701
 1665TIP3    H1 4917   4.759   5.006   0.641
 1665TIP3    H2 4918   4.714   5.151   0.644
 1666TIP3   OH2 4919   4.763   4.873   0.521
 1666TIP3    H1 4920   4.794   4.916   0.439
 1666TIP3    H2 4921   4.671   4.847   0.496
 1667TIP3   OH2 4922   4.779   5.379   0.338
 1667TIP3    H1 4923   4.871   5.382   0.370
 1667TIP3    H2 4924   4.755   5.473   0.336
 1668TIP3   OH2 4925   5.412   5.382   0.789
 1668TIP3    H1 4926   5.430   5.293   0.756
 1668TIP3    H2 4927   5.447   5.436   0.718
 1669TIP3   OH2 4928   5.438   5.637   0.507
 1669TIP3    H1 4929   5.383   5.684   0.440
 1669TIP3    H2 4930   5.527   5.660   0.474
 1670TIP3   OH2 4931   4.612   5.213   0.917
 1670TIP3    H1 4932   4.564   5.132   0.945
 1670TIP3    H2 4933   4.666   5.178   0.844
 1671TIP3   OH2 4934   4.905   4.641   0.581
 1671TIP3    H1 4935   4.850   4.718   0.559
 1671TIP3    H2 4936   4.841   4.568   0.577
 1672TIP3   OH2 4937   5.015   5.110   0.801
 1672TIP3    H1 4938   5.040   5.199   0.829
 1672TIP3    H2 4939   4.931   5.126   0.751
 1673TIP3   OH2 4940   5.269   5.115   0.654
 1673TIP3    H1 4941   5.194   5.088   0.709
 1673TIP3    H2 4942   5.345   5.074   0.701
 1674TIP3   OH2 4943   5.483   5.031   0.801
 1674TIP3    H1 4944   5.507   4.936   0.811
 1674TIP3    H2 4945   5.493   5.065   0.892
 1675TIP3   OH2 4946   4.485   4.972   0.987
 1675TIP3    H1 4947   4.486   4.877   0.960
 1675TIP3    H2 4948   4.525   4.965   1.076
 1676TIP3   OH2 4949   5.606   6.041   0.548
 1676TIP3    H1 4950   5.543   6.046   0.623
 1676TIP3    H2 4951   5.655   6.125   0.558
 1677TIP3   OH2 4952   4.033   5.352   0.309
 1677TIP3    H1 4953   3.986   5.316   0.230
 1677TIP3    H2 4954   4.123   5.328   0.284
 1678TIP3   OH2 4955   5.689   5.709   0.415
 1678TIP3    H1 4956   5.749   5.631   0.420
 1678TIP3    H2 4957   5.737   5.761   0.347
 1679TIP3   OH2 4958   5.827   5.483   0.422
 1679TIP3    H1 4959   5.746   5.432   0.445
 1679TIP3    H2 4960   5.896   5.418   0.450
 1680TIP3   OH2 4961   4.219   5.030   0.958
 1680TIP3    H1 4962   4.317   5.024   0.960
 1680TIP3    H2 4963   4.195   4.943   0.993
 1681TIP3   OH2 4964   6.047   4.898   0.710
 1681TIP3    H1 4965   6.106   4.830   0.670
 1681TIP3    H2 4966   6.018   4.948   0.631
 1682TIP3   OH2 4967   4.172   4.717   0.288
 1682TIP3    H1 4968   4.236   4.644   0.292
 1682TIP3    H2 4969   4.231   4.794   0.292
 1683TIP3   OH2 4970   3.984   4.986   0.362
 1683TIP3    H1 4971   4.030   4.977   0.275
 1683TIP3    H2 4972   4.036   5.055   0.404
 1684TIP3   OH2 4973   5.910   5.030   0.512
 1684TIP3    H1 4974   5.823   5.073   0.502
 1684TIP3    H2 4975   5.893   4.950   0.458
 1685TIP3   OH2 4976   3.945   4.564  -0.139
 1685TIP3    H1 4977   3.867   4.509  -0.121
 1685TIP3    H2 4978   4.002   4.504  -0.192
 1686TIP3   OH2 4979   4.183   4.578   0.673
 1686TIP3    H1 4980   4.129   4.574   0.753
 1686TIP3    H2 4981   4.120   4.617   0.610
 1687TIP3   OH2 4982   4.221   5.997   0.741
 1687TIP3    H1 4983   4.125   5.983   0.732
 1687TIP3    H2 4984   4.234   5.983   0.836
 1688TIP3   OH2 4985   4.393   6.035   0.321
 1688TIP3    H1 4986   4.343   6.086   0.254
 1688TIP3    H2 4987   4.480   6.031   0.277
 1689TIP3   OH2 4988   4.864   6.345   0.451
 1689TIP3    H1 4989   4.888   6.311   0.540
 1689TIP3    H2 4990   4.938   6.406   0.435
 1690TIP3   OH2 4991   5.820   4.791   0.406
 1690TIP3    H1 4992   5.744   4.791   0.345
 1690TIP3    H2 4993   5.863   4.706   0.383
 1691TIP3   OH2 4994   4.068   6.266   0.373
 1691TIP3    H1 4995   4.004   6.332   0.341
 1691TIP3    H2 4996   4.140   6.324   0.403
 1692TIP3   OH2 4997   4.024   6.090   0.086
 1692TIP3    H1 4998   4.053   6.054   0.173
 1692TIP3    H2 4999   4.099   6.067   0.029
 1693TIP3   OH2 5000   5.047   4.697   0.070
 1693TIP3    H1 5001   4.976   4.654   0.121
 1693TIP3    H2 5002   5.065   4.627   0.005
 1694TIP3   OH2 5003   4.269   4.422   0.044
 1694TIP3    H1 5004   4.178   4.387   0.038
 1694TIP3    H2 5005   4.320   4.341   0.027
 1695TIP3   OH2 5006   4.668   4.435  -0.049
 1695TIP3    H1 5007   4.661   4.500  -0.122
 1695TIP3    H2 5008   4.670   4.491   0.029
 1696TIP3   OH2 5009   4.489   4.699   0.931
 1696TIP3    H1 5010   4.455   4.630   0.992
 1696TIP3    H2 5011   4.572   4.658   0.901
 1697TIP3   OH2 5012   5.562   4.769   0.827
 1697TIP3    H1 5013   5.577   4.733   0.917
 1697TIP3    H2 5014   5.651   4.759   0.787
 1698TIP3   OH2 5015   6.081   5.683   0.453
 1698TIP3    H1 5016   6.099   5.588   0.448
 1698TIP3    H2 5017   6.113   5.708   0.542
 1699TIP3   OH2 5018   6.269   5.249   0.499
 1699TIP3    H1 5019   6.258   5.160   0.460
 1699TIP3    H2 5020   6.311   5.227   0.584
 1700TIP3   OH2 5021   6.860   5.116   0.530
 1700TIP3    H1 5022   6.834   5.074   0.446
 1700TIP3    H2 5023   6.789   5.183   0.536
 1701TIP3   OH2 5024   6.004   5.297   0.493
 1701TIP3    H1 5025   6.100   5.288   0.479
 1701TIP3    H2 5026   5.978   5.203   0.499
 1702TIP3   OH2 5027   6.264   4.968   0.469
 1702TIP3    H1 5028   6.226   4.887   0.508
 1702TIP3    H2 5029   6.359   4.953   0.488
 1703TIP3   OH2 5030   6.532   4.951   0.527
 1703TIP3    H1 5031   6.613   4.908   0.495
 1703TIP3    H2 5032   6.508   4.888   0.598
 1704TIP3   OH2 5033   0.302   5.958   1.854
 1704TIP3    H1 5034   0.359   5.880   1.839
 1704TIP3    H2 5035   0.302   5.999   1.766
 1705TIP3   OH2 5036   1.845   6.265   0.692
 1705TIP3    H1 5037   1.869   6.352   0.731
 1705TIP3    H2 5038   1.826   6.289   0.600
 1706TIP3   OH2 5039   1.899   6.484   0.855
 1706TIP3    H1 5040   1.821   6.539   0.835
 1706TIP3    H2 5041   1.901   6.493   0.952
 1707TIP3   OH2 5042   1.655   6.187   0.876
 1707TIP3    H1 5043   1.567   6.165   0.838
 1707TIP3    H2 5044   1.706   6.212   0.797
 1708TIP3   OH2 5045   1.434   6.678   1.022
 1708TIP3    H1 5046   1.416   6.759   1.073
 1708TIP3    H2 5047   1.347   6.665   0.980
 1709TIP3   OH2 5048   1.678   6.654   1.164
 1709TIP3    H1 5049   1.591   6.663   1.120
 1709TIP3    H2 5050   1.697   6.559   1.149
 1710TIP3   OH2 5051   1.211   5.998   1.154
 1710TIP3    H1 5052   1.282   5.969   1.216
 1710TIP3    H2 5053   1.129   5.981   1.204
 1711TIP3   OH2 5054   1.443   6.412   1.096
 1711TIP3    H1 5055   1.404   6.423   1.186
 1711TIP3    H2 5056   1.426   6.500   1.059
 1712TIP3   OH2 5057   1.141   6.660   1.338
 1712TIP3    H1 5058   1.138   6.577   1.388
 1712TIP3    H2 5059   1.235   6.682   1.341
 1713TIP3   OH2 5060   1.415   6.077   0.796
 1713TIP3    H1 5061   1.333   6.089   0.847
 1713TIP3    H2 5062   1.380   6.084   0.706
 1714TIP3   OH2 5063   1.790   7.233   0.919
 1714TIP3    H1 5064   1.726   7.296   0.955
 1714TIP3    H2 5065   1.819   7.276   0.837
 1715TIP3   OH2 5066   1.203   6.271   1.116
 1715TIP3    H1 5067   1.294   6.295   1.091
 1715TIP3    H2 5068   1.210   6.174   1.126
 1716TIP3   OH2 5069   1.165   6.544   1.082
 1716TIP3    H1 5070   1.144   6.592   1.164
 1716TIP3    H2 5071   1.163   6.451   1.110
 1717TIP3   OH2 5072   1.709   6.387   1.069
 1717TIP3    H1 5073   1.613   6.386   1.089
 1717TIP3    H2 5074   1.708   6.321   0.997
 1718TIP3   OH2 5075   1.247   7.027   1.404
 1718TIP3    H1 5076   1.322   6.997   1.351
 1718TIP3    H2 5077   1.220   6.945   1.449
 1719TIP3   OH2 5078   1.421   6.693   1.430
 1719TIP3    H1 5079   1.437   6.599   1.410
 1719TIP3    H2 5080   1.500   6.736   1.393
 1720TIP3   OH2 5081   1.484   6.937   1.169
 1720TIP3    H1 5082   1.430   6.999   1.116
 1720TIP3    H2 5083   1.569   6.944   1.121
 1721TIP3   OH2 5084   7.534   3.075   8.465
 1721TIP3    H1 5085   7.452   3.022   8.470
 1721TIP3    H2 5086   7.543   3.083   8.368
 1722TIP3   OH2 5087   0.944   5.951   1.237
 1722TIP3    H1 5088   0.886   6.021   1.206
 1722TIP3    H2 5089   0.886   5.873   1.223
 1723TIP3   OH2 5090   1.081   6.423   1.467
 1723TIP3    H1 5091   1.116   6.445   1.556
 1723TIP3    H2 5092   1.023   6.350   1.491
 1724TIP3   OH2 5093   1.343   6.434   1.345
 1724TIP3    H1 5094   1.260   6.392   1.374
 1724TIP3    H2 5095   1.412   6.380   1.390
 1725TIP3   OH2 5096   1.562   6.329   1.469
 1725TIP3    H1 5097   1.568   6.232   1.483
 1725TIP3    H2 5098   1.550   6.364   1.559
 1726TIP3   OH2 5099   0.519   6.284   1.725
 1726TIP3    H1 5100   0.518   6.201   1.674
 1726TIP3    H2 5101   0.569   6.253   1.804
 1727TIP3   OH2 5102   1.037   5.948   1.498
 1727TIP3    H1 5103   1.102   5.875   1.490
 1727TIP3    H2 5104   0.997   5.946   1.408
 1728TIP3   OH2 5105   1.104   6.161   1.652
 1728TIP3    H1 5106   1.084   6.086   1.592
 1728TIP3    H2 5107   1.018   6.208   1.656
 1729TIP3   OH2 5108   1.640   7.324   1.223
 1729TIP3    H1 5109   1.574   7.329   1.297
 1729TIP3    H2 5110   1.687   7.409   1.236
 1730TIP3   OH2 5111   1.713   6.992   1.035
 1730TIP3    H1 5112   1.784   6.924   1.029
 1730TIP3    H2 5113   1.746   7.062   0.975
 1731TIP3   OH2 5114   1.889   6.789   1.060
 1731TIP3    H1 5115   1.815   6.741   1.105
 1731TIP3    H2 5116   1.963   6.728   1.080
 1732TIP3   OH2 5117   1.625   6.461   0.615
 1732TIP3    H1 5118   1.698   6.497   0.562
 1732TIP3    H2 5119   1.644   6.502   0.702
 1733TIP3   OH2 5120   1.648   6.625   0.832
 1733TIP3    H1 5121   1.575   6.627   0.897
 1733TIP3    H2 5122   1.628   6.704   0.779
 1734TIP3   OH2 5123   2.096   6.199   1.368
 1734TIP3    H1 5124   2.156   6.134   1.327
 1734TIP3    H2 5125   2.064   6.250   1.290
 1735TIP3   OH2 5126   1.965   6.333   1.170
 1735TIP3    H1 5127   1.881   6.376   1.196
 1735TIP3    H2 5128   1.929   6.259   1.117
 1736TIP3   OH2 5129   1.866   6.094   1.058
 1736TIP3    H1 5130   1.779   6.093   1.014
 1736TIP3    H2 5131   1.895   6.001   1.047
 1737TIP3   OH2 5132   1.574   5.870   0.568
 1737TIP3    H1 5133   1.626   5.936   0.518
 1737TIP3    H2 5134   1.482   5.902   0.556
 1738TIP3   OH2 5135   1.724   6.015   0.390
 1738TIP3    H1 5136   1.794   5.956   0.354
 1738TIP3    H2 5137   1.749   6.099   0.346
 1739TIP3   OH2 5138   0.549   6.008   1.619
 1739TIP3    H1 5139   0.513   5.921   1.645
 1739TIP3    H2 5140   0.642   6.000   1.647
 1740TIP3   OH2 5141   0.807   6.001   1.721
 1740TIP3    H1 5142   0.884   5.967   1.672
 1740TIP3    H2 5143   0.790   5.927   1.783
 1741TIP3   OH2 5144   1.603   6.057   1.488
 1741TIP3    H1 5145   1.621   6.026   1.580
 1741TIP3    H2 5146   1.693   6.053   1.448
 1742TIP3   OH2 5147   2.827   6.961   0.121
 1742TIP3    H1 5148   2.846   6.964   0.216
 1742TIP3    H2 5149   2.774   6.879   0.117
 1743TIP3   OH2 5150   2.131   6.856   0.508
 1743TIP3    H1 5151   2.147   6.788   0.576
 1743TIP3    H2 5152   2.220   6.892   0.498
 1744TIP3   OH2 5153   2.629   7.171   0.233
 1744TIP3    H1 5154   2.584   7.191   0.148
 1744TIP3    H2 5155   2.713   7.218   0.225
 1745TIP3   OH2 5156   3.654   6.540   0.113
 1745TIP3    H1 5157   3.678   6.602   0.185
 1745TIP3    H2 5158   3.563   6.573   0.097
 1746TIP3   OH2 5159   3.027   6.712   0.210
 1746TIP3    H1 5160   3.057   6.621   0.222
 1746TIP3    H2 5161   3.058   6.735   0.121
 1747TIP3   OH2 5162   2.344   6.398   0.159
 1747TIP3    H1 5163   2.351   6.460   0.084
 1747TIP3    H2 5164   2.312   6.317   0.115
 1748TIP3   OH2 5165   1.997   6.585   0.288
 1748TIP3    H1 5166   2.083   6.555   0.325
 1748TIP3    H2 5167   2.019   6.608   0.196
 1749TIP3   OH2 5168   2.446   6.671   0.036
 1749TIP3    H1 5169   2.539   6.684   0.065
 1749TIP3    H2 5170   2.399   6.727   0.100
 1750TIP3   OH2 5171   3.660   6.709   0.349
 1750TIP3    H1 5172   3.593   6.777   0.327
 1750TIP3    H2 5173   3.718   6.759   0.409
 1751TIP3   OH2 5174   2.355   6.350   0.615
 1751TIP3    H1 5175   2.295   6.388   0.547
 1751TIP3    H2 5176   2.302   6.366   0.696
 1752TIP3   OH2 5177   2.442   7.124   0.418
 1752TIP3    H1 5178   2.400   7.207   0.445
 1752TIP3    H2 5179   2.502   7.155   0.345
 1753TIP3   OH2 5180   3.238   6.413   0.013
 1753TIP3    H1 5181   3.197   6.407   0.101
 1753TIP3    H2 5182   3.285   6.498   0.017
 1754TIP3   OH2 5183   2.229   6.468   0.397
 1754TIP3    H1 5184   2.290   6.540   0.425
 1754TIP3    H2 5185   2.276   6.436   0.317
 1755TIP3   OH2 5186   2.293   7.344   0.493
 1755TIP3    H1 5187   2.249   7.354   0.407
 1755TIP3    H2 5188   2.217   7.329   0.553
 1756TIP3   OH2 5189   3.396   6.424   0.331
 1756TIP3    H1 5190   3.303   6.450   0.324
 1756TIP3    H2 5191   3.435   6.477   0.259
 1757TIP3   OH2 5192   2.698   6.067   0.322
 1757TIP3    H1 5193   2.685   5.974   0.346
 1757TIP3    H2 5194   2.623   6.109   0.370
 1758TIP3   OH2 5195   3.357   7.399   0.320
 1758TIP3    H1 5196   3.362   7.334   0.248
 1758TIP3    H2 5197   3.349   7.483   0.269
 1759TIP3   OH2 5198   3.214   6.958   0.469
 1759TIP3    H1 5199   3.210   7.039   0.523
 1759TIP3    H2 5200   3.126   6.962   0.425
 1760TIP3   OH2 5201   2.370   6.884   0.318
 1760TIP3    H1 5202   2.361   6.911   0.224
 1760TIP3    H2 5203   2.400   6.970   0.355
 1761TIP3   OH2 5204   2.867   7.568   0.214
 1761TIP3    H1 5205   2.773   7.585   0.211
 1761TIP3    H2 5206   2.872   7.472   0.234
 1762TIP3   OH2 5207   2.496   7.446   0.649
 1762TIP3    H1 5208   2.438   7.511   0.694
 1762TIP3    H2 5209   2.431   7.402   0.591
 1763TIP3   OH2 5210   2.252   6.998   0.754
 1763TIP3    H1 5211   2.254   7.086   0.798
 1763TIP3    H2 5212   2.156   6.981   0.754
 1764TIP3   OH2 5213   2.288   7.610   0.732
 1764TIP3    H1 5214   2.225   7.601   0.660
 1764TIP3    H2 5215   2.234   7.578   0.808
 1765TIP3   OH2 5216   3.582   7.762   0.389
 1765TIP3    H1 5217   3.569   7.674   0.432
 1765TIP3    H2 5218   3.501   7.809   0.417
 1766TIP3   OH2 5219   2.682   7.558   0.482
 1766TIP3    H1 5220   2.697   7.650   0.513
 1766TIP3    H2 5221   2.616   7.525   0.547
 1767TIP3   OH2 5222   3.463   6.907   0.635
 1767TIP3    H1 5223   3.377   6.918   0.592
 1767TIP3    H2 5224   3.474   6.810   0.635
 1768TIP3   OH2 5225   2.087   7.321   0.667
 1768TIP3    H1 5226   2.138   7.315   0.751
 1768TIP3    H2 5227   2.014   7.260   0.685
 1769TIP3   OH2 5228   2.466   6.152   0.453
 1769TIP3    H1 5229   2.377   6.120   0.426
 1769TIP3    H2 5230   2.439   6.228   0.508
 1770TIP3   OH2 5231   3.003   6.261   0.648
 1770TIP3    H1 5232   3.071   6.235   0.713
 1770TIP3    H2 5233   2.919   6.243   0.695
 1771TIP3   OH2 5234   3.234   6.694   0.561
 1771TIP3    H1 5235   3.187   6.691   0.647
 1771TIP3    H2 5236   3.209   6.782   0.527
 1772TIP3   OH2 5237   2.404   6.665   0.471
 1772TIP3    H1 5238   2.359   6.691   0.554
 1772TIP3    H2 5239   2.392   6.746   0.415
 1773TIP3   OH2 5240   2.949   6.910   0.793
 1773TIP3    H1 5241   2.926   6.839   0.857
 1773TIP3    H2 5242   3.042   6.927   0.818
 1774TIP3   OH2 5243   2.231   6.679   0.694
 1774TIP3    H1 5244   2.266   6.738   0.762
 1774TIP3    H2 5245   2.216   6.596   0.744
 1775TIP3   OH2 5246   1.838   6.208   0.232
 1775TIP3    H1 5247   1.912   6.230   0.294
 1775TIP3    H2 5248   1.885   6.176   0.154
 1776TIP3   OH2 5249   2.944   6.910   0.374
 1776TIP3    H1 5250   2.974   6.837   0.315
 1776TIP3    H2 5251   2.908   6.858   0.449
 1777TIP3   OH2 5252   2.624   6.397   0.097
 1777TIP3    H1 5253   2.538   6.406   0.142
 1777TIP3    H2 5254   2.686   6.381   0.170
 1778TIP3   OH2 5255   3.101   6.442   0.259
 1778TIP3    H1 5256   3.073   6.465   0.351
 1778TIP3    H2 5257   3.024   6.387   0.234
 1779TIP3   OH2 5258   2.234   7.243   0.891
 1779TIP3    H1 5259   2.314   7.276   0.939
 1779TIP3    H2 5260   2.166   7.258   0.960
 1780TIP3   OH2 5261   2.699   6.699   0.151
 1780TIP3    H1 5262   2.728   6.618   0.108
 1780TIP3    H2 5263   2.704   6.673   0.245
 1781TIP3   OH2 5264   2.262   6.162   0.033
 1781TIP3    H1 5265   2.221   6.097   0.094
 1781TIP3    H2 5266   2.346   6.118   0.011
 1782TIP3   OH2 5267   2.670   6.606   0.427
 1782TIP3    H1 5268   2.580   6.639   0.444
 1782TIP3    H2 5269   2.727   6.665   0.481
 1783TIP3   OH2 5270   2.799   7.299   0.517
 1783TIP3    H1 5271   2.835   7.291   0.606
 1783TIP3    H2 5272   2.762   7.389   0.516
 1784TIP3   OH2 5273   1.986   6.944   0.830
 1784TIP3    H1 5274   2.025   6.954   0.919
 1784TIP3    H2 5275   1.941   6.860   0.840
 1785TIP3   OH2 5276   2.709   7.048   0.835
 1785TIP3    H1 5277   2.648   6.990   0.787
 1785TIP3    H2 5278   2.796   7.013   0.805
 1786TIP3   OH2 5279   2.995   7.541   0.467
 1786TIP3    H1 5280   2.911   7.557   0.421
 1786TIP3    H2 5281   2.989   7.601   0.545
 1787TIP3   OH2 5282   3.585   7.494   0.437
 1787TIP3    H1 5283   3.491   7.471   0.424
 1787TIP3    H2 5284   3.621   7.479   0.348
 1788TIP3   OH2 5285   3.067   7.086   0.098
 1788TIP3    H1 5286   2.979   7.045   0.103
 1788TIP3    H2 5287   3.118   7.012   0.062
 1789TIP3   OH2 5288   2.466   7.680   0.332
 1789TIP3    H1 5289   2.510   7.716   0.254
 1789TIP3    H2 5290   2.535   7.625   0.372
 1790TIP3   OH2 5291   2.888   7.291   0.262
 1790TIP3    H1 5292   2.859   7.285   0.356
 1790TIP3    H2 5293   2.961   7.227   0.261
 1791TIP3   OH2 5294   3.124   7.773   0.322
 1791TIP3    H1 5295   3.063   7.703   0.352
 1791TIP3    H2 5296   3.069   7.855   0.329
 1792TIP3   OH2 5297   2.187   6.432   0.824
 1792TIP3    H1 5298   2.090   6.440   0.835
 1792TIP3    H2 5299   2.211   6.377   0.901
 1793TIP3   OH2 5300   3.027   6.502   0.515
 1793TIP3    H1 5301   3.104   6.543   0.558
 1793TIP3    H2 5302   3.014   6.420   0.568
 1794TIP3   OH2 5303   2.864   6.748   0.578
 1794TIP3    H1 5304   2.890   6.801   0.656
 1794TIP3    H2 5305   2.917   6.667   0.589
 1795TIP3   OH2 5306   2.674   6.194  -0.080
 1795TIP3    H1 5307   2.648   6.273  -0.027
 1795TIP3    H2 5308   2.746   6.231  -0.133
 1796TIP3   OH2 5309   3.499   6.637   0.578
 1796TIP3    H1 5310   3.401   6.635   0.570
 1796TIP3    H2 5311   3.527   6.633   0.485
 1797TIP3   OH2 5312   2.204   6.068   0.428
 1797TIP3    H1 5313   2.174   6.032   0.342
 1797TIP3    H2 5314   2.194   5.990   0.487
 1798TIP3   OH2 5315   2.398   7.787   0.922
 1798TIP3    H1 5316   2.488   7.752   0.923
 1798TIP3    H2 5317   2.364   7.748   0.839
 1799TIP3   OH2 5318   3.004   7.714   0.676
 1799TIP3    H1 5319   3.003   7.643   0.744
 1799TIP3    H2 5320   3.085   7.764   0.699
 1800TIP3   OH2 5321   2.025   7.236   1.080
 1800TIP3    H1 5322   2.051   7.142   1.087
 1800TIP3    H2 5323   1.938   7.229   1.036
 1801TIP3   OH2 5324   2.637   7.324   0.854
 1801TIP3    H1 5325   2.596   7.347   0.768
 1801TIP3    H2 5326   2.668   7.232   0.840
 1802TIP3   OH2 5327   3.131   7.305   0.452
 1802TIP3    H1 5328   3.208   7.346   0.409
 1802TIP3    H2 5329   3.072   7.383   0.460
 1803TIP3   OH2 5330   2.146   6.976   1.060
 1803TIP3    H1 5331   2.225   6.928   1.030
 1803TIP3    H2 5332   2.175   7.006   1.149
 1804TIP3   OH2 5333   2.483   6.853   0.719
 1804TIP3    H1 5334   2.406   6.915   0.724
 1804TIP3    H2 5335   2.535   6.892   0.645
 1805TIP3   OH2 5336   3.001   7.254   0.854
 1805TIP3    H1 5337   3.080   7.224   0.808
 1805TIP3    H2 5338   2.995   7.191   0.928
 1806TIP3   OH2 5339   2.608   6.647   0.845
 1806TIP3    H1 5340   2.608   6.569   0.787
 1806TIP3    H2 5341   2.564   6.715   0.788
 1807TIP3   OH2 5342   2.613   6.434   0.655
 1807TIP3    H1 5343   2.638   6.475   0.571
 1807TIP3    H2 5344   2.519   6.409   0.639
 1808TIP3   OH2 5345   2.635   6.968   0.530
 1808TIP3    H1 5346   2.716   6.988   0.483
 1808TIP3    H2 5347   2.572   7.031   0.488
 1809TIP3   OH2 5348   3.215   6.932   0.904
 1809TIP3    H1 5349   3.266   6.851   0.920
 1809TIP3    H2 5350   3.282   6.992   0.869
 1810TIP3   OH2 5351   3.253   7.180   0.653
 1810TIP3    H1 5352   3.197   7.230   0.590
 1810TIP3    H2 5353   3.342   7.197   0.615
 1811TIP3   OH2 5354   2.486   6.750   1.080
 1811TIP3    H1 5355   2.418   6.681   1.097
 1811TIP3    H2 5356   2.519   6.725   0.992
 1812TIP3   OH2 5357   2.741   6.193   0.725
 1812TIP3    H1 5358   2.692   6.275   0.702
 1812TIP3    H2 5359   2.671   6.125   0.714
 1813TIP3   OH2 5360   2.868   6.694   0.939
 1813TIP3    H1 5361   2.852   6.680   1.034
 1813TIP3    H2 5362   2.778   6.673   0.905
 1814TIP3   OH2 5363   3.105   6.643   0.792
 1814TIP3    H1 5364   3.030   6.647   0.855
 1814TIP3    H2 5365   3.179   6.617   0.850
 1815TIP3   OH2 5366   3.334   6.590   0.943
 1815TIP3    H1 5367   3.347   6.494   0.959
 1815TIP3    H2 5368   3.329   6.627   1.034
 1816TIP3   OH2 5369   2.326   6.531   1.135
 1816TIP3    H1 5370   2.327   6.438   1.103
 1816TIP3    H2 5371   2.363   6.519   1.225
 1817TIP3   OH2 5372   2.834   6.204   0.983
 1817TIP3    H1 5373   2.899   6.131   0.976
 1817TIP3    H2 5374   2.793   6.199   0.894
 1818TIP3   OH2 5375   2.901   6.418   1.141
 1818TIP3    H1 5376   2.879   6.347   1.077
 1818TIP3    H2 5377   2.822   6.476   1.135
 1819TIP3   OH2 5378   3.444   7.580   0.710
 1819TIP3    H1 5379   3.378   7.589   0.782
 1819TIP3    H2 5380   3.492   7.665   0.718
 1820TIP3   OH2 5381   3.501   7.231   0.548
 1820TIP3    H1 5382   3.578   7.171   0.546
 1820TIP3    H2 5383   3.530   7.295   0.481
 1821TIP3   OH2 5384   3.693   7.043   0.647
 1821TIP3    H1 5385   3.609   6.994   0.639
 1821TIP3    H2 5386   3.755   6.984   0.601
 1822TIP3   OH2 5387   3.416   6.673   0.127
 1822TIP3    H1 5388   3.406   6.731   0.050
 1822TIP3    H2 5389   3.415   6.740   0.199
 1823TIP3   OH2 5390   3.437   6.880   0.308
 1823TIP3    H1 5391   3.358   6.904   0.361
 1823TIP3    H2 5392   3.466   6.967   0.277
 1824TIP3   OH2 5393   2.061   6.586   1.108
 1824TIP3    H1 5394   2.159   6.578   1.111
 1824TIP3    H2 5395   2.035   6.497   1.142
 1825TIP3   OH2 5396   3.893   6.455   0.859
 1825TIP3    H1 5397   3.953   6.392   0.815
 1825TIP3    H2 5398   3.860   6.507   0.782
 1826TIP3   OH2 5399   2.024   6.276   0.416
 1826TIP3    H1 5400   2.084   6.202   0.438
 1826TIP3    H2 5401   2.086   6.352   0.421
 1827TIP3   OH2 5402   1.864   6.620   0.549
 1827TIP3    H1 5403   1.860   6.566   0.468
 1827TIP3    H2 5404   1.937   6.679   0.528
 1828TIP3   OH2 5405   3.757   6.588   0.666
 1828TIP3    H1 5406   3.675   6.634   0.696
 1828TIP3    H2 5407   3.717   6.517   0.612
 1829TIP3   OH2 5408   2.034   6.125   0.827
 1829TIP3    H1 5409   1.980   6.123   0.908
 1829TIP3    H2 5410   1.971   6.167   0.765
 1830TIP3   OH2 5411   2.104   7.530   0.912
 1830TIP3    H1 5412   2.015   7.540   0.871
 1830TIP3    H2 5413   2.096   7.582   0.993
 1831TIP3   OH2 5414   2.726   7.824   0.553
 1831TIP3    H1 5415   2.715   7.813   0.649
 1831TIP3    H2 5416   2.769   7.910   0.553
 1832TIP3   OH2 5417   3.658   6.343   0.556
 1832TIP3    H1 5418   3.568   6.342   0.519
 1832TIP3    H2 5419   3.686   6.250   0.543
 1833TIP3   OH2 5420   2.877   6.279   0.197
 1833TIP3    H1 5421   2.820   6.205   0.226
 1833TIP3    H2 5422   2.941   6.233   0.139
 1834TIP3   OH2 5423   3.385   6.151   0.070
 1834TIP3    H1 5424   3.373   6.137  -0.025
 1834TIP3    H2 5425   3.298   6.188   0.092
 1835TIP3   OH2 5426   2.123   5.975   0.181
 1835TIP3    H1 5427   2.030   5.943   0.182
 1835TIP3    H2 5428   2.170   5.889   0.174
 1836TIP3   OH2 5429   2.538   6.013   0.069
 1836TIP3    H1 5430   2.586   6.066   0.002
 1836TIP3    H2 5431   2.585   6.039   0.150
 1837TIP3   OH2 5432   3.079   6.155   0.060
 1837TIP3    H1 5433   3.126   6.133  -0.023
 1837TIP3    H2 5434   3.067   6.066   0.101
 1838TIP3   OH2 5435   2.321   6.257   1.068
 1838TIP3    H1 5436   2.284   6.186   1.125
 1838TIP3    H2 5437   2.414   6.256   1.098
 1839TIP3   OH2 5438   2.571   6.255   1.187
 1839TIP3    H1 5439   2.657   6.229   1.150
 1839TIP3    H2 5440   2.558   6.185   1.255
 1840TIP3   OH2 5441   3.398   6.319   0.975
 1840TIP3    H1 5442   3.415   6.289   1.067
 1840TIP3    H2 5443   3.488   6.315   0.936
 1841TIP3   OH2 5444   3.345   7.877   0.467
 1841TIP3    H1 5445   3.276   7.828   0.418
 1841TIP3    H2 5446   3.324   7.968   0.442
 1842TIP3   OH2 5447   4.045   7.480   0.420
 1842TIP3    H1 5448   4.111   7.511   0.485
 1842TIP3    H2 5449   3.962   7.486   0.472
 1843TIP3   OH2 5450   3.729   7.234   0.387
 1843TIP3    H1 5451   3.808   7.211   0.439
 1843TIP3    H2 5452   3.744   7.187   0.303
 1844TIP3   OH2 5453   3.968   6.640   0.325
 1844TIP3    H1 5454   3.936   6.726   0.357
 1844TIP3    H2 5455   4.028   6.611   0.395
 1845TIP3   OH2 5456   3.816   7.483   0.586
 1845TIP3    H1 5457   3.820   7.386   0.591
 1845TIP3    H2 5458   3.730   7.494   0.541
 1846TIP3   OH2 5459   3.954   7.204   0.550
 1846TIP3    H1 5460   4.036   7.157   0.531
 1846TIP3    H2 5461   3.975   7.250   0.634
 1847TIP3   OH2 5462   4.375   6.880   0.348
 1847TIP3    H1 5463   4.422   6.799   0.323
 1847TIP3    H2 5464   4.314   6.890   0.273
 1848TIP3   OH2 5465   4.278   7.009   0.568
 1848TIP3    H1 5466   4.207   6.945   0.591
 1848TIP3    H2 5467   4.305   6.974   0.481
 1849TIP3   OH2 5468   4.614   7.024   0.482
 1849TIP3    H1 5469   4.654   6.985   0.562
 1849TIP3    H2 5470   4.532   6.971   0.475
 1850TIP3   OH2 5471   5.086   6.829   0.449
 1850TIP3    H1 5472   5.125   6.743   0.476
 1850TIP3    H2 5473   5.089   6.878   0.533
 1851TIP3   OH2 5474   4.114   6.791   0.624
 1851TIP3    H1 5475   4.119   6.699   0.591
 1851TIP3    H2 5476   4.151   6.778   0.713
 1852TIP3   OH2 5477   4.617   6.467   0.466
 1852TIP3    H1 5478   4.698   6.414   0.468
 1852TIP3    H2 5479   4.592   6.461   0.373
 1853TIP3   OH2 5480   4.692   6.676   0.631
 1853TIP3    H1 5481   4.667   6.608   0.564
 1853TIP3    H2 5482   4.611   6.731   0.633
 1854TIP3   OH2 5483   3.849   6.823   0.550
 1854TIP3    H1 5484   3.943   6.832   0.575
 1854TIP3    H2 5485   3.824   6.745   0.604
 1855TIP3   OH2 5486   3.809   6.401   0.320
 1855TIP3    H1 5487   3.788   6.367   0.408
 1855TIP3    H2 5488   3.787   6.496   0.331
 1856TIP3   OH2 5489   3.849   7.784   0.440
 1856TIP3    H1 5490   3.756   7.776   0.410
 1856TIP3    H2 5491   3.837   7.777   0.536
 1857TIP3   OH2 5492   4.113   6.518   0.560
 1857TIP3    H1 5493   4.078   6.441   0.608
 1857TIP3    H2 5494   4.208   6.514   0.587
 1858TIP3   OH2 5495   4.365   6.511   0.674
 1858TIP3    H1 5496   4.448   6.486   0.631
 1858TIP3    H2 5497   4.353   6.440   0.740
 1859TIP3   OH2 5498   5.227   6.607   0.516
 1859TIP3    H1 5499   5.239   6.560   0.601
 1859TIP3    H2 5500   5.241   6.538   0.451
 1860TIP3   OH2 5501   1.985  -0.516   4.570
 1860TIP3    H1 5502   1.891  -0.488   4.574
 1860TIP3    H2 5503   1.986  -0.592   4.631
 1861TIP3   OH2 5504   1.428   0.218   4.251
 1861TIP3    H1 5505   1.339   0.189   4.280
 1861TIP3    H2 5506   1.406   0.295   4.196
 1862TIP3   OH2 5507   1.649   0.125   4.577
 1862TIP3    H1 5508   1.638   0.043   4.524
 1862TIP3    H2 5509   1.631   0.194   4.509
 1863TIP3   OH2 5510   1.847  -0.237   4.426
 1863TIP3    H1 5511   1.765  -0.184   4.430
 1863TIP3    H2 5512   1.868  -0.230   4.331
 1864TIP3   OH2 5513   1.182   0.192   4.367
 1864TIP3    H1 5514   1.170   0.288   4.381
 1864TIP3    H2 5515   1.172   0.159   4.457
 1865TIP3   OH2 5516   1.887   0.469   4.621
 1865TIP3    H1 5517   1.888   0.372   4.636
 1865TIP3    H2 5518   1.803   0.492   4.667
 1866TIP3   OH2 5519   1.583   0.811   4.724
 1866TIP3    H1 5520   1.575   0.844   4.633
 1866TIP3    H2 5521   1.659   0.863   4.757
 1867TIP3   OH2 5522   1.619  -0.091   4.413
 1867TIP3    H1 5523   1.631  -0.045   4.328
 1867TIP3    H2 5524   1.528  -0.126   4.409
 1868TIP3   OH2 5525   1.255   0.268   4.659
 1868TIP3    H1 5526   1.158   0.255   4.659
 1868TIP3    H2 5527   1.269   0.304   4.748
 1869TIP3   OH2 5528   1.901   0.189   4.655
 1869TIP3    H1 5529   1.803   0.180   4.649
 1869TIP3    H2 5530   1.926   0.151   4.567
 1870TIP3   OH2 5531   1.407   0.499   4.565
 1870TIP3    H1 5532   1.333   0.435   4.562
 1870TIP3    H2 5533   1.387   0.557   4.488
 1871TIP3   OH2 5534   1.441   0.485   4.151
 1871TIP3    H1 5535   1.395   0.534   4.078
 1871TIP3    H2 5536   1.532   0.481   4.117
 1872TIP3   OH2 5537   1.321   0.362   4.924
 1872TIP3    H1 5538   1.360   0.275   4.941
 1872TIP3    H2 5539   1.396   0.423   4.943
 1873TIP3   OH2 5540   1.451   0.081   4.773
 1873TIP3    H1 5541   1.524   0.098   4.711
 1873TIP3    H2 5542   1.375   0.114   4.723
 1874TIP3   OH2 5543   1.570  -0.115   4.916
 1874TIP3    H1 5544   1.510  -0.046   4.880
 1874TIP3    H2 5545   1.649  -0.098   4.861
 1875TIP3   OH2 5546   1.709   0.564   4.098
 1875TIP3    H1 5547   1.725   0.573   4.194
 1875TIP3    H2 5548   1.671   0.651   4.078
 1876TIP3   OH2 5549   1.717   0.584   4.381
 1876TIP3    H1 5550   1.667   0.499   4.387
 1876TIP3    H2 5551   1.784   0.567   4.449
 1877TIP3   OH2 5552   1.764   0.263   4.968
 1877TIP3    H1 5553   1.690   0.272   5.032
 1877TIP3    H2 5554   1.805   0.352   4.972
 1878TIP3   OH2 5555   1.766   0.040   4.219
 1878TIP3    H1 5556   1.817  -0.030   4.175
 1878TIP3    H2 5557   1.765   0.112   4.153
 1879TIP3   OH2 5558   1.592   0.347   4.421
 1879TIP3    H1 5559   1.519   0.382   4.475
 1879TIP3    H2 5560   1.541   0.297   4.352
 1880TIP3   OH2 5561   1.796  -0.048   4.782
 1880TIP3    H1 5562   1.862  -0.121   4.777
 1880TIP3    H2 5563   1.828   0.014   4.715
 1881TIP3   OH2 5564   1.958  -0.253   4.821
 1881TIP3    H1 5565   1.893  -0.325   4.818
 1881TIP3    H2 5566   2.039  -0.305   4.843
 1882TIP3   OH2 5567   1.716  -0.430   4.578
 1882TIP3    H1 5568   1.643  -0.376   4.613
 1882TIP3    H2 5569   1.755  -0.370   4.512
 1883TIP3   OH2 5570   1.009   0.582   4.841
 1883TIP3    H1 5571   1.060   0.555   4.920
 1883TIP3    H2 5572   1.080   0.601   4.777
 1884TIP3   OH2 5573   1.198   0.674   4.673
 1884TIP3    H1 5574   1.275   0.622   4.646
 1884TIP3    H2 5575   1.238   0.734   4.740
 1885TIP3   OH2 5576   0.907   0.554   4.350
 1885TIP3    H1 5577   0.828   0.585   4.306
 1885TIP3    H2 5578   0.917   0.620   4.422
 1886TIP3   OH2 5579   1.156   0.460   4.415
 1886TIP3    H1 5580   1.061   0.476   4.396
 1886TIP3    H2 5581   1.193   0.548   4.400
 1887TIP3   OH2 5582   1.366   0.662   4.349
 1887TIP3    H1 5583   1.348   0.746   4.300
 1887TIP3    H2 5584   1.388   0.601   4.276
 1888TIP3   OH2 5585   1.639   0.543   4.718
 1888TIP3    H1 5586   1.559   0.514   4.670
 1888TIP3    H2 5587   1.620   0.638   4.727
 1889TIP3   OH2 5588   2.899  -0.079   3.501
 1889TIP3    H1 5589   2.870   0.010   3.471
 1889TIP3    H2 5590   2.835  -0.133   3.452
 1890TIP3   OH2 5591   2.918  -0.099   3.871
 1890TIP3    H1 5592   2.902  -0.175   3.928
 1890TIP3    H2 5593   2.885  -0.132   3.786
 1891TIP3   OH2 5594   2.201  -0.185   4.238
 1891TIP3    H1 5595   2.236  -0.258   4.292
 1891TIP3    H2 5596   2.282  -0.133   4.225
 1892TIP3   OH2 5597   3.150   0.220   3.550
 1892TIP3    H1 5598   3.134   0.154   3.619
 1892TIP3    H2 5599   3.183   0.296   3.600
 1893TIP3   OH2 5600   2.177   0.220   3.965
 1893TIP3    H1 5601   2.171   0.122   3.964
 1893TIP3    H2 5602   2.271   0.230   3.939
 1894TIP3   OH2 5603   2.701   0.142   3.929
 1894TIP3    H1 5604   2.731   0.072   3.871
 1894TIP3    H2 5605   2.787   0.176   3.961
 1895TIP3   OH2 5606   3.120  -0.380   3.960
 1895TIP3    H1 5607   3.137  -0.473   3.935
 1895TIP3    H2 5608   3.073  -0.351   3.880
 1896TIP3   OH2 5609   3.127  -0.549   3.536
 1896TIP3    H1 5610   3.218  -0.584   3.546
 1896TIP3    H2 5611   3.121  -0.540   3.440
 1897TIP3   OH2 5612   2.530  -0.301   3.820
 1897TIP3    H1 5613   2.626  -0.315   3.835
 1897TIP3    H2 5614   2.501  -0.392   3.807
 1898TIP3   OH2 5615   3.808  -0.247   4.051
 1898TIP3    H1 5616   3.712  -0.230   4.048
 1898TIP3    H2 5617   3.813  -0.326   4.108
 1899TIP3   OH2 5618   2.794   0.136   3.362
 1899TIP3    H1 5619   2.760   0.125   3.271
 1899TIP3    H2 5620   2.748   0.219   3.388
 1900TIP3   OH2 5621   2.559   0.051   4.148
 1900TIP3    H1 5622   2.501   0.122   4.183
 1900TIP3    H2 5623   2.604   0.097   4.074
 1901TIP3   OH2 5624   2.342  -0.561   4.070
 1901TIP3    H1 5625   2.420  -0.531   4.119
 1901TIP3    H2 5626   2.361  -0.656   4.057
 1902TIP3   OH2 5627   2.393   0.251   4.250
 1902TIP3    H1 5628   2.370   0.336   4.207
 1902TIP3    H2 5629   2.310   0.236   4.300
 1903TIP3   OH2 5630   3.223   0.465   3.713
 1903TIP3    H1 5631   3.137   0.456   3.759
 1903TIP3    H2 5632   3.210   0.548   3.663
 1904TIP3   OH2 5633   2.910   0.498   3.379
 1904TIP3    H1 5634   2.967   0.421   3.357
 1904TIP3    H2 5635   2.972   0.571   3.354
 1905TIP3   OH2 5636   3.065   0.288   3.296
 1905TIP3    H1 5637   3.020   0.210   3.263
 1905TIP3    H2 5638   3.101   0.257   3.382
 1906TIP3   OH2 5639   3.434   0.372   4.063
 1906TIP3    H1 5640   3.430   0.297   3.999
 1906TIP3    H2 5641   3.420   0.449   4.004
 1907TIP3   OH2 5642   2.746  -0.222   3.323
 1907TIP3    H1 5643   2.662  -0.171   3.318
 1907TIP3    H2 5644   2.781  -0.213   3.233
 1908TIP3   OH2 5645   3.628   0.011   3.906
 1908TIP3    H1 5646   3.549   0.068   3.906
 1908TIP3    H2 5647   3.665   0.033   3.817
 1909TIP3   OH2 5648   3.091  -0.127   3.305
 1909TIP3    H1 5649   3.037  -0.109   3.385
 1909TIP3    H2 5650   3.176  -0.154   3.346
 1910TIP3   OH2 5651   3.317  -0.095   4.195
 1910TIP3    H1 5652   3.317  -0.012   4.246
 1910TIP3    H2 5653   3.259  -0.073   4.120
 1911TIP3   OH2 5654   2.314  -0.164   3.710
 1911TIP3    H1 5655   2.284  -0.230   3.646
 1911TIP3    H2 5656   2.396  -0.206   3.744
 1912TIP3   OH2 5657   2.439   0.235   3.857
 1912TIP3    H1 5658   2.430   0.212   3.764
 1912TIP3    H2 5659   2.530   0.205   3.877
 1913TIP3   OH2 5660   2.450  -0.185   4.067
 1913TIP3    H1 5661   2.482  -0.207   3.978
 1913TIP3    H2 5662   2.496  -0.100   4.086
 1914TIP3   OH2 5663   2.995   0.455   3.856
 1914TIP3    H1 5664   2.963   0.542   3.883
 1914TIP3    H2 5665   2.939   0.394   3.906
 1915TIP3   OH2 5666   2.596   0.372   4.390
 1915TIP3    H1 5667   2.535   0.434   4.435
 1915TIP3    H2 5668   2.531   0.319   4.339
 1916TIP3   OH2 5669   2.949  -0.261   3.113
 1916TIP3    H1 5670   3.004  -0.208   3.176
 1916TIP3    H2 5671   2.959  -0.209   3.030
 1917TIP3   OH2 5672   2.348  -0.073   4.499
 1917TIP3    H1 5673   2.349   0.017   4.538
 1917TIP3    H2 5674   2.252  -0.093   4.508
 1918TIP3   OH2 5675   2.664   0.390   3.402
 1918TIP3    H1 5676   2.752   0.434   3.408
 1918TIP3    H2 5677   2.610   0.459   3.364
 1919TIP3   OH2 5678   2.386   0.544   4.479
 1919TIP3    H1 5679   2.355   0.541   4.386
 1919TIP3    H2 5680   2.306   0.519   4.529
 1920TIP3   OH2 5681   3.239   0.313   2.707
 1920TIP3    H1 5682   3.248   0.411   2.701
 1920TIP3    H2 5683   3.333   0.286   2.697
 1921TIP3   OH2 5684   1.964   0.072   4.420
 1921TIP3    H1 5685   1.894   0.053   4.354
 1921TIP3    H2 5686   1.999  -0.018   4.439
 1922TIP3   OH2 5687   1.823   0.269   4.057
 1922TIP3    H1 5688   1.918   0.271   4.039
 1922TIP3    H2 5689   1.807   0.355   4.098
 1923TIP3   OH2 5690   3.681   0.722   4.113
 1923TIP3    H1 5691   3.680   0.626   4.128
 1923TIP3    H2 5692   3.598   0.748   4.158
 1924TIP3   OH2 5693   2.768   0.524   4.231
 1924TIP3    H1 5694   2.760   0.600   4.289
 1924TIP3    H2 5695   2.718   0.456   4.281
 1925TIP3   OH2 5696   2.543   0.608   3.200
 1925TIP3    H1 5697   2.509   0.621   3.110
 1925TIP3    H2 5698   2.546   0.698   3.237
 1926TIP3   OH2 5699   1.981   0.487   3.574
 1926TIP3    H1 5700   2.018   0.472   3.665
 1926TIP3    H2 5701   1.922   0.411   3.565
 1927TIP3   OH2 5702   2.742   0.526   2.843
 1927TIP3    H1 5703   2.804   0.462   2.802
 1927TIP3    H2 5704   2.785   0.542   2.930
 1928TIP3   OH2 5705   2.800   0.576   3.114
 1928TIP3    H1 5706   2.714   0.574   3.159
 1928TIP3    H2 5707   2.860   0.556   3.188
 1929TIP3   OH2 5708   3.567  -0.176   4.371
 1929TIP3    H1 5709   3.489  -0.126   4.341
 1929TIP3    H2 5710   3.577  -0.239   4.299
 1930TIP3   OH2 5711   2.166   0.258   4.406
 1930TIP3    H1 5712   2.215   0.240   4.489
 1930TIP3    H2 5713   2.093   0.192   4.411
 1931TIP3   OH2 5714   3.321  -0.350   4.311
 1931TIP3    H1 5715   3.331  -0.314   4.400
 1931TIP3    H2 5716   3.309  -0.270   4.258
 1932TIP3   OH2 5717   2.526  -0.388   4.233
 1932TIP3    H1 5718   2.450  -0.390   4.295
 1932TIP3    H2 5719   2.494  -0.323   4.167
 1933TIP3   OH2 5720   2.853  -0.425   3.467
 1933TIP3    H1 5721   2.825  -0.346   3.417
 1933TIP3    H2 5722   2.914  -0.466   3.400
 1934TIP3   OH2 5723   3.063  -0.153   4.521
 1934TIP3    H1 5724   3.027  -0.208   4.595
 1934TIP3    H2 5725   3.157  -0.146   4.549
 1935TIP3   OH2 5726   3.007  -0.370   3.706
 1935TIP3    H1 5727   2.954  -0.348   3.627
 1935TIP3    H2 5728   3.047  -0.453   3.671
 1936TIP3   OH2 5729   2.315  -0.368   4.414
 1936TIP3    H1 5730   2.319  -0.307   4.490
 1936TIP3    H2 5731   2.259  -0.439   4.449
 1937TIP3   OH2 5732   3.367   1.070   4.212
 1937TIP3    H1 5733   3.366   1.096   4.118
 1937TIP3    H2 5734   3.448   1.115   4.243
 1938TIP3   OH2 5735   2.331   0.180   4.628
 1938TIP3    H1 5736   2.410   0.208   4.679
 1938TIP3    H2 5737   2.264   0.176   4.700
 1939TIP3   OH2 5738   2.787  -0.373   3.891
 1939TIP3    H1 5739   2.861  -0.402   3.833
 1939TIP3    H2 5740   2.798  -0.431   3.968
 1940TIP3   OH2 5741   2.787  -0.474   4.176
 1940TIP3    H1 5742   2.694  -0.450   4.193
 1940TIP3    H2 5743   2.835  -0.404   4.226
 1941TIP3   OH2 5744   2.510  -0.076   3.324
 1941TIP3    H1 5745   2.414  -0.091   3.341
 1941TIP3    H2 5746   2.529  -0.020   3.401
 1942TIP3   OH2 5747   3.398   0.160   3.894
 1942TIP3    H1 5748   3.428   0.209   3.814
 1942TIP3    H2 5749   3.316   0.116   3.863
 1943TIP3   OH2 5750   3.011  -0.492   3.259
 1943TIP3    H1 5751   3.107  -0.506   3.247
 1943TIP3    H2 5752   2.992  -0.426   3.191
 1944TIP3   OH2 5753   2.192  -0.061   3.942
 1944TIP3    H1 5754   2.228  -0.093   3.857
 1944TIP3    H2 5755   2.240  -0.117   4.005
 1945TIP3   OH2 5756   2.683   0.087   3.112
 1945TIP3    H1 5757   2.626   0.165   3.093
 1945TIP3    H2 5758   2.615   0.021   3.127
 1946TIP3   OH2 5759   2.086  -0.146   4.555
 1946TIP3    H1 5760   2.097  -0.158   4.651
 1946TIP3    H2 5761   2.012  -0.207   4.534
 1947TIP3   OH2 5762   2.800  -0.033   4.540
 1947TIP3    H1 5763   2.715  -0.076   4.513
 1947TIP3    H2 5764   2.843  -0.110   4.580
 1948TIP3   OH2 5765   3.043   0.466   4.187
 1948TIP3    H1 5766   2.948   0.487   4.188
 1948TIP3    H2 5767   3.077   0.534   4.248
 1949TIP3   OH2 5768   3.436  -0.417   3.068
 1949TIP3    H1 5769   3.385  -0.456   2.996
 1949TIP3    H2 5770   3.449  -0.327   3.031
 1950TIP3   OH2 5771   3.688   0.435   4.148
 1950TIP3    H1 5772   3.590   0.430   4.135
 1950TIP3    H2 5773   3.717   0.402   4.059
 1951TIP3   OH2 5774   3.185   0.392   2.981
 1951TIP3    H1 5775   3.145   0.332   3.046
 1951TIP3    H2 5776   3.184   0.341   2.899
 1952TIP3   OH2 5777   3.165   0.018   3.829
 1952TIP3    H1 5778   3.075  -0.017   3.845
 1952TIP3    H2 5779   3.202  -0.056   3.776
 1953TIP3   OH2 5780   2.294   0.248   3.567
 1953TIP3    H1 5781   2.309   0.328   3.513
 1953TIP3    H2 5782   2.198   0.247   3.571
 1954TIP3   OH2 5783   2.468   0.037   3.579
 1954TIP3    H1 5784   2.410   0.115   3.567
 1954TIP3    H2 5785   2.408  -0.027   3.621
 1955TIP3   OH2 5786   2.566   0.601   4.040
 1955TIP3    H1 5787   2.612   0.666   3.983
 1955TIP3    H2 5788   2.642   0.558   4.083
 1956TIP3   OH2 5789   2.215   0.483   3.417
 1956TIP3    H1 5790   2.133   0.497   3.468
 1956TIP3    H2 5791   2.247   0.577   3.410
 1957TIP3   OH2 5792   2.960   0.218   4.015
 1957TIP3    H1 5793   3.017   0.276   4.069
 1957TIP3    H2 5794   3.024   0.175   3.957
 1958TIP3   OH2 5795   2.923   0.146   2.896
 1958TIP3    H1 5796   2.971   0.108   2.973
 1958TIP3    H2 5797   2.833   0.156   2.933
 1959TIP3   OH2 5798   3.201   0.755   4.042
 1959TIP3    H1 5799   3.116   0.710   4.021
 1959TIP3    H2 5800   3.199   0.826   3.973
 1960TIP3   OH2 5801   3.273   0.593   2.704
 1960TIP3    H1 5802   3.313   0.673   2.667
 1960TIP3    H2 5803   3.189   0.632   2.736
 1961TIP3   OH2 5804   3.094   0.049   3.094
 1961TIP3    H1 5805   3.088  -0.007   3.174
 1961TIP3    H2 5806   3.191   0.050   3.081
 1962TIP3   OH2 5807   2.036   0.476   4.216
 1962TIP3    H1 5808   2.075   0.388   4.213
 1962TIP3    H2 5809   2.031   0.490   4.312
 1963TIP3   OH2 5810   2.499   0.288   3.091
 1963TIP3    H1 5811   2.413   0.310   3.130
 1963TIP3    H2 5812   2.530   0.374   3.060
 1964TIP3   OH2 5813   2.814  -0.680   3.592
 1964TIP3    H1 5814   2.834  -0.593   3.554
 1964TIP3    H2 5815   2.724  -0.670   3.624
 1965TIP3   OH2 5816   2.954  -0.320   4.331
 1965TIP3    H1 5817   2.990  -0.273   4.408
 1965TIP3    H2 5818   3.014  -0.396   4.327
 1966TIP3   OH2 5819   2.228   0.373   3.162
 1966TIP3    H1 5820   2.215   0.454   3.107
 1966TIP3    H2 5821   2.235   0.412   3.252
 1967TIP3   OH2 5822   3.248  -0.212   3.696
 1967TIP3    H1 5823   3.173  -0.273   3.706
 1967TIP3    H2 5824   3.321  -0.262   3.739
 1968TIP3   OH2 5825   3.222   0.742   3.631
 1968TIP3    H1 5826   3.183   0.780   3.550
 1968TIP3    H2 5827   3.317   0.758   3.614
 1969TIP3   OH2 5828   2.000   0.764   4.618
 1969TIP3    H1 5829   2.085   0.764   4.666
 1969TIP3    H2 5830   1.977   0.670   4.621
 1970TIP3   OH2 5831   2.500   0.732   4.649
 1970TIP3    H1 5832   2.583   0.681   4.658
 1970TIP3    H2 5833   2.453   0.670   4.590
 1971TIP3   OH2 5834   3.094   0.642   4.398
 1971TIP3    H1 5835   3.090   0.575   4.470
 1971TIP3    H2 5836   3.176   0.690   4.421
 1972TIP3   OH2 5837   2.912   0.360   2.706
 1972TIP3    H1 5838   2.908   0.282   2.765
 1972TIP3    H2 5839   2.986   0.337   2.648
 1973TIP3   OH2 5840   2.127   0.170   4.817
 1973TIP3    H1 5841   2.136   0.074   4.830
 1973TIP3    H2 5842   2.040   0.176   4.771
 1974TIP3   OH2 5843   2.741   0.257   4.591
 1974TIP3    H1 5844   2.692   0.288   4.512
 1974TIP3    H2 5845   2.749   0.161   4.575
 1975TIP3   OH2 5846   3.217   0.259   4.194
 1975TIP3    H1 5847   3.297   0.293   4.148
 1975TIP3    H2 5848   3.162   0.341   4.193
 1976TIP3   OH2 5849   2.244  -0.100   4.802
 1976TIP3    H1 5850   2.323  -0.152   4.780
 1976TIP3    H2 5851   2.272  -0.057   4.885
 1977TIP3   OH2 5852   2.593  -0.185   4.456
 1977TIP3    H1 5853   2.506  -0.144   4.475
 1977TIP3    H2 5854   2.581  -0.213   4.364
 1978TIP3   OH2 5855   3.101   0.155   4.572
 1978TIP3    H1 5856   3.192   0.187   4.568
 1978TIP3    H2 5857   3.102   0.109   4.659
 1979TIP3   OH2 5858   3.245  -0.152   2.721
 1979TIP3    H1 5859   3.172  -0.214   2.731
 1979TIP3    H2 5860   3.197  -0.066   2.729
 1980TIP3   OH2 5861   2.703  -0.420   4.600
 1980TIP3    H1 5862   2.690  -0.510   4.566
 1980TIP3    H2 5863   2.665  -0.364   4.530
 1981TIP3   OH2 5864   3.317  -0.144   4.607
 1981TIP3    H1 5865   3.340  -0.187   4.690
 1981TIP3    H2 5866   3.387  -0.079   4.596
 1982TIP3   OH2 5867   3.351   0.121   4.377
 1982TIP3    H1 5868   3.293   0.179   4.324
 1982TIP3    H2 5869   3.438   0.149   4.340
 1983TIP3   OH2 5870   2.562  -0.295   4.811
 1983TIP3    H1 5871   2.517  -0.367   4.857
 1983TIP3    H2 5872   2.616  -0.343   4.745
 1984TIP3   OH2 5873   2.922  -0.288   4.705
 1984TIP3    H1 5874   2.952  -0.322   4.791
 1984TIP3    H2 5875   2.855  -0.355   4.678
 1985TIP3   OH2 5876   2.218   0.576   2.972
 1985TIP3    H1 5877   2.315   0.574   2.960
 1985TIP3    H2 5878   2.188   0.593   2.882
 1986TIP3   OH2 5879   1.617   0.557   3.607
 1986TIP3    H1 5880   1.575   0.473   3.581
 1986TIP3    H2 5881   1.672   0.524   3.682
 1987TIP3   OH2 5882   1.747   0.437   3.811
 1987TIP3    H1 5883   1.743   0.342   3.825
 1987TIP3    H2 5884   1.771   0.468   3.900
 1988TIP3   OH2 5885   3.482   0.819   3.602
 1988TIP3    H1 5886   3.509   0.857   3.687
 1988TIP3    H2 5887   3.543   0.862   3.540
 1989TIP3   OH2 5888   3.505   0.843   3.886
 1989TIP3    H1 5889   3.466   0.753   3.879
 1989TIP3    H2 5890   3.585   0.823   3.938
 1990TIP3   OH2 5891   3.555   0.517   4.458
 1990TIP3    H1 5892   3.483   0.531   4.523
 1990TIP3    H2 5893   3.599   0.605   4.459
 1991TIP3   OH2 5894   3.373   0.033   3.072
 1991TIP3    H1 5895   3.438   0.100   3.041
 1991TIP3    H2 5896   3.418  -0.002   3.152
 1992TIP3   OH2 5897   3.500  -0.097   3.278
 1992TIP3    H1 5898   3.435  -0.134   3.342
 1992TIP3    H2 5899   3.569  -0.061   3.338
 1993TIP3   OH2 5900   3.555   0.291   3.711
 1993TIP3    H1 5901   3.609   0.223   3.664
 1993TIP3    H2 5902   3.555   0.365   3.646
 1994TIP3   OH2 5903   3.383   0.590   3.905
 1994TIP3    H1 5904   3.309   0.636   3.949
 1994TIP3    H2 5905   3.338   0.547   3.829
 1995TIP3   OH2 5906   3.429  -0.189   2.922
 1995TIP3    H1 5907   3.370  -0.177   2.845
 1995TIP3    H2 5908   3.402  -0.113   2.978
 1996TIP3   OH2 5909   3.313  -0.229   3.429
 1996TIP3    H1 5910   3.298  -0.324   3.409
 1996TIP3    H2 5911   3.298  -0.225   3.526
 1997TIP3   OH2 5912   1.942  -0.167   4.165
 1997TIP3    H1 5913   1.953  -0.195   4.073
 1997TIP3    H2 5914   2.036  -0.165   4.194
 1998TIP3   OH2 5915   3.582   0.199   4.270
 1998TIP3    H1 5916   3.658   0.135   4.270
 1998TIP3    H2 5917   3.615   0.270   4.212
 1999TIP3   OH2 5918   3.761   0.015   4.333
 1999TIP3    H1 5919   3.697  -0.057   4.349
 1999TIP3    H2 5920   3.843  -0.039   4.335
 2000TIP3   OH2 5921   3.287  -0.480   3.293
 2000TIP3    H1 5922   3.342  -0.558   3.312
 2000TIP3    H2 5923   3.336  -0.444   3.216
 2001TIP3   OH2 5924   3.464  -0.337   3.809
 2001TIP3    H1 5925   3.549  -0.315   3.763
 2001TIP3    H2 5926   3.487  -0.308   3.899
 2002TIP3   OH2 5927   3.533  -0.200   4.048
 2002TIP3    H1 5928   3.451  -0.165   4.087
 2002TIP3    H2 5929   3.563  -0.124   3.993
 2003TIP3   OH2 5930   2.128  -0.449   4.880
 2003TIP3    H1 5931   2.212  -0.496   4.855
 2003TIP3    H2 5932   2.072  -0.526   4.897
 2004TIP3   OH2 5933   1.938  -0.503   4.223
 2004TIP3    H1 5934   2.012  -0.549   4.180
 2004TIP3    H2 5935   1.980  -0.430   4.268
 2005TIP3   OH2 5936   3.068   0.677   3.259
 2005TIP3    H1 5937   3.119   0.674   3.175
 2005TIP3    H2 5938   3.102   0.759   3.299
 2006TIP3   OH2 5939   2.164   0.496   4.642
 2006TIP3    H1 5940   2.071   0.472   4.625
 2006TIP3    H2 5941   2.174   0.471   4.735
 2007TIP3   OH2 5942   2.349   0.523   4.196
 2007TIP3    H1 5943   2.273   0.533   4.136
 2007TIP3    H2 5944   2.423   0.554   4.139
 2008TIP3   OH2 5945   2.842   0.786   4.385
 2008TIP3    H1 5946   2.909   0.719   4.411
 2008TIP3    H2 5947   2.884   0.819   4.302
 2009TIP3   OH2 5948   2.962   0.921   4.184
 2009TIP3    H1 5949   3.021   0.875   4.122
 2009TIP3    H2 5950   3.027   0.976   4.234
 2010TIP3   OH2 5951   2.690   0.788   3.882
 2010TIP3    H1 5952   2.619   0.795   3.815
 2010TIP3    H2 5953   2.703   0.882   3.906
 2011TIP3   OH2 5954   2.954   0.723   3.924
 2011TIP3    H1 5955   2.859   0.741   3.905
 2011TIP3    H2 5956   2.997   0.789   3.866
 2012TIP3   OH2 5957   3.152   0.918   3.830
 2012TIP3    H1 5958   3.139   1.005   3.785
 2012TIP3    H2 5959   3.181   0.862   3.755
 2013TIP3   OH2 5960   2.104   0.438   3.812
 2013TIP3    H1 5961   2.119   0.361   3.870
 2013TIP3    H2 5962   2.193   0.479   3.815
 2014TIP3   OH2 5963   2.362   0.516   3.845
 2014TIP3    H1 5964   2.411   0.436   3.817
 2014TIP3    H2 5965   2.432   0.570   3.884
 2015TIP3   OH2 5966   2.484   0.546   2.922
 2015TIP3    H1 5967   2.580   0.553   2.900
 2015TIP3    H2 5968   2.456   0.491   2.847
 2016TIP3   OH2 5969   3.211   0.661   3.024
 2016TIP3    H1 5970   3.206   0.564   3.010
 2016TIP3    H2 5971   3.161   0.694   2.947
 2017TIP3   OH2 5972   3.429   0.800   4.209
 2017TIP3    H1 5973   3.353   0.771   4.155
 2017TIP3    H2 5974   3.412   0.896   4.214
 2018TIP3   OH2 5975   4.703   0.173   2.973
 2018TIP3    H1 5976   4.672   0.263   2.953
 2018TIP3    H2 5977   4.629   0.121   2.936
 2019TIP3   OH2 5978   4.700   0.175   3.359
 2019TIP3    H1 5979   4.733   0.149   3.447
 2019TIP3    H2 5980   4.663   0.091   3.326
 2020TIP3   OH2 5981   3.997   0.072   3.724
 2020TIP3    H1 5982   4.031  -0.001   3.779
 2020TIP3    H2 5983   4.081   0.112   3.696
 2021TIP3   OH2 5984   4.947   0.482   3.041
 2021TIP3    H1 5985   4.931   0.412   3.106
 2021TIP3    H2 5986   4.979   0.555   3.096
 2022TIP3   OH2 5987   3.973   0.477   3.442
 2022TIP3    H1 5988   3.965   0.379   3.444
 2022TIP3    H2 5989   4.070   0.486   3.439
 2023TIP3   OH2 5990   3.660  -0.323   3.224
 2023TIP3    H1 5991   3.616  -0.238   3.242
 2023TIP3    H2 5992   3.584  -0.382   3.217
 2024TIP3   OH2 5993   3.736  -0.034   3.407
 2024TIP3    H1 5994   3.786  -0.110   3.442
 2024TIP3    H2 5995   3.795  -0.002   3.338
 2025TIP3   OH2 5996   4.601   0.953   3.051
 2025TIP3    H1 5997   4.642   0.876   3.006
 2025TIP3    H2 5998   4.592   0.919   3.141
 2026TIP3   OH2 5999   4.497   0.399   3.406
 2026TIP3    H1 6000   4.539   0.322   3.363
 2026TIP3    H2 6001   4.579   0.447   3.431
 2027TIP3   OH2 6002   4.914  -0.120   3.445
 2027TIP3    H1 6003   4.938  -0.214   3.432
 2027TIP3    H2 6004   4.869  -0.106   3.359
 2028TIP3   OH2 6005   4.927  -0.291   3.028
 2028TIP3    H1 6006   5.018  -0.326   3.029
 2028TIP3    H2 6007   4.902  -0.306   2.935
 2029TIP3   OH2 6008   3.888  -0.236   3.509
 2029TIP3    H1 6009   3.975  -0.256   3.550
 2029TIP3    H2 6010   3.903  -0.278   3.422
 2030TIP3   OH2 6011   4.320  -0.044   3.313
 2030TIP3    H1 6012   4.415  -0.066   3.323
 2030TIP3    H2 6013   4.285  -0.129   3.279
 2031TIP3   OH2 6014   5.602   0.008   3.537
 2031TIP3    H1 6015   5.507   0.029   3.538
 2031TIP3    H2 6016   5.605  -0.073   3.592
 2032TIP3   OH2 6017   4.590   0.391   2.841
 2032TIP3    H1 6018   4.549   0.374   2.755
 2032TIP3    H2 6019   4.545   0.473   2.869
 2033TIP3   OH2 6020   4.354   0.317   3.628
 2033TIP3    H1 6021   4.296   0.387   3.664
 2033TIP3    H2 6022   4.399   0.364   3.555
 2034TIP3   OH2 6023   4.136  -0.322   3.586
 2034TIP3    H1 6024   4.207  -0.264   3.621
 2034TIP3    H2 6025   4.187  -0.390   3.540
 2035TIP3   OH2 6026   4.184   0.516   3.727
 2035TIP3    H1 6027   4.159   0.604   3.692
 2035TIP3    H2 6028   4.104   0.498   3.781
 2036TIP3   OH2 6029   3.572   0.205   2.963
 2036TIP3    H1 6030   3.531   0.235   2.881
 2036TIP3    H2 6031   3.603   0.290   3.002
 2037TIP3   OH2 6032   5.011   0.719   3.202
 2037TIP3    H1 6033   4.921   0.711   3.242
 2037TIP3    H2 6034   5.006   0.808   3.161
 2038TIP3   OH2 6035   4.710   0.767   2.872
 2038TIP3    H1 6036   4.759   0.683   2.858
 2038TIP3    H2 6037   4.774   0.830   2.833
 2039TIP3   OH2 6038   4.855   0.551   2.792
 2039TIP3    H1 6039   4.819   0.469   2.756
 2039TIP3    H2 6040   4.896   0.520   2.875
 2040TIP3   OH2 6041   5.240   0.628   3.549
 2040TIP3    H1 6042   5.226   0.553   3.488
 2040TIP3    H2 6043   5.219   0.705   3.491
 2041TIP3   OH2 6044   4.532   0.032   2.806
 2041TIP3    H1 6045   4.452   0.080   2.778
 2041TIP3    H2 6046   4.581   0.022   2.722
 2042TIP3   OH2 6047   4.524  -0.181   2.485
 2042TIP3    H1 6048   4.585  -0.132   2.544
 2042TIP3    H2 6049   4.524  -0.268   2.526
 2043TIP3   OH2 6050   5.428   0.269   3.392
 2043TIP3    H1 6051   5.347   0.324   3.395
 2043TIP3    H2 6052   5.461   0.292   3.303
 2044TIP3   OH2 6053   4.883   0.118   2.775
 2044TIP3    H1 6054   4.827   0.136   2.855
 2044TIP3    H2 6055   4.967   0.094   2.819
 2045TIP3   OH2 6056   5.104   0.160   3.688
 2045TIP3    H1 6057   5.104   0.242   3.740
 2045TIP3    H2 6058   5.017   0.167   3.644
 2046TIP3   OH2 6059   4.117   0.110   3.199
 2046TIP3    H1 6060   4.064   0.052   3.140
 2046TIP3    H2 6061   4.188   0.050   3.229
 2047TIP3   OH2 6062   4.243   0.519   3.340
 2047TIP3    H1 6063   4.224   0.479   3.254
 2047TIP3    H2 6064   4.331   0.481   3.361
 2048TIP3   OH2 6065   4.240   0.074   3.555
 2048TIP3    H1 6066   4.273   0.044   3.467
 2048TIP3    H2 6067   4.289   0.159   3.568
 2049TIP3   OH2 6068   4.770   0.712   3.324
 2049TIP3    H1 6069   4.758   0.794   3.375
 2049TIP3    H2 6070   4.755   0.642   3.390
 2050TIP3   OH2 6071   4.389   0.631   3.874
 2050TIP3    H1 6072   4.327   0.692   3.921
 2050TIP3    H2 6073   4.325   0.578   3.823
 2051TIP3   OH2 6074   4.717  -0.017   2.605
 2051TIP3    H1 6075   4.778   0.042   2.655
 2051TIP3    H2 6076   4.747  -0.002   2.512
 2052TIP3   OH2 6077   4.147   0.183   3.986
 2052TIP3    H1 6078   4.149   0.273   4.024
 2052TIP3    H2 6079   4.050   0.167   3.984
 2053TIP3   OH2 6080   4.469   0.637   2.878
 2053TIP3    H1 6081   4.551   0.689   2.886
 2053TIP3    H2 6082   4.404   0.702   2.849
 2054TIP3   OH2 6083   4.180   0.794   3.960
 2054TIP3    H1 6084   4.145   0.800   3.869
 2054TIP3    H2 6085   4.099   0.774   4.012
 2055TIP3   OH2 6086   3.963  -0.043   3.029
 2055TIP3    H1 6087   3.901  -0.013   2.960
 2055TIP3    H2 6088   3.968  -0.138   3.012
 2056TIP3   OH2 6089   5.035   0.571   2.204
 2056TIP3    H1 6090   5.045   0.667   2.187
 2056TIP3    H2 6091   5.128   0.540   2.192
 2057TIP3   OH2 6092   3.757   0.330   3.910
 2057TIP3    H1 6093   3.694   0.309   3.837
 2057TIP3    H2 6094   3.795   0.242   3.931
 2058TIP3   OH2 6095   3.613   0.520   3.546
 2058TIP3    H1 6096   3.709   0.517   3.531
 2058TIP3    H2 6097   3.605   0.603   3.597
 2059TIP3   OH2 6098   5.480   0.978   3.601
 2059TIP3    H1 6099   5.481   0.880   3.611
 2059TIP3    H2 6100   5.403   1.000   3.656
 2060TIP3   OH2 6101   4.578   0.764   3.726
 2060TIP3    H1 6102   4.580   0.856   3.760
 2060TIP3    H2 6103   4.512   0.722   3.785
 2061TIP3   OH2 6104   4.343   0.894   2.666
 2061TIP3    H1 6105   4.311   0.852   2.584
 2061TIP3    H2 6106   4.267   0.947   2.692
 2062TIP3   OH2 6107   3.789   0.736   3.068
 2062TIP3    H1 6108   3.832   0.726   3.156
 2062TIP3    H2 6109   3.726   0.661   3.070
 2063TIP3   OH2 6110   4.549   0.795   2.322
 2063TIP3    H1 6111   4.604   0.724   2.284
 2063TIP3    H2 6112   4.584   0.798   2.414
 2064TIP3   OH2 6113   4.600   0.837   2.592
 2064TIP3    H1 6114   4.513   0.851   2.634
 2064TIP3    H2 6115   4.650   0.794   2.663
 2065TIP3   OH2 6116   5.364   0.084   3.860
 2065TIP3    H1 6117   5.287   0.140   3.844
 2065TIP3    H2 6118   5.358   0.022   3.785
 2066TIP3   OH2 6119   3.963   0.512   3.890
 2066TIP3    H1 6120   4.012   0.498   3.973
 2066TIP3    H2 6121   3.889   0.449   3.899
 2067TIP3   OH2 6122   5.119  -0.094   3.796
 2067TIP3    H1 6123   5.114  -0.056   3.884
 2067TIP3    H2 6124   5.108  -0.013   3.741
 2068TIP3   OH2 6125   4.807   0.006   2.352
 2068TIP3    H1 6126   4.764  -0.007   2.266
 2068TIP3    H2 6127   4.889   0.052   2.326
 2069TIP3   OH2 6128   4.317  -0.145   3.705
 2069TIP3    H1 6129   4.257  -0.132   3.781
 2069TIP3    H2 6130   4.296  -0.065   3.652
 2070TIP3   OH2 6131   4.198  -0.266   3.209
 2070TIP3    H1 6132   4.105  -0.286   3.231
 2070TIP3    H2 6133   4.201  -0.291   3.113
 2071TIP3   OH2 6134   4.654  -0.166   2.949
 2071TIP3    H1 6135   4.604  -0.095   2.903
 2071TIP3    H2 6136   4.716  -0.195   2.879
 2072TIP3   OH2 6137   4.840   0.098   4.016
 2072TIP3    H1 6138   4.814   0.041   4.092
 2072TIP3    H2 6139   4.934   0.115   4.037
 2073TIP3   OH2 6140   4.805  -0.115   3.193
 2073TIP3    H1 6141   4.750  -0.087   3.117
 2073TIP3    H2 6142   4.846  -0.194   3.151
 2074TIP3   OH2 6143   4.114  -0.111   3.898
 2074TIP3    H1 6144   4.145  -0.051   3.967
 2074TIP3    H2 6145   4.054  -0.170   3.946
 2075TIP3   OH2 6146   3.705  -0.533   3.009
 2075TIP3    H1 6147   3.748  -0.497   2.929
 2075TIP3    H2 6148   3.658  -0.455   3.043
 2076TIP3   OH2 6149   4.834   0.092   3.596
 2076TIP3    H1 6150   4.871   0.020   3.539
 2076TIP3    H2 6151   4.807   0.039   3.674
 2077TIP3   OH2 6152   3.935  -0.344   3.262
 2077TIP3    H1 6153   3.840  -0.346   3.238
 2077TIP3    H2 6154   3.956  -0.439   3.276
 2078TIP3   OH2 6155   4.237  -0.361   2.956
 2078TIP3    H1 6156   4.332  -0.375   2.943
 2078TIP3    H2 6157   4.207  -0.353   2.863
 2079TIP3   OH2 6158   4.125   0.435   4.116
 2079TIP3    H1 6159   4.206   0.464   4.162
 2079TIP3    H2 6160   4.060   0.439   4.189
 2080TIP3   OH2 6161   4.583  -0.115   3.373
 2080TIP3    H1 6162   4.660  -0.144   3.320
 2080TIP3    H2 6163   4.594  -0.168   3.454
 2081TIP3   OH2 6164   4.585  -0.219   3.671
 2081TIP3    H1 6165   4.491  -0.192   3.681
 2081TIP3    H2 6166   4.632  -0.145   3.716
 2082TIP3   OH2 6167   4.294   0.178   2.754
 2082TIP3    H1 6168   4.236   0.101   2.760
 2082TIP3    H2 6169   4.282   0.216   2.844
 2083TIP3   OH2 6170   5.197   0.415   3.380
 2083TIP3    H1 6171   5.222   0.466   3.300
 2083TIP3    H2 6172   5.113   0.373   3.352
 2084TIP3   OH2 6173   4.705  -0.410   2.554
 2084TIP3    H1 6174   4.640  -0.464   2.605
 2084TIP3    H2 6175   4.768  -0.386   2.625
 2085TIP3   OH2 6176   4.692   0.490   3.756
 2085TIP3    H1 6177   4.736   0.482   3.842
 2085TIP3    H2 6178   4.664   0.582   3.756
 2086TIP3   OH2 6179   4.821  -0.236   2.745
 2086TIP3    H1 6180   4.919  -0.232   2.743
 2086TIP3    H2 6181   4.796  -0.164   2.685
 2087TIP3   OH2 6182   3.996   0.202   3.428
 2087TIP3    H1 6183   4.034   0.175   3.342
 2087TIP3    H2 6184   4.042   0.141   3.488
 2088TIP3   OH2 6185   4.446   0.324   2.578
 2088TIP3    H1 6186   4.399   0.411   2.583
 2088TIP3    H2 6187   4.390   0.270   2.638
 2089TIP3   OH2 6188   3.876   0.117   4.047
 2089TIP3    H1 6189   3.906   0.106   4.139
 2089TIP3    H2 6190   3.820   0.039   4.033
 2090TIP3   OH2 6191   4.602   0.234   4.064
 2090TIP3    H1 6192   4.538   0.172   4.025
 2090TIP3    H2 6193   4.687   0.200   4.030
 2091TIP3   OH2 6194   4.852   0.739   3.656
 2091TIP3    H1 6195   4.756   0.753   3.665
 2091TIP3    H2 6196   4.886   0.800   3.725
 2092TIP3   OH2 6197   5.242  -0.162   2.560
 2092TIP3    H1 6198   5.190  -0.207   2.490
 2092TIP3    H2 6199   5.248  -0.072   2.520
 2093TIP3   OH2 6200   5.489   0.697   3.633
 2093TIP3    H1 6201   5.391   0.690   3.622
 2093TIP3    H2 6202   5.517   0.661   3.546
 2094TIP3   OH2 6203   4.965   0.646   2.467
 2094TIP3    H1 6204   4.946   0.573   2.527
 2094TIP3    H2 6205   4.984   0.601   2.382
 2095TIP3   OH2 6206   4.964   0.280   3.299
 2095TIP3    H1 6207   4.870   0.255   3.311
 2095TIP3    H2 6208   4.997   0.200   3.252
 2096TIP3   OH2 6209   4.095   0.505   3.055
 2096TIP3    H1 6210   4.088   0.585   3.001
 2096TIP3    H2 6211   4.002   0.484   3.073
 2097TIP3   OH2 6212   3.660  -0.189   2.769
 2097TIP3    H1 6213   3.705  -0.104   2.790
 2097TIP3    H2 6214   3.582  -0.183   2.829
 2098TIP3   OH2 6215   4.227   0.268   2.997
 2098TIP3    H1 6216   4.192   0.357   3.019
 2098TIP3    H2 6217   4.196   0.215   3.073
 2099TIP3   OH2 6218   4.368   0.845   3.524
 2099TIP3    H1 6219   4.413   0.918   3.476
 2099TIP3    H2 6220   4.443   0.808   3.574
 2100TIP3   OH2 6221   4.013   0.744   2.904
 2100TIP3    H1 6222   3.928   0.749   2.953
 2100TIP3    H2 6223   4.044   0.837   2.907
 2101TIP3   OH2 6224   4.747   0.480   3.486
 2101TIP3    H1 6225   4.737   0.479   3.584
 2101TIP3    H2 6226   4.831   0.433   3.475
 2102TIP3   OH2 6227   4.728   0.377   2.370
 2102TIP3    H1 6228   4.785   0.353   2.447
 2102TIP3    H2 6229   4.642   0.345   2.400
 2103TIP3   OH2 6230   4.993   0.993   3.513
 2103TIP3    H1 6231   4.904   0.954   3.502
 2103TIP3    H2 6232   4.984   1.074   3.460
 2104TIP3   OH2 6233   5.067   0.846   2.186
 2104TIP3    H1 6234   5.110   0.917   2.136
 2104TIP3    H2 6235   4.987   0.894   2.216
 2105TIP3   OH2 6236   4.893   0.309   2.579
 2105TIP3    H1 6237   4.882   0.246   2.653
 2105TIP3    H2 6238   4.990   0.305   2.568
 2106TIP3   OH2 6239   3.804   0.709   3.683
 2106TIP3    H1 6240   3.859   0.638   3.720
 2106TIP3    H2 6241   3.834   0.785   3.734
 2107TIP3   OH2 6242   4.084   0.362   2.371
 2107TIP3    H1 6243   4.099   0.268   2.346
 2107TIP3    H2 6244   4.068   0.352   2.467
 2108TIP3   OH2 6245   4.038   0.360   2.642
 2108TIP3    H1 6246   4.115   0.332   2.694
 2108TIP3    H2 6247   4.041   0.458   2.652
 2109TIP3   OH2 6248   3.771   0.055   2.842
 2109TIP3    H1 6249   3.707   0.099   2.902
 2109TIP3    H2 6250   3.781   0.125   2.775
 2110TIP3   OH2 6251   4.304   0.554   2.586
 2110TIP3    H1 6252   4.218   0.579   2.625
 2110TIP3    H2 6253   4.314   0.622   2.519
 2111TIP3   OH2 6254   4.522  -0.392   3.020
 2111TIP3    H1 6255   4.569  -0.314   2.984
 2111TIP3    H2 6256   4.514  -0.367   3.112
 2112TIP3   OH2 6257   4.776  -0.068   3.812
 2112TIP3    H1 6258   4.784   0.003   3.879
 2112TIP3    H2 6259   4.808  -0.144   3.863
 2113TIP3   OH2 6260   4.052   0.633   2.657
 2113TIP3    H1 6261   4.019   0.704   2.597
 2113TIP3    H2 6262   4.033   0.672   2.745
 2114TIP3   OH2 6263   5.045   0.041   3.179
 2114TIP3    H1 6264   4.969  -0.018   3.190
 2114TIP3    H2 6265   5.117  -0.009   3.224
 2115TIP3   OH2 6266   3.769   0.257   2.646
 2115TIP3    H1 6267   3.841   0.322   2.657
 2115TIP3    H2 6268   3.812   0.196   2.583
 2116TIP3   OH2 6269   3.746  -0.450   2.750
 2116TIP3    H1 6270   3.719  -0.356   2.754
 2116TIP3    H2 6271   3.662  -0.498   2.734
 2117TIP3   OH2 6272   5.024   0.986   3.124
 2117TIP3    H1 6273   4.982   1.036   3.050
 2117TIP3    H2 6274   5.118   1.008   3.107
 2118TIP3   OH2 6275   3.628   0.470   3.033
 2118TIP3    H1 6276   3.567   0.505   3.100
 2118TIP3    H2 6277   3.595   0.514   2.951
 2119TIP3   OH2 6278   3.798   1.026   4.108
 2119TIP3    H1 6279   3.884   1.030   4.156
 2119TIP3    H2 6280   3.783   0.930   4.105
 2120TIP3   OH2 6281   4.269   0.975   4.153
 2120TIP3    H1 6282   4.365   0.966   4.159
 2120TIP3    H2 6283   4.248   0.913   4.081
 2121TIP3   OH2 6284   4.256   0.553   2.277
 2121TIP3    H1 6285   4.198   0.483   2.316
 2121TIP3    H2 6286   4.331   0.500   2.247
 2122TIP3   OH2 6287   4.906   0.885   3.882
 2122TIP3    H1 6288   4.904   0.821   3.956
 2122TIP3    H2 6289   4.981   0.942   3.905
 2123TIP3   OH2 6290   4.687   0.595   2.193
 2123TIP3    H1 6291   4.729   0.531   2.254
 2123TIP3    H2 6292   4.746   0.591   2.115
 2124TIP3   OH2 6293   3.919   0.424   4.305
 2124TIP3    H1 6294   3.932   0.329   4.314
 2124TIP3    H2 6295   3.834   0.429   4.257
 2125TIP3   OH2 6296   3.902   0.067   2.506
 2125TIP3    H1 6297   3.943   0.000   2.562
 2125TIP3    H2 6298   3.973   0.082   2.439
 2126TIP3   OH2 6299   4.529   0.511   4.082
 2126TIP3    H1 6300   4.492   0.534   3.995
 2126TIP3    H2 6301   4.561   0.419   4.069
 2127TIP3   OH2 6302   4.415   0.276   2.309
 2127TIP3    H1 6303   4.418   0.285   2.406
 2127TIP3    H2 6304   4.421   0.178   2.300
 2128TIP3   OH2 6305   5.020   0.523   3.686
 2128TIP3    H1 6306   5.098   0.564   3.644
 2128TIP3    H2 6307   4.954   0.594   3.672
 2129TIP3   OH2 6308   4.046   0.147   4.287
 2129TIP3    H1 6309   4.132   0.117   4.255
 2129TIP3    H2 6310   4.072   0.195   4.369
 2130TIP3   OH2 6311   4.387   0.047   3.953
 2130TIP3    H1 6312   4.307   0.102   3.954
 2130TIP3    H2 6313   4.433   0.078   3.872
 2131TIP3   OH2 6314   4.894   0.442   4.082
 2131TIP3    H1 6315   4.973   0.414   4.034
 2131TIP3    H2 6316   4.890   0.378   4.155
 2132TIP3   OH2 6317   5.033   0.101   2.227
 2132TIP3    H1 6318   5.015   0.060   2.140
 2132TIP3    H2 6319   4.999   0.192   2.208
 2133TIP3   OH2 6320   4.503  -0.156   4.091
 2133TIP3    H1 6321   4.487  -0.239   4.045
 2133TIP3    H2 6322   4.461  -0.090   4.031
 2134TIP3   OH2 6323   4.534   0.150   3.751
 2134TIP3    H1 6324   4.617   0.174   3.709
 2134TIP3    H2 6325   4.473   0.216   3.711
 2135TIP3   OH2 6326   5.106   0.113   4.094
 2135TIP3    H1 6327   5.134   0.076   4.179
 2135TIP3    H2 6328   5.166   0.188   4.081
 2136TIP3   OH2 6329   5.147   0.376   3.870
 2136TIP3    H1 6330   5.084   0.431   3.816
 2136TIP3    H2 6331   5.231   0.408   3.831
 2137TIP3   OH2 6332   4.347  -0.042   4.302
 2137TIP3    H1 6333   4.319  -0.127   4.338
 2137TIP3    H2 6334   4.408  -0.071   4.231
 2138TIP3   OH2 6335   4.739  -0.070   4.203
 2138TIP3    H1 6336   4.732  -0.094   4.297
 2138TIP3    H2 6337   4.656  -0.107   4.166
 2139TIP3   OH2 6338   4.026   0.844   2.475
 2139TIP3    H1 6339   4.118   0.828   2.449
 2139TIP3    H2 6340   3.995   0.892   2.395
 2140TIP3   OH2 6341   3.499   0.217   2.678
 2140TIP3    H1 6342   3.593   0.239   2.667
 2140TIP3    H2 6343   3.495   0.128   2.637
 2141TIP3   OH2 6344   3.442   0.810   3.072
 2141TIP3    H1 6345   3.353   0.776   3.053
 2141TIP3    H2 6346   3.464   0.760   3.153
 2142TIP3   OH2 6347   3.551   0.669   3.288
 2142TIP3    H1 6348   3.532   0.603   3.357
 2142TIP3    H2 6349   3.603   0.734   3.339
 2143TIP3   OH2 6350   5.276   1.081   3.087
 2143TIP3    H1 6351   5.298   1.108   3.178
 2143TIP3    H2 6352   5.346   1.123   3.035
 2144TIP3   OH2 6353   5.307   1.096   3.365
 2144TIP3    H1 6354   5.263   1.009   3.368
 2144TIP3    H2 6355   5.383   1.080   3.423
 2145TIP3   OH2 6356   5.350   0.778   3.949
 2145TIP3    H1 6357   5.273   0.788   4.009
 2145TIP3    H2 6358   5.388   0.868   3.953
 2146TIP3   OH2 6359   5.169   0.289   2.558
 2146TIP3    H1 6360   5.235   0.355   2.528
 2146TIP3    H2 6361   5.214   0.253   2.638
 2147TIP3   OH2 6362   5.298   0.159   2.763
 2147TIP3    H1 6363   5.230   0.123   2.825
 2147TIP3    H2 6364   5.365   0.194   2.825
 2148TIP3   OH2 6365   5.353   0.551   3.196
 2148TIP3    H1 6366   5.406   0.482   3.150
 2148TIP3    H2 6367   5.350   0.622   3.130
 2149TIP3   OH2 6368   5.183   0.846   3.392
 2149TIP3    H1 6369   5.114   0.893   3.444
 2149TIP3    H2 6370   5.130   0.804   3.321
 2150TIP3   OH2 6371   5.229   0.067   2.410
 2150TIP3    H1 6372   5.159   0.073   2.341
 2150TIP3    H2 6373   5.204   0.143   2.466
 2151TIP3   OH2 6374   5.102  -0.280   2.351
 2151TIP3    H1 6375   5.054  -0.209   2.305
 2151TIP3    H2 6376   5.035  -0.350   2.351
 2152TIP3   OH2 6377   5.106   0.033   2.911
 2152TIP3    H1 6378   5.096  -0.062   2.890
 2152TIP3    H2 6379   5.089   0.035   3.008
 2153TIP3   OH2 6380   3.732   0.086   3.660
 2153TIP3    H1 6381   3.731   0.051   3.568
 2153TIP3    H2 6382   3.830   0.089   3.676
 2154TIP3   OH2 6383   5.380   0.458   3.764
 2154TIP3    H1 6384   5.454   0.394   3.755
 2154TIP3    H2 6385   5.403   0.526   3.698
 2155TIP3   OH2 6386   5.562   0.268   3.801
 2155TIP3    H1 6387   5.496   0.201   3.827
 2155TIP3    H2 6388   5.643   0.215   3.816
 2156TIP3   OH2 6389   5.093  -0.214   2.783
 2156TIP3    H1 6390   5.137  -0.298   2.806
 2156TIP3    H2 6391   5.145  -0.191   2.704
 2157TIP3   OH2 6392   5.261  -0.081   3.299
 2157TIP3    H1 6393   5.346  -0.060   3.254
 2157TIP3    H2 6394   5.280  -0.046   3.388
 2158TIP3   OH2 6395   5.324   0.062   3.537
 2158TIP3    H1 6396   5.241   0.099   3.573
 2158TIP3    H2 6397   5.356   0.138   3.482
 2159TIP3   OH2 6398   3.915  -0.201   4.369
 2159TIP3    H1 6399   4.004  -0.232   4.340
 2159TIP3    H2 6400   3.876  -0.286   4.389
 2160TIP3   OH2 6401   3.706  -0.245   3.717
 2160TIP3    H1 6402   3.765  -0.249   3.639
 2160TIP3    H2 6403   3.747  -0.175   3.769
 2161TIP3   OH2 6404   4.842   0.965   2.737
 2161TIP3    H1 6405   4.898   0.944   2.659
 2161TIP3    H2 6406   4.906   1.009   2.796
 2162TIP3   OH2 6407   3.959   0.751   4.123
 2162TIP3    H1 6408   3.865   0.728   4.112
 2162TIP3    H2 6409   3.972   0.739   4.217
 2163TIP3   OH2 6410   4.140   0.787   3.673
 2163TIP3    H1 6411   4.094   0.864   3.634
 2163TIP3    H2 6412   4.227   0.799   3.629
 2164TIP3   OH2 6413   4.586   1.035   3.804
 2164TIP3    H1 6414   4.622   1.030   3.896
 2164TIP3    H2 6415   4.659   1.085   3.761
 2165TIP3   OH2 6416   4.789   1.178   3.683
 2165TIP3    H1 6417   4.856   1.119   3.646
 2165TIP3    H2 6418   4.850   1.236   3.736
 2166TIP3   OH2 6419   3.815   1.039   3.702
 2166TIP3    H1 6420   3.723   1.067   3.680
 2166TIP3    H2 6421   3.831   1.095   3.780
 2167TIP3   OH2 6422   4.049   1.019   3.557
 2167TIP3    H1 6423   3.962   1.030   3.602
 2167TIP3    H2 6424   4.029   1.051   3.467
 2168TIP3   OH2 6425   4.475   1.048   3.352
 2168TIP3    H1 6426   4.400   1.070   3.294
 2168TIP3    H2 6427   4.489   1.132   3.400
 2169TIP3   OH2 6428   4.742   0.979   3.402
 2169TIP3    H1 6429   4.649   1.006   3.386
 2169TIP3    H2 6430   4.791   1.056   3.368
 2170TIP3   OH2 6431   4.933   1.173   3.315
 2170TIP3    H1 6432   4.935   1.261   3.271
 2170TIP3    H2 6433   4.973   1.116   3.246
 2171TIP3   OH2 6434   3.725   0.832   3.442
 2171TIP3    H1 6435   3.751   0.805   3.532
 2171TIP3    H2 6436   3.799   0.790   3.391
 2172TIP3   OH2 6437   3.923   0.706   3.304
 2172TIP3    H1 6438   3.937   0.622   3.353
 2172TIP3    H2 6439   4.015   0.740   3.301
 2173TIP3   OH2 6440   4.192   0.797   3.307
 2173TIP3    H1 6441   4.219   0.703   3.300
 2173TIP3    H2 6442   4.240   0.821   3.388
 2174TIP3   OH2 6443   3.519   0.605   2.828
 2174TIP3    H1 6444   3.431   0.579   2.794
 2174TIP3    H2 6445   3.504   0.701   2.838
 2175TIP3   OH2 6446   4.289   0.784   2.415
 2175TIP3    H1 6447   4.377   0.808   2.377
 2175TIP3    H2 6448   4.265   0.711   2.353
 2176TIP3   OH2 6449   4.999   0.912   2.515
 2176TIP3    H1 6450   4.994   0.814   2.503
 2176TIP3    H2 6451   4.963   0.942   2.429
 2177TIP3   OH2 6452   3.587   0.632   2.467
 2177TIP3    H1 6453   3.580   0.645   2.563
 2177TIP3    H2 6454   3.675   0.589   2.458
 2178TIP3   OH2 6455   6.493   0.432   2.465
 2178TIP3    H1 6456   6.458   0.520   2.439
 2178TIP3    H2 6457   6.421   0.376   2.430
 2179TIP3   OH2 6458   6.498   0.432   2.845
 2179TIP3    H1 6459   6.529   0.403   2.933
 2179TIP3    H2 6460   6.460   0.351   2.808
 2180TIP3   OH2 6461   5.793   0.328   3.209
 2180TIP3    H1 6462   5.827   0.254   3.264
 2180TIP3    H2 6463   5.876   0.374   3.190
 2181TIP3   OH2 6464   6.746   0.733   2.529
 2181TIP3    H1 6465   6.724   0.668   2.597
 2181TIP3    H2 6466   6.775   0.810   2.581
 2182TIP3   OH2 6467   5.769   0.732   2.928
 2182TIP3    H1 6468   5.762   0.635   2.930
 2182TIP3    H2 6469   5.866   0.742   2.921
 2183TIP3   OH2 6470   5.461  -0.066   2.710
 2183TIP3    H1 6471   5.417   0.019   2.728
 2183TIP3    H2 6472   5.383  -0.124   2.701
 2184TIP3   OH2 6473   5.532   0.223   2.894
 2184TIP3    H1 6474   5.582   0.146   2.929
 2184TIP3    H2 6475   5.598   0.265   2.836
 2185TIP3   OH2 6476   6.395   1.193   2.545
 2185TIP3    H1 6477   6.434   1.122   2.489
 2185TIP3    H2 6478   6.387   1.148   2.630
 2186TIP3   OH2 6479   6.293   0.655   2.893
 2186TIP3    H1 6480   6.335   0.580   2.847
 2186TIP3    H2 6481   6.375   0.703   2.919
 2187TIP3   OH2 6482   6.708   0.141   2.927
 2187TIP3    H1 6483   6.737   0.048   2.924
 2187TIP3    H2 6484   6.667   0.146   2.838
 2188TIP3   OH2 6485   6.763  -0.074   2.508
 2188TIP3    H1 6486   6.858  -0.061   2.516
 2188TIP3    H2 6487   6.752  -0.080   2.411
 2189TIP3   OH2 6488   5.685   0.022   2.995
 2189TIP3    H1 6489   5.772   0.001   3.037
 2189TIP3    H2 6490   5.700  -0.021   2.908
 2190TIP3   OH2 6491   6.120   0.216   2.799
 2190TIP3    H1 6492   6.215   0.194   2.806
 2190TIP3    H2 6493   6.082   0.130   2.768
 2191TIP3   OH2 6494   7.397   0.263   3.017
 2191TIP3    H1 6495   7.302   0.285   3.022
 2191TIP3    H2 6496   7.402   0.183   3.073
 2192TIP3   OH2 6497   6.380   0.648   2.332
 2192TIP3    H1 6498   6.345   0.640   2.243
 2192TIP3    H2 6499   6.337   0.731   2.362
 2193TIP3   OH2 6500   6.151   0.573   3.115
 2193TIP3    H1 6501   6.092   0.644   3.151
 2193TIP3    H2 6502   6.195   0.620   3.041
 2194TIP3   OH2 6503   5.933  -0.067   3.073
 2194TIP3    H1 6504   6.002  -0.007   3.108
 2194TIP3    H2 6505   5.987  -0.133   3.026
 2195TIP3   OH2 6506   5.981   0.772   3.214
 2195TIP3    H1 6507   5.956   0.860   3.178
 2195TIP3    H2 6508   5.900   0.754   3.267
 2196TIP3   OH2 6509   5.367   0.461   2.452
 2196TIP3    H1 6510   5.330   0.489   2.366
 2196TIP3    H2 6511   5.401   0.547   2.487
 2197TIP3   OH2 6512   6.809   0.977   2.690
 2197TIP3    H1 6513   6.719   0.969   2.729
 2197TIP3    H2 6514   6.802   1.063   2.644
 2198TIP3   OH2 6515   6.506   1.020   2.358
 2198TIP3    H1 6516   6.557   0.937   2.341
 2198TIP3    H2 6517   6.571   1.085   2.322
 2199TIP3   OH2 6518   6.651   0.803   2.280
 2199TIP3    H1 6519   6.619   0.721   2.239
 2199TIP3    H2 6520   6.692   0.770   2.363
 2200TIP3   OH2 6521   7.034   0.887   3.034
 2200TIP3    H1 6522   7.021   0.810   2.974
 2200TIP3    H2 6523   7.015   0.962   2.974
 2201TIP3   OH2 6524   6.318   0.281   2.309
 2201TIP3    H1 6525   6.251   0.338   2.268
 2201TIP3    H2 6526   6.378   0.260   2.234
 2202TIP3   OH2 6527   7.223   0.523   2.876
 2202TIP3    H1 6528   7.142   0.579   2.880
 2202TIP3    H2 6529   7.258   0.550   2.789
 2203TIP3   OH2 6530   6.689   0.395   2.278
 2203TIP3    H1 6531   6.630   0.412   2.355
 2203TIP3    H2 6532   6.773   0.375   2.322
 2204TIP3   OH2 6533   6.901   0.416   3.175
 2204TIP3    H1 6534   6.900   0.498   3.227
 2204TIP3    H2 6535   6.813   0.422   3.131
 2205TIP3   OH2 6536   5.909   0.357   2.683
 2205TIP3    H1 6537   5.873   0.300   2.612
 2205TIP3    H2 6538   5.986   0.305   2.715
 2206TIP3   OH2 6539   6.036   0.771   2.829
 2206TIP3    H1 6540   6.019   0.740   2.738
 2206TIP3    H2 6541   6.125   0.734   2.846
 2207TIP3   OH2 6542   6.040   0.331   3.041
 2207TIP3    H1 6543   6.072   0.302   2.953
 2207TIP3    H2 6544   6.086   0.416   3.054
 2208TIP3   OH2 6545   6.569   0.970   2.813
 2208TIP3    H1 6546   6.556   1.051   2.866
 2208TIP3    H2 6547   6.552   0.899   2.878
 2209TIP3   OH2 6548   6.184   0.887   3.362
 2209TIP3    H1 6549   6.122   0.948   3.407
 2209TIP3    H2 6550   6.120   0.834   3.309
 2210TIP3   OH2 6551   6.527   0.210   2.150
 2210TIP3    H1 6552   6.595   0.271   2.186
 2210TIP3    H2 6553   6.549   0.207   2.056
 2211TIP3   OH2 6554   5.941   0.437   3.472
 2211TIP3    H1 6555   5.944   0.529   3.507
 2211TIP3    H2 6556   5.845   0.421   3.476
 2212TIP3   OH2 6557   6.261   0.898   2.369
 2212TIP3    H1 6558   6.345   0.949   2.372
 2212TIP3    H2 6559   6.203   0.958   2.319
 2213TIP3   OH2 6560   5.977   1.050   3.448
 2213TIP3    H1 6561   5.941   1.057   3.358
 2213TIP3    H2 6562   5.897   1.028   3.500
 2214TIP3   OH2 6563   5.781   0.205   2.476
 2214TIP3    H1 6564   5.704   0.243   2.430
 2214TIP3    H2 6565   5.747   0.121   2.508
 2215TIP3   OH2 6566   6.831   0.833   1.708
 2215TIP3    H1 6567   6.837   0.928   1.687
 2215TIP3    H2 6568   6.841   0.793   1.620
 2216TIP3   OH2 6569   5.554   0.585   3.396
 2216TIP3    H1 6570   5.488   0.567   3.327
 2216TIP3    H2 6571   5.591   0.497   3.415
 2217TIP3   OH2 6572   5.412   0.781   3.023
 2217TIP3    H1 6573   5.508   0.774   3.016
 2217TIP3    H2 6574   5.403   0.857   3.083
 2218TIP3   OH2 6575   7.274   1.238   3.086
 2218TIP3    H1 6576   7.273   1.141   3.100
 2218TIP3    H2 6577   7.190   1.262   3.130
 2219TIP3   OH2 6578   6.379   1.015   3.218
 2219TIP3    H1 6579   6.376   1.108   3.249
 2219TIP3    H2 6580   6.308   0.975   3.272
 2220TIP3   OH2 6581   6.143   1.140   2.173
 2220TIP3    H1 6582   6.103   1.123   2.086
 2220TIP3    H2 6583   6.110   1.230   2.195
 2221TIP3   OH2 6584   5.578   0.993   2.557
 2221TIP3    H1 6585   5.627   0.986   2.642
 2221TIP3    H2 6586   5.530   0.909   2.556
 2222TIP3   OH2 6587   6.345   1.051   1.811
 2222TIP3    H1 6588   6.403   0.980   1.775
 2222TIP3    H2 6589   6.381   1.060   1.902
 2223TIP3   OH2 6590   6.395   1.098   2.082
 2223TIP3    H1 6591   6.306   1.105   2.123
 2223TIP3    H2 6592   6.447   1.061   2.155
 2224TIP3   OH2 6593   7.159   0.341   3.348
 2224TIP3    H1 6594   7.082   0.396   3.330
 2224TIP3    H2 6595   7.155   0.279   3.273
 2225TIP3   OH2 6596   5.759   0.769   3.375
 2225TIP3    H1 6597   5.807   0.756   3.459
 2225TIP3    H2 6598   5.685   0.705   3.384
 2226TIP3   OH2 6599   6.913   0.161   3.282
 2226TIP3    H1 6600   6.909   0.199   3.371
 2226TIP3    H2 6601   6.903   0.242   3.228
 2227TIP3   OH2 6602   6.112   0.112   3.192
 2227TIP3    H1 6603   6.052   0.125   3.268
 2227TIP3    H2 6604   6.092   0.192   3.139
 2228TIP3   OH2 6605   5.992  -0.006   2.704
 2228TIP3    H1 6606   5.900  -0.027   2.727
 2228TIP3    H2 6607   5.995  -0.037   2.611
 2229TIP3   OH2 6608   6.467   0.087   2.440
 2229TIP3    H1 6609   6.414   0.157   2.397
 2229TIP3    H2 6610   6.500   0.038   2.361
 2230TIP3   OH2 6611   6.636   0.356   3.502
 2230TIP3    H1 6612   6.610   0.299   3.578
 2230TIP3    H2 6613   6.731   0.372   3.524
 2231TIP3   OH2 6614   6.618   0.126   2.667
 2231TIP3    H1 6615   6.559   0.144   2.591
 2231TIP3    H2 6616   6.652   0.039   2.637
 2232TIP3   OH2 6617   5.909   0.145   3.385
 2232TIP3    H1 6618   5.935   0.209   3.454
 2232TIP3    H2 6619   5.846   0.089   3.432
 2233TIP3   OH2 6620   5.504  -0.282   2.486
 2233TIP3    H1 6621   5.529  -0.232   2.405
 2233TIP3    H2 6622   5.454  -0.213   2.534
 2234TIP3   OH2 6623   6.631   0.348   3.084
 2234TIP3    H1 6624   6.666   0.277   3.025
 2234TIP3    H2 6625   6.605   0.294   3.161
 2235TIP3   OH2 6626   5.731  -0.087   2.749
 2235TIP3    H1 6627   5.636  -0.090   2.726
 2235TIP3    H2 6628   5.752  -0.182   2.763
 2236TIP3   OH2 6629   6.016  -0.118   2.458
 2236TIP3    H1 6630   6.109  -0.114   2.430
 2236TIP3    H2 6631   5.965  -0.113   2.374
 2237TIP3   OH2 6632   5.848  -0.102   2.238
 2237TIP3    H1 6633   5.760  -0.126   2.207
 2237TIP3    H2 6634   5.892  -0.072   2.156
 2238TIP3   OH2 6635   6.969   1.581   3.184
 2238TIP3    H1 6636   6.966   1.607   3.090
 2238TIP3    H2 6637   7.049   1.629   3.215
 2239TIP3   OH2 6638   5.923   0.689   3.603
 2239TIP3    H1 6639   6.002   0.721   3.650
 2239TIP3    H2 6640   5.856   0.696   3.674
 2240TIP3   OH2 6641   6.385   0.142   2.856
 2240TIP3    H1 6642   6.458   0.105   2.803
 2240TIP3    H2 6643   6.392   0.092   2.938
 2241TIP3   OH2 6644   6.381   0.038   3.158
 2241TIP3    H1 6645   6.287   0.064   3.168
 2241TIP3    H2 6646   6.427   0.112   3.203
 2242TIP3   OH2 6647   6.092   0.441   2.233
 2242TIP3    H1 6648   6.020   0.375   2.227
 2242TIP3    H2 6649   6.079   0.473   2.326
 2243TIP3   OH2 6650   6.993   0.671   2.868
 2243TIP3    H1 6651   7.018   0.723   2.788
 2243TIP3    H2 6652   6.908   0.630   2.841
 2244TIP3   OH2 6653   6.493   0.749   3.243
 2244TIP3    H1 6654   6.529   0.740   3.331
 2244TIP3    H2 6655   6.458   0.840   3.243
 2245TIP3   OH2 6656   5.790   0.453   2.914
 2245TIP3    H1 6657   5.829   0.426   2.828
 2245TIP3    H2 6658   5.839   0.397   2.976
 2246TIP3   OH2 6659   6.244   0.585   2.051
 2246TIP3    H1 6660   6.196   0.671   2.061
 2246TIP3    H2 6661   6.192   0.530   2.114
 2247TIP3   OH2 6662   5.674   0.369   3.532
 2247TIP3    H1 6663   5.691   0.356   3.627
 2247TIP3    H2 6664   5.609   0.299   3.513
 2248TIP3   OH2 6665   6.396   0.490   3.556
 2248TIP3    H1 6666   6.334   0.428   3.515
 2248TIP3    H2 6667   6.482   0.457   3.522
 2249TIP3   OH2 6668   6.655   1.007   3.141
 2249TIP3    H1 6669   6.558   1.011   3.152
 2249TIP3    H2 6670   6.684   1.062   3.216
 2250TIP3   OH2 6671   7.284   0.951   3.120
 2250TIP3    H1 6672   7.186   0.946   3.109
 2250TIP3    H2 6673   7.313   0.917   3.032
 2251TIP3   OH2 6674   6.757   0.909   1.965
 2251TIP3    H1 6675   6.739   0.833   2.022
 2251TIP3    H2 6676   6.783   0.868   1.880
 2252TIP3   OH2 6677   6.759   0.537   2.789
 2252TIP3    H1 6678   6.665   0.513   2.800
 2252TIP3    H2 6679   6.793   0.457   2.743
 2253TIP3   OH2 6680   5.896   0.762   2.546
 2253TIP3    H1 6681   5.895   0.842   2.489
 2253TIP3    H2 6682   5.802   0.745   2.555
 2254TIP3   OH2 6683   5.446   0.085   2.240
 2254TIP3    H1 6684   5.495   0.166   2.267
 2254TIP3    H2 6685   5.373   0.085   2.306
 2255TIP3   OH2 6686   6.020   0.522   2.482
 2255TIP3    H1 6687   5.990   0.613   2.503
 2255TIP3    H2 6688   5.990   0.473   2.560
 2256TIP3   OH2 6689   6.163   1.102   3.010
 2256TIP3    H1 6690   6.205   1.175   2.960
 2256TIP3    H2 6691   6.240   1.066   3.057
 2257TIP3   OH2 6692   5.810   1.000   2.395
 2257TIP3    H1 6693   5.724   1.010   2.441
 2257TIP3    H2 6694   5.844   1.092   2.398
 2258TIP3   OH2 6695   6.544   0.738   2.973
 2258TIP3    H1 6696   6.535   0.735   3.071
 2258TIP3    H2 6697   6.626   0.688   2.960
 2259TIP3   OH2 6698   6.500   0.608   1.869
 2259TIP3    H1 6699   6.570   0.595   1.936
 2259TIP3    H2 6700   6.422   0.612   1.925
 2260TIP3   OH2 6701   6.796   1.268   3.019
 2260TIP3    H1 6702   6.714   1.215   3.011
 2260TIP3    H2 6703   6.782   1.334   2.947
 2261TIP3   OH2 6704   6.861   1.107   1.669
 2261TIP3    H1 6705   6.897   1.182   1.618
 2261TIP3    H2 6706   6.781   1.151   1.706
 2262TIP3   OH2 6707   6.680   0.568   2.068
 2262TIP3    H1 6708   6.667   0.506   2.143
 2262TIP3    H2 6709   6.778   0.565   2.063
 2263TIP3   OH2 6710   5.598   0.964   3.169
 2263TIP3    H1 6711   5.657   0.898   3.208
 2263TIP3    H2 6712   5.620   1.043   3.221
 2264TIP3   OH2 6713   5.901   0.613   1.861
 2264TIP3    H1 6714   5.896   0.519   1.838
 2264TIP3    H2 6715   5.873   0.610   1.955
 2265TIP3   OH2 6716   5.832   0.616   2.129
 2265TIP3    H1 6717   5.911   0.592   2.179
 2265TIP3    H2 6718   5.834   0.715   2.135
 2266TIP3   OH2 6719   5.566   0.312   2.335
 2266TIP3    H1 6720   5.500   0.358   2.390
 2266TIP3    H2 6721   5.581   0.380   2.267
 2267TIP3   OH2 6722   6.101   0.812   2.079
 2267TIP3    H1 6723   6.014   0.842   2.113
 2267TIP3    H2 6724   6.114   0.875   2.007
 2268TIP3   OH2 6725   6.298  -0.136   2.488
 2268TIP3    H1 6726   6.359  -0.083   2.435
 2268TIP3    H2 6727   6.319  -0.104   2.576
 2269TIP3   OH2 6728   6.574   0.186   3.300
 2269TIP3    H1 6729   6.580   0.260   3.365
 2269TIP3    H2 6730   6.603   0.112   3.356
 2270TIP3   OH2 6731   5.844   0.888   2.143
 2270TIP3    H1 6732   5.818   0.959   2.080
 2270TIP3    H2 6733   5.830   0.932   2.229
 2271TIP3   OH2 6734   6.841   0.297   2.671
 2271TIP3    H1 6735   6.763   0.238   2.678
 2271TIP3    H2 6736   6.911   0.247   2.719
 2272TIP3   OH2 6737   5.558   0.519   2.139
 2272TIP3    H1 6738   5.626   0.589   2.145
 2272TIP3    H2 6739   5.603   0.459   2.076
 2273TIP3   OH2 6740   5.522  -0.173   2.244
 2273TIP3    H1 6741   5.506  -0.076   2.241
 2273TIP3    H2 6742   5.458  -0.203   2.178
 2274TIP3   OH2 6743   6.818   1.247   2.612
 2274TIP3    H1 6744   6.775   1.295   2.538
 2274TIP3    H2 6745   6.912   1.267   2.592
 2275TIP3   OH2 6746   5.428   0.727   2.518
 2275TIP3    H1 6747   5.368   0.759   2.586
 2275TIP3    H2 6748   5.394   0.774   2.438
 2276TIP3   OH2 6749   5.593   1.274   3.585
 2276TIP3    H1 6750   5.678   1.282   3.634
 2276TIP3    H2 6751   5.577   1.178   3.589
 2277TIP3   OH2 6752   6.067   1.231   3.641
 2277TIP3    H1 6753   6.163   1.218   3.644
 2277TIP3    H2 6754   6.043   1.170   3.568
 2278TIP3   OH2 6755   6.060   0.822   1.776
 2278TIP3    H1 6756   6.007   0.743   1.803
 2278TIP3    H2 6757   6.123   0.783   1.712
 2279TIP3   OH2 6758   6.709   1.145   3.372
 2279TIP3    H1 6759   6.703   1.076   3.442
 2279TIP3    H2 6760   6.786   1.198   3.402
 2280TIP3   OH2 6761   6.494   0.849   1.700
 2280TIP3    H1 6762   6.549   0.786   1.749
 2280TIP3    H2 6763   6.544   0.859   1.616
 2281TIP3   OH2 6764   5.717   0.679   3.792
 2281TIP3    H1 6765   5.722   0.582   3.798
 2281TIP3    H2 6766   5.631   0.691   3.747
 2282TIP3   OH2 6767   5.694   0.326   2.008
 2282TIP3    H1 6768   5.752   0.303   2.083
 2282TIP3    H2 6769   5.761   0.330   1.936
 2283TIP3   OH2 6770   6.326   0.769   3.569
 2283TIP3    H1 6771   6.287   0.791   3.482
 2283TIP3    H2 6772   6.358   0.677   3.556
 2284TIP3   OH2 6773   6.226   0.500   1.786
 2284TIP3    H1 6774   6.235   0.533   1.878
 2284TIP3    H2 6775   6.155   0.436   1.797
 2285TIP3   OH2 6776   6.816   0.781   3.174
 2285TIP3    H1 6777   6.894   0.821   3.131
 2285TIP3    H2 6778   6.750   0.851   3.158
 2286TIP3   OH2 6779   5.848   0.405   3.780
 2286TIP3    H1 6780   5.931   0.377   3.739
 2286TIP3    H2 6781   5.878   0.464   3.851
 2287TIP3   OH2 6782   5.893   0.243   2.219
 2287TIP3    H1 6783   5.868   0.223   2.311
 2287TIP3    H2 6784   5.929   0.158   2.189
 2288TIP3   OH2 6785   6.185   0.306   3.441
 2288TIP3    H1 6786   6.103   0.359   3.440
 2288TIP3    H2 6787   6.230   0.336   3.359
 2289TIP3   OH2 6788   5.993   0.041   2.043
 2289TIP3    H1 6789   5.949   0.090   1.971
 2289TIP3    H2 6790   6.085   0.074   2.036
 2290TIP3   OH2 6791   6.691   0.700   3.569
 2290TIP3    H1 6792   6.768   0.668   3.521
 2290TIP3    H2 6793   6.685   0.636   3.642
 2291TIP3   OH2 6794   6.299   0.102   3.579
 2291TIP3    H1 6795   6.281   0.018   3.535
 2291TIP3    H2 6796   6.257   0.167   3.518
 2292TIP3   OH2 6797   6.331   0.407   3.237
 2292TIP3    H1 6798   6.414   0.432   3.195
 2292TIP3    H2 6799   6.269   0.472   3.197
 2293TIP3   OH2 6800   6.903   0.366   3.581
 2293TIP3    H1 6801   6.927   0.328   3.666
 2293TIP3    H2 6802   6.964   0.440   3.570
 2294TIP3   OH2 6803   6.944   0.632   3.357
 2294TIP3    H1 6804   6.882   0.687   3.303
 2294TIP3    H2 6805   7.028   0.664   3.317
 2295TIP3   OH2 6806   6.134   0.214   3.790
 2295TIP3    H1 6807   6.121   0.125   3.825
 2295TIP3    H2 6808   6.200   0.196   3.720
 2296TIP3   OH2 6809   6.535   0.189   3.689
 2296TIP3    H1 6810   6.531   0.164   3.783
 2296TIP3    H2 6811   6.453   0.151   3.654
 2297TIP3   OH2 6812   5.815   1.085   1.951
 2297TIP3    H1 6813   5.911   1.087   1.934
 2297TIP3    H2 6814   5.784   1.130   1.869
 2298TIP3   OH2 6815   5.291   0.473   2.175
 2298TIP3    H1 6816   5.385   0.498   2.158
 2298TIP3    H2 6817   5.286   0.385   2.132
 2299TIP3   OH2 6818   5.206   1.083   2.594
 2299TIP3    H1 6819   5.145   1.020   2.552
 2299TIP3    H2 6820   5.254   1.024   2.656
 2300TIP3   OH2 6821   5.344   0.928   2.775
 2300TIP3    H1 6822   5.336   0.860   2.844
 2300TIP3    H2 6823   5.397   0.994   2.824
 2301TIP3   OH2 6824   7.074   1.333   2.575
 2301TIP3    H1 6825   7.101   1.368   2.662
 2301TIP3    H2 6826   7.140   1.370   2.516
 2302TIP3   OH2 6827   7.099   1.356   2.859
 2302TIP3    H1 6828   7.056   1.268   2.853
 2302TIP3    H2 6829   7.177   1.332   2.912
 2303TIP3   OH2 6830   7.150   1.030   3.432
 2303TIP3    H1 6831   7.077   1.042   3.496
 2303TIP3    H2 6832   7.192   1.119   3.434
 2304TIP3   OH2 6833   6.946   0.540   2.042
 2304TIP3    H1 6834   7.003   0.617   2.021
 2304TIP3    H2 6835   7.001   0.493   2.108
 2305TIP3   OH2 6836   7.090   0.413   2.240
 2305TIP3    H1 6837   7.023   0.384   2.306
 2305TIP3    H2 6838   7.165   0.439   2.297
 2306TIP3   OH2 6839   7.150   0.808   2.685
 2306TIP3    H1 6840   7.200   0.740   2.635
 2306TIP3    H2 6841   7.148   0.882   2.621
 2307TIP3   OH2 6842   6.974   1.105   2.877
 2307TIP3    H1 6843   6.903   1.149   2.926
 2307TIP3    H2 6844   6.925   1.061   2.804
 2308TIP3   OH2 6845   6.911   0.292   2.409
 2308TIP3    H1 6846   6.905   0.197   2.397
 2308TIP3    H2 6847   6.888   0.303   2.504
 2309TIP3   OH2 6848   5.529   0.343   3.146
 2309TIP3    H1 6849   5.526   0.308   3.054
 2309TIP3    H2 6850   5.626   0.346   3.162
 2310TIP3   OH2 6851   7.177   0.714   3.249
 2310TIP3    H1 6852   7.251   0.650   3.241
 2310TIP3    H2 6853   7.202   0.784   3.186
 2311TIP3   OH2 6854   7.357   0.524   3.288
 2311TIP3    H1 6855   7.290   0.458   3.315
 2311TIP3    H2 6856   7.437   0.469   3.299
 2312TIP3   OH2 6857   7.059   0.175   2.788
 2312TIP3    H1 6858   7.143   0.197   2.742
 2312TIP3    H2 6859   7.077   0.213   2.876
 2313TIP3   OH2 6860   7.119   0.319   3.023
 2313TIP3    H1 6861   7.037   0.356   3.062
 2313TIP3    H2 6862   7.151   0.396   2.970
 2314TIP3   OH2 6863   5.719   0.058   3.862
 2314TIP3    H1 6864   5.802   0.018   3.830
 2314TIP3    H2 6865   5.662  -0.019   3.862
 2315TIP3   OH2 6866   5.504   0.008   3.206
 2315TIP3    H1 6867   5.564   0.009   3.129
 2315TIP3    H2 6868   5.538   0.081   3.258
 2316TIP3   OH2 6869   6.658   1.203   2.232
 2316TIP3    H1 6870   6.706   1.193   2.147
 2316TIP3    H2 6871   6.711   1.271   2.276
 2317TIP3   OH2 6872   5.758   0.998   3.612
 2317TIP3    H1 6873   5.663   0.980   3.598
 2317TIP3    H2 6874   5.765   0.997   3.708
 2318TIP3   OH2 6875   5.938   1.043   3.160
 2318TIP3    H1 6876   5.890   1.119   3.122
 2318TIP3    H2 6877   6.023   1.056   3.115
 2319TIP3   OH2 6878   6.375   1.282   3.296
 2319TIP3    H1 6879   6.416   1.282   3.385
 2319TIP3    H2 6880   6.440   1.335   3.246
 2320TIP3   OH2 6881   6.555   1.438   3.161
 2320TIP3    H1 6882   6.626   1.389   3.117
 2320TIP3    H2 6883   6.608   1.495   3.222
 2321TIP3   OH2 6884   5.610   1.293   3.190
 2321TIP3    H1 6885   5.521   1.327   3.166
 2321TIP3    H2 6886   5.626   1.344   3.271
 2322TIP3   OH2 6887   5.846   1.275   3.046
 2322TIP3    H1 6888   5.758   1.287   3.089
 2322TIP3    H2 6889   5.827   1.308   2.956
 2323TIP3   OH2 6890   6.271   1.300   2.844
 2323TIP3    H1 6891   6.204   1.319   2.776
 2323TIP3    H2 6892   6.284   1.389   2.885
 2324TIP3   OH2 6893   6.542   1.239   2.896
 2324TIP3    H1 6894   6.448   1.258   2.876
 2324TIP3    H2 6895   6.587   1.311   2.849
 2325TIP3   OH2 6896   6.744   1.431   2.805
 2325TIP3    H1 6897   6.732   1.516   2.758
 2325TIP3    H2 6898   6.773   1.372   2.732
 2326TIP3   OH2 6899   5.521   1.088   2.928
 2326TIP3    H1 6900   5.548   1.060   3.018
 2326TIP3    H2 6901   5.594   1.046   2.877
 2327TIP3   OH2 6902   5.718   0.962   2.789
 2327TIP3    H1 6903   5.733   0.878   2.839
 2327TIP3    H2 6904   5.809   0.998   2.786
 2328TIP3   OH2 6905   5.984   1.053   2.796
 2328TIP3    H1 6906   6.015   0.962   2.784
 2328TIP3    H2 6907   6.034   1.077   2.877
 2329TIP3   OH2 6908   5.306   0.870   2.324
 2329TIP3    H1 6909   5.223   0.835   2.287
 2329TIP3    H2 6910   5.302   0.961   2.291
 2330TIP3   OH2 6911   6.086   1.057   1.907
 2330TIP3    H1 6912   6.173   1.079   1.869
 2330TIP3    H2 6913   6.065   0.981   1.848
 2331TIP3   OH2 6914   6.802   1.174   1.998
 2331TIP3    H1 6915   6.789   1.076   1.991
 2331TIP3    H2 6916   6.755   1.203   1.917
 2332TIP3   OH2 6917   5.376   0.858   1.967
 2332TIP3    H1 6918   5.399   0.909   2.046
 2332TIP3    H2 6919   5.464   0.826   1.938
 2333TIP3   OH2 6920   7.023   1.311   3.183
 2333TIP3    H1 6921   6.946   1.282   3.131
 2333TIP3    H2 6922   7.006   1.407   3.189
 2334TIP3   OH2 6923   7.592   0.584   2.690
 2334TIP3    H1 6924   7.619   0.512   2.750
 2334TIP3    H2 6925   7.662   0.648   2.708
 2335TIP3   OH2 6926   7.543   0.977   2.425
 2335TIP3    H1 6927   7.531   0.881   2.433
 2335TIP3    H2 6928   7.638   0.980   2.398
 2336TIP3   OH2 6929   7.331   0.472   2.382
 2336TIP3    H1 6930   7.394   0.401   2.408
 2336TIP3    H2 6931   7.389   0.536   2.337
 2337TIP3   OH2 6932   4.064   7.109   9.330
 2337TIP3    H1 6933   4.125   7.082   9.402
 2337TIP3    H2 6934   4.073   7.034   9.271
 2338TIP3   OH2 6935   7.934   0.841   2.590
 2338TIP3    H1 6936   7.870   0.895   2.641
 2338TIP3    H2 6937   7.943   0.898   2.511
 2339TIP3   OH2 6938   7.758   1.023   2.696
 2339TIP3    H1 6939   7.742   1.112   2.657
 2339TIP3    H2 6940   7.678   1.015   2.752
 2340TIP3   OH2 6941   7.111   0.737   1.954
 2340TIP3    H1 6942   7.167   0.730   1.875
 2340TIP3    H2 6943   7.150   0.816   1.994
 2341TIP3   OH2 6944   7.797   0.951   2.323
 2341TIP3    H1 6945   7.804   0.929   2.228
 2341TIP3    H2 6946   7.868   1.018   2.330
 2342TIP3   OH2 6947   7.842   0.596   2.511
 2342TIP3    H1 6948   7.902   0.583   2.437
 2342TIP3    H2 6949   7.872   0.683   2.544
 2343TIP3   OH2 6950   7.950   1.100   2.886
 2343TIP3    H1 6951   7.904   1.182   2.911
 2343TIP3    H2 6952   7.887   1.063   2.822
 2344TIP3   OH2 6953   7.726   0.704   2.946
 2344TIP3    H1 6954   7.733   0.791   2.990
 2344TIP3    H2 6955   7.632   0.682   2.966
 2345TIP3   OH2 6956   7.770   1.320   2.935
 2345TIP3    H1 6957   7.738   1.320   2.842
 2345TIP3    H2 6958   7.688   1.296   2.985
 2346TIP3   OH2 6959   7.350   0.842   2.883
 2346TIP3    H1 6960   7.283   0.824   2.814
 2346TIP3    H2 6961   7.385   0.753   2.902
 2347TIP3   OH2 6962   7.209   1.034   2.516
 2347TIP3    H1 6963   7.305   1.034   2.502
 2347TIP3    H2 6964   7.198   1.115   2.569
 2348TIP3   OH2 6965   7.875   1.372   1.684
 2348TIP3    H1 6966   7.875   1.350   1.590
 2348TIP3    H2 6967   7.895   1.467   1.683
 2349TIP3   OH2 6968   7.375   1.251   2.038
 2349TIP3    H1 6969   7.417   1.238   2.126
 2349TIP3    H2 6970   7.324   1.168   2.030
 2350TIP3   OH2 6971   7.550   1.029   2.869
 2350TIP3    H1 6972   7.602   1.011   2.950
 2350TIP3    H2 6973   7.477   0.964   2.877
 2351TIP3   OH2 6974   7.888   0.371   2.680
 2351TIP3    H1 6975   7.812   0.371   2.740
 2351TIP3    H2 6976   7.863   0.436   2.613
 2352TIP3   OH2 6977   7.692   0.404   2.873
 2352TIP3    H1 6978   7.728   0.464   2.941
 2352TIP3    H2 6979   7.636   0.345   2.925
 2353TIP3   OH2 6980   7.713   0.945   3.089
 2353TIP3    H1 6981   7.795   0.978   3.131
 2353TIP3    H2 6982   7.651   0.949   3.164
 2354TIP3   OH2 6983   7.575   0.688   2.404
 2354TIP3    H1 6984   7.649   0.720   2.350
 2354TIP3    H2 6985   7.622   0.642   2.476
 2355TIP3   OH2 6986   7.469   0.626   3.018
 2355TIP3    H1 6987   7.489   0.618   3.114
 2355TIP3    H2 6988   7.407   0.552   3.005
 2356TIP3   OH2 6989   7.677   1.038   2.040
 2356TIP3    H1 6990   7.663   1.120   1.989
 2356TIP3    H2 6991   7.590   0.997   2.038
 2357TIP3   OH2 6992   7.957   1.378   2.522
 2357TIP3    H1 6993   7.982   1.428   2.441
 2357TIP3    H2 6994   8.041   1.337   2.546
 2358TIP3   OH2 6995   7.611   1.262   1.892
 2358TIP3    H1 6996   7.525   1.275   1.937
 2358TIP3    H2 6997   7.647   1.353   1.894
 2359TIP3   OH2 6998   7.394   1.222   2.656
 2359TIP3    H1 6999   7.451   1.152   2.690
 2359TIP3    H2 7000   7.424   1.298   2.709
 2360TIP3   OH2 7001   7.612   1.163   1.637
 2360TIP3    H1 7002   7.604   1.244   1.585
 2360TIP3    H2 7003   7.604   1.198   1.728
 2361TIP3   OH2 7004   7.228   0.989   2.003
 2361TIP3    H1 7005   7.168   1.022   2.071
 2361TIP3    H2 7006   7.190   1.030   1.922
 2362TIP3   OH2 7007   7.390   1.538   3.080
 2362TIP3    H1 7008   7.476   1.538   3.127
 2362TIP3    H2 7009   7.370   1.443   3.078
 2363TIP3   OH2 7010   7.871   1.501   3.121
 2363TIP3    H1 7011   7.963   1.468   3.130
 2363TIP3    H2 7012   7.839   1.439   3.052
 2364TIP3   OH2 7013   7.511   0.939   3.281
 2364TIP3    H1 7014   7.522   0.843   3.290
 2364TIP3    H2 7015   7.426   0.945   3.233
 2365TIP3   OH2 7016   7.637   0.666   3.261
 2365TIP3    H1 7017   7.724   0.631   3.234
 2365TIP3    H2 7018   7.661   0.713   3.344
 2366TIP3   OH2 7019   7.965   0.568   2.934
 2366TIP3    H1 7020   7.889   0.629   2.931
 2366TIP3    H2 7021   7.965   0.527   2.847
 2367TIP3   OH2 7022   7.936   0.473   3.264
 2367TIP3    H1 7023   7.911   0.380   3.277
 2367TIP3    H2 7024   7.979   0.472   3.177
 2368TIP3   OH2 7025   7.008   1.341   2.076
 2368TIP3    H1 7026   6.942   1.281   2.035
 2368TIP3    H2 7027   7.052   1.279   2.138
 2369TIP3   OH2 7028   7.141   1.183   2.259
 2369TIP3    H1 7029   7.128   1.116   2.328
 2369TIP3    H2 7030   7.194   1.248   2.308
 2370TIP3   OH2 7031   7.325   0.596   2.633
 2370TIP3    H1 7032   7.320   0.561   2.541
 2370TIP3    H2 7033   7.423   0.600   2.645
 2371TIP3   OH2 7034   7.511   0.313   3.340
 2371TIP3    H1 7035   7.598   0.274   3.314
 2371TIP3    H2 7036   7.463   0.232   3.359
 2372TIP3   OH2 7037   7.305   0.258   2.695
 2372TIP3    H1 7038   7.362   0.271   2.617
 2372TIP3    H2 7039   7.327   0.336   2.749
 2373TIP3   OH2 7040   7.552   1.265   3.101
 2373TIP3    H1 7041   7.459   1.241   3.084
 2373TIP3    H2 7042   7.560   1.247   3.195
 2374TIP3   OH2 7043   7.728   1.299   2.653
 2374TIP3    H1 7044   7.679   1.370   2.607
 2374TIP3    H2 7045   7.817   1.319   2.615
 2375TIP3   OH2 7046   7.402   1.550   2.678
 2375TIP3    H1 7047   7.312   1.583   2.654
 2375TIP3    H2 7048   7.418   1.604   2.757
 2376TIP3   OH2 7049   7.632   1.524   2.531
 2376TIP3    H1 7050   7.545   1.537   2.574
 2376TIP3    H2 7051   7.614   1.558   2.440
 2377TIP3   OH2 7052   8.087   1.677   2.289
 2377TIP3    H1 7053   7.994   1.684   2.263
 2377TIP3    H2 7054   8.089   1.712   2.379
 2378TIP3   OH2 7055   7.311   1.348   2.419
 2378TIP3    H1 7056   7.342   1.321   2.508
 2378TIP3    H2 7057   7.379   1.300   2.365
 2379TIP3   OH2 7058   7.487   1.201   2.279
 2379TIP3    H1 7059   7.503   1.117   2.328
 2379TIP3    H2 7060   7.578   1.238   2.280
 2380TIP3   OH2 7061   7.735   1.297   2.297
 2380TIP3    H1 7062   7.801   1.256   2.239
 2380TIP3    H2 7063   7.793   1.343   2.360
 2381TIP3   OH2 7064   7.104   1.123   1.803
 2381TIP3    H1 7065   7.016   1.091   1.774
 2381TIP3    H2 7066   7.096   1.217   1.777
 2382TIP3   OH2 7067   7.239   1.231   1.490
 2382TIP3    H1 7068   7.184   1.210   1.567
 2382TIP3    H2 7069   7.259   1.142   1.456
 2383TIP3   OH2 7070   0.716   1.485   3.648
 2383TIP3    H1 7071   0.728   1.577   3.617
 2383TIP3    H2 7072   0.621   1.491   3.665
 2384TIP3   OH2 7073   0.744   1.468   4.028
 2384TIP3    H1 7074   0.784   1.460   4.116
 2384TIP3    H2 7075   0.702   1.380   4.020
 2385TIP3   OH2 7076   0.041   1.395   4.399
 2385TIP3    H1 7077   0.082   1.327   4.455
 2385TIP3    H2 7078   0.109   1.409   4.332
 2386TIP3   OH2 7079   0.988   1.767   3.710
 2386TIP3    H1 7080   0.981   1.713   3.790
 2386TIP3    H2 7081   1.017   1.853   3.747
 2387TIP3   OH2 7082   0.024   1.778   4.097
 2387TIP3    H1 7083   0.014   1.704   4.158
 2387TIP3    H2 7084   0.120   1.790   4.093
 2388TIP3   OH2 7085   0.635   2.234   3.715
 2388TIP3    H1 7086   0.682   2.161   3.670
 2388TIP3    H2 7087   0.633   2.204   3.807
 2389TIP3   OH2 7088   0.547   1.695   4.068
 2389TIP3    H1 7089   0.594   1.619   4.030
 2389TIP3    H2 7090   0.626   1.747   4.095
 2390TIP3   OH2 7091   1.564   1.022   4.068
 2390TIP3    H1 7092   1.588   1.106   4.113
 2390TIP3    H2 7093   1.571   1.048   3.975
 2391TIP3   OH2 7094   0.971   1.204   4.103
 2391TIP3    H1 7095   1.013   1.117   4.119
 2391TIP3    H2 7096   0.926   1.188   4.018
 2392TIP3   OH2 7097   0.980   0.956   3.721
 2392TIP3    H1 7098   1.069   0.944   3.759
 2392TIP3    H2 7099   0.991   0.927   3.629
 2393TIP3   OH2 7100   1.633   1.230   4.239
 2393TIP3    H1 7101   1.548   1.277   4.221
 2393TIP3    H2 7102   1.657   1.269   4.325
 2394TIP3   OH2 7103   0.638   1.709   3.517
 2394TIP3    H1 7104   0.611   1.671   3.430
 2394TIP3    H2 7105   0.584   1.790   3.522
 2395TIP3   OH2 7106   0.396   1.620   4.294
 2395TIP3    H1 7107   0.336   1.689   4.331
 2395TIP3    H2 7108   0.441   1.669   4.223
 2396TIP3   OH2 7109   1.210   0.955   3.871
 2396TIP3    H1 7110   1.197   0.928   3.963
 2396TIP3    H2 7111   1.255   1.041   3.884
 2397TIP3   OH2 7112   0.223   1.817   4.387
 2397TIP3    H1 7113   0.205   1.908   4.355
 2397TIP3    H2 7114   0.144   1.805   4.444
 2398TIP3   OH2 7115   1.056   2.018   3.859
 2398TIP3    H1 7116   0.967   2.012   3.902
 2398TIP3    H2 7117   1.051   2.107   3.818
 2399TIP3   OH2 7118   1.354   0.915   4.229
 2399TIP3    H1 7119   1.266   0.946   4.202
 2399TIP3    H2 7120   1.412   0.952   4.159
 2400TIP3   OH2 7121   0.756   2.058   3.536
 2400TIP3    H1 7122   0.807   1.976   3.515
 2400TIP3    H2 7123   0.822   2.124   3.503
 2401TIP3   OH2 7124   0.908   1.844   3.452
 2401TIP3    H1 7125   0.876   1.766   3.405
 2401TIP3    H2 7126   0.938   1.807   3.537
 2402TIP3   OH2 7127   1.283   1.928   4.214
 2402TIP3    H1 7128   1.271   1.853   4.151
 2402TIP3    H2 7129   1.263   2.005   4.156
 2403TIP3   OH2 7130   1.478   1.565   4.056
 2403TIP3    H1 7131   1.396   1.619   4.061
 2403TIP3    H2 7132   1.511   1.594   3.968
 2404TIP3   OH2 7133   0.938   1.441   3.467
 2404TIP3    H1 7134   0.889   1.472   3.545
 2404TIP3    H2 7135   1.024   1.415   3.504
 2405TIP3   OH2 7136   1.158   1.444   4.359
 2405TIP3    H1 7137   1.159   1.527   4.411
 2405TIP3    H2 7138   1.072   1.452   4.314
 2406TIP3   OH2 7139   0.295   1.809   4.010
 2406TIP3    H1 7140   0.286   1.766   3.925
 2406TIP3    H2 7141   0.386   1.783   4.036
 2407TIP3   OH2 7142   0.295   1.377   4.219
 2407TIP3    H1 7143   0.334   1.375   4.131
 2407TIP3    H2 7144   0.333   1.461   4.255
 2408TIP3   OH2 7145   0.819   2.013   3.989
 2408TIP3    H1 7146   0.805   2.098   4.035
 2408TIP3    H2 7147   0.801   1.947   4.059
 2409TIP3   OH2 7148   0.431   1.929   4.538
 2409TIP3    H1 7149   0.371   1.991   4.584
 2409TIP3    H2 7150   0.366   1.877   4.488
 2410TIP3   OH2 7151   0.204   1.498   4.644
 2410TIP3    H1 7152   0.208   1.585   4.689
 2410TIP3    H2 7153   0.121   1.508   4.594
 2411TIP3   OH2 7154   0.499   1.946   3.534
 2411TIP3    H1 7155   0.585   1.991   3.548
 2411TIP3    H2 7156   0.442   2.019   3.507
 2412TIP3   OH2 7157   0.225   2.095   4.625
 2412TIP3    H1 7158   0.191   2.105   4.534
 2412TIP3    H2 7159   0.142   2.082   4.676
 2413TIP3   OH2 7160   1.077   1.865   2.866
 2413TIP3    H1 7161   1.082   1.962   2.850
 2413TIP3    H2 7162   1.170   1.840   2.850
 2414TIP3   OH2 7163  -0.170   1.618   4.580
 2414TIP3    H1 7164  -0.227   1.605   4.503
 2414TIP3    H2 7165  -0.223   1.584   4.655
 2415TIP3   OH2 7166  -0.322   1.800   4.238
 2415TIP3    H1 7167  -0.241   1.823   4.192
 2415TIP3    H2 7168  -0.353   1.886   4.266
 2416TIP3   OH2 7169   1.525   2.280   4.266
 2416TIP3    H1 7170   1.520   2.185   4.283
 2416TIP3    H2 7171   1.441   2.309   4.308
 2417TIP3   OH2 7172   0.627   2.059   4.394
 2417TIP3    H1 7173   0.625   2.153   4.425
 2417TIP3    H2 7174   0.556   2.020   4.449
 2418TIP3   OH2 7175   0.382   2.186   3.355
 2418TIP3    H1 7176   0.330   2.187   3.273
 2418TIP3    H2 7177   0.365   2.276   3.389
 2419TIP3   OH2 7178   0.654   2.123   3.024
 2419TIP3    H1 7179   0.691   2.038   2.997
 2419TIP3    H2 7180   0.651   2.115   3.122
 2420TIP3   OH2 7181   0.642   2.141   3.292
 2420TIP3    H1 7182   0.549   2.150   3.322
 2420TIP3    H2 7183   0.686   2.111   3.374
 2421TIP3   OH2 7184   1.413   1.404   4.538
 2421TIP3    H1 7185   1.328   1.418   4.494
 2421TIP3    H2 7186   1.425   1.307   4.528
 2422TIP3   OH2 7187   0.008   1.822   4.556
 2422TIP3    H1 7188   0.067   1.806   4.633
 2422TIP3    H2 7189  -0.057   1.749   4.567
 2423TIP3   OH2 7190   0.955   0.748   4.536
 2423TIP3    H1 7191   1.024   0.720   4.600
 2423TIP3    H2 7192   0.872   0.739   4.588
 2424TIP3   OH2 7193   1.178   1.183   4.454
 2424TIP3    H1 7194   1.128   1.180   4.539
 2424TIP3    H2 7195   1.155   1.271   4.420
 2425TIP3   OH2 7196   0.362   1.158   4.370
 2425TIP3    H1 7197   0.302   1.178   4.445
 2425TIP3    H2 7198   0.333   1.228   4.308
 2426TIP3   OH2 7199   0.889   1.400   4.682
 2426TIP3    H1 7200   0.867   1.329   4.746
 2426TIP3    H2 7201   0.981   1.420   4.708
 2427TIP3   OH2 7202   0.870   1.163   3.853
 2427TIP3    H1 7203   0.826   1.208   3.780
 2427TIP3    H2 7204   0.903   1.082   3.807
 2428TIP3   OH2 7205   0.177   1.219   4.559
 2428TIP3    H1 7206   0.168   1.266   4.643
 2428TIP3    H2 7207   0.133   1.132   4.575
 2429TIP3   OH2 7208   0.877   1.400   4.262
 2429TIP3    H1 7209   0.914   1.329   4.205
 2429TIP3    H2 7210   0.846   1.345   4.338
 2430TIP3   OH2 7211   1.061   0.940   4.138
 2430TIP3    H1 7212   1.033   0.955   4.232
 2430TIP3    H2 7213   0.990   0.883   4.108
 2431TIP3   OH2 7214   1.218   2.626   4.360
 2431TIP3    H1 7215   1.214   2.655   4.267
 2431TIP3    H2 7216   1.295   2.677   4.393
 2432TIP3   OH2 7217   0.192   1.752   4.761
 2432TIP3    H1 7218   0.268   1.778   4.816
 2432TIP3    H2 7219   0.122   1.749   4.830
 2433TIP3   OH2 7220   0.648   1.207   4.044
 2433TIP3    H1 7221   0.713   1.154   3.997
 2433TIP3    H2 7222   0.635   1.159   4.128
 2434TIP3   OH2 7223   0.619   1.104   4.306
 2434TIP3    H1 7224   0.528   1.135   4.326
 2434TIP3    H2 7225   0.673   1.165   4.360
 2435TIP3   OH2 7226   1.246   1.712   4.043
 2435TIP3    H1 7227   1.272   1.766   3.965
 2435TIP3    H2 7228   1.160   1.675   4.015
 2436TIP3   OH2 7229   0.737   1.793   4.420
 2436TIP3    H1 7230   0.778   1.785   4.507
 2436TIP3    H2 7231   0.705   1.885   4.420
 2437TIP3   OH2 7232   0.648   1.536   4.735
 2437TIP3    H1 7233   0.581   1.476   4.699
 2437TIP3    H2 7234   0.730   1.500   4.697
 2438TIP3   OH2 7235   0.902   2.044   4.319
 2438TIP3    H1 7236   0.806   2.055   4.330
 2438TIP3    H2 7237   0.934   2.102   4.392
 2439TIP3   OH2 7238   1.534   1.984   4.304
 2439TIP3    H1 7239   1.436   1.982   4.294
 2439TIP3    H2 7240   1.560   1.957   4.213
 2440TIP3   OH2 7241   1.027   1.947   3.131
 2440TIP3    H1 7242   0.981   1.884   3.188
 2440TIP3    H2 7243   1.027   1.903   3.044
 2441TIP3   OH2 7244   1.008   1.581   3.955
 2441TIP3    H1 7245   0.916   1.556   3.974
 2441TIP3    H2 7246   1.043   1.497   3.916
 2442TIP3   OH2 7247   0.414   2.146   4.186
 2442TIP3    H1 7248   0.453   2.221   4.137
 2442TIP3    H2 7249   0.490   2.115   4.238
 2443TIP3   OH2 7250   0.068   2.051   3.587
 2443TIP3    H1 7251   0.004   2.058   3.659
 2443TIP3    H2 7252   0.102   2.143   3.584
 2444TIP3   OH2 7253   0.793   1.778   4.153
 2444TIP3    H1 7254   0.780   1.780   4.251
 2444TIP3    H2 7255   0.882   1.742   4.147
 2445TIP3   OH2 7256   1.045   2.309   4.193
 2445TIP3    H1 7257   0.961   2.261   4.185
 2445TIP3    H2 7258   1.033   2.378   4.123
 2446TIP3   OH2 7259   1.112   2.147   2.846
 2446TIP3    H1 7260   1.143   2.224   2.795
 2446TIP3    H2 7261   1.032   2.188   2.886
 2447TIP3   OH2 7262   0.938   1.605   3.244
 2447TIP3    H1 7263   0.930   1.544   3.320
 2447TIP3    H2 7264   1.035   1.610   3.236
 2448TIP3   OH2 7265  -0.144   2.014   4.348
 2448TIP3    H1 7266  -0.095   1.949   4.402
 2448TIP3    H2 7267  -0.124   2.097   4.394
 2449TIP3   OH2 7268   0.983   0.979   4.392
 2449TIP3    H1 7269   1.050   1.029   4.441
 2449TIP3    H2 7270   0.969   0.901   4.451
 2450TIP3   OH2 7271   0.810   1.237   4.471
 2450TIP3    H1 7272   0.829   1.297   4.546
 2450TIP3    H2 7273   0.862   1.158   4.496
 2451TIP3   OH2 7274   1.443   1.134   4.457
 2451TIP3    H1 7275   1.345   1.134   4.464
 2451TIP3    H2 7276   1.454   1.102   4.367
 2452TIP3   OH2 7277   1.099   1.332   3.846
 2452TIP3    H1 7278   1.023   1.276   3.868
 2452TIP3    H2 7279   1.172   1.287   3.894
 2453TIP3   OH2 7280   1.069   2.286   3.785
 2453TIP3    H1 7281   1.025   2.335   3.711
 2453TIP3    H2 7282   1.163   2.307   3.766
 2454TIP3   OH2 7283  -0.137   2.340   4.747
 2454TIP3    H1 7284  -0.061   2.350   4.808
 2454TIP3    H2 7285  -0.158   2.246   4.759
 2455TIP3   OH2 7286   0.314   2.275   4.820
 2455TIP3    H1 7287   0.411   2.273   4.823
 2455TIP3    H2 7288   0.295   2.215   4.746
 2456TIP3   OH2 7289   0.962   2.186   4.545
 2456TIP3    H1 7290   0.954   2.120   4.618
 2456TIP3    H2 7291   1.036   2.242   4.576
 2457TIP3   OH2 7292  -0.012   1.730   4.941
 2457TIP3    H1 7293   0.015   1.635   4.939
 2457TIP3    H2 7294  -0.097   1.720   4.989
 2458TIP3   OH2 7295   0.578   1.814   4.744
 2458TIP3    H1 7296   0.535   1.836   4.658
 2458TIP3    H2 7297   0.607   1.722   4.730
 2459TIP3   OH2 7298   1.066   1.823   4.349
 2459TIP3    H1 7299   1.144   1.866   4.308
 2459TIP3    H2 7300   1.000   1.894   4.338
 2460TIP3   OH2 7301   0.092   1.477   4.962
 2460TIP3    H1 7302   0.155   1.406   4.946
 2460TIP3    H2 7303   0.111   1.500   5.055
 2461TIP3   OH2 7304   0.449   1.361   4.630
 2461TIP3    H1 7305   0.361   1.404   4.625
 2461TIP3    H2 7306   0.488   1.385   4.543
 2462TIP3   OH2 7307   0.937   1.744   4.747
 2462TIP3    H1 7308   1.020   1.719   4.704
 2462TIP3    H2 7309   0.933   1.681   4.821
 2463TIP3   OH2 7310   0.548   1.132   4.734
 2463TIP3    H1 7311   0.551   1.067   4.662
 2463TIP3    H2 7312   0.511   1.210   4.687
 2464TIP3   OH2 7313   0.539   0.944   4.528
 2464TIP3    H1 7314   0.576   0.989   4.449
 2464TIP3    H2 7315   0.456   0.910   4.492
 2465TIP3   OH2 7316   0.577   1.450   4.409
 2465TIP3    H1 7317   0.663   1.477   4.374
 2465TIP3    H2 7318   0.517   1.519   4.373
 2466TIP3   OH2 7319   1.153   1.421   4.797
 2466TIP3    H1 7320   1.206   1.343   4.815
 2466TIP3    H2 7321   1.219   1.485   4.767
 2467TIP3   OH2 7322   1.197   1.671   4.530
 2467TIP3    H1 7323   1.138   1.728   4.475
 2467TIP3    H2 7324   1.284   1.697   4.493
 2468TIP3   OH2 7325   0.420   1.260   4.961
 2468TIP3    H1 7326   0.335   1.215   4.952
 2468TIP3    H2 7327   0.465   1.233   4.879
 2469TIP3   OH2 7328   0.689   0.724   4.615
 2469TIP3    H1 7329   0.627   0.798   4.604
 2469TIP3    H2 7330   0.630   0.647   4.619
 2470TIP3   OH2 7331   0.812   1.182   4.827
 2470TIP3    H1 7332   0.810   1.162   4.922
 2470TIP3    H2 7333   0.720   1.157   4.802
 2471TIP3   OH2 7334   1.045   1.128   4.681
 2471TIP3    H1 7335   0.971   1.135   4.745
 2471TIP3    H2 7336   1.120   1.102   4.740
 2472TIP3   OH2 7337   1.277   1.078   4.834
 2472TIP3    H1 7338   1.288   0.982   4.852
 2472TIP3    H2 7339   1.270   1.115   4.925
 2473TIP3   OH2 7340   0.778   0.708   4.874
 2473TIP3    H1 7341   0.860   0.656   4.857
 2473TIP3    H2 7342   0.737   0.704   4.785
 2474TIP3   OH2 7343   0.842   0.926   5.015
 2474TIP3    H1 7344   0.821   0.847   4.960
 2474TIP3    H2 7345   0.756   0.972   5.015
 2475TIP3   OH2 7346   1.326   2.370   3.752
 2475TIP3    H1 7347   1.342   2.407   3.841
 2475TIP3    H2 7348   1.378   2.430   3.696
 2476TIP3   OH2 7349   1.344   2.397   4.031
 2476TIP3    H1 7350   1.307   2.306   4.031
 2476TIP3    H2 7351   1.421   2.384   4.088
 2477TIP3   OH2 7352   1.398   2.074   4.607
 2477TIP3    H1 7353   1.325   2.086   4.671
 2477TIP3    H2 7354   1.440   2.163   4.608
 2478TIP3   OH2 7355   1.216   1.598   3.228
 2478TIP3    H1 7356   1.279   1.668   3.201
 2478TIP3    H2 7357   1.259   1.563   3.309
 2479TIP3   OH2 7358   1.346   1.457   3.424
 2479TIP3    H1 7359   1.281   1.418   3.487
 2479TIP3    H2 7360   1.414   1.494   3.485
 2480TIP3   OH2 7361   1.399   1.852   3.860
 2480TIP3    H1 7362   1.450   1.787   3.808
 2480TIP3    H2 7363   1.396   1.929   3.800
 2481TIP3   OH2 7364   1.222   2.145   4.055
 2481TIP3    H1 7365   1.153   2.194   4.104
 2481TIP3    H2 7366   1.171   2.105   3.982
 2482TIP3   OH2 7367   1.287   1.388   3.058
 2482TIP3    H1 7368   1.192   1.395   3.046
 2482TIP3    H2 7369   1.296   1.448   3.134
 2483TIP3   OH2 7370   1.163   1.326   3.581
 2483TIP3    H1 7371   1.137   1.234   3.565
 2483TIP3    H2 7372   1.147   1.336   3.678
 2484TIP3   OH2 7373   1.443   1.740   4.431
 2484TIP3    H1 7374   1.516   1.675   4.417
 2484TIP3    H2 7375   1.468   1.813   4.372
 2485TIP3   OH2 7376   1.624   1.536   4.430
 2485TIP3    H1 7377   1.551   1.491   4.478
 2485TIP3    H2 7378   1.698   1.476   4.451
 2486TIP3   OH2 7379   1.312   1.199   3.963
 2486TIP3    H1 7380   1.398   1.226   3.922
 2486TIP3    H2 7381   1.323   1.240   4.051
 2487TIP3   OH2 7382   1.380   1.346   4.191
 2487TIP3    H1 7383   1.305   1.381   4.243
 2487TIP3    H2 7384   1.413   1.429   4.148
 2488TIP3   OH2 7385   1.837   0.944   4.749
 2488TIP3    H1 7386   1.895   0.879   4.705
 2488TIP3    H2 7387   1.801   0.995   4.673
 2489TIP3   OH2 7388   1.700   1.074   4.556
 2489TIP3    H1 7389   1.618   1.120   4.586
 2489TIP3    H2 7390   1.661   1.008   4.496
 2490TIP3   OH2 7391   0.915   2.238   3.415
 2490TIP3    H1 7392   0.964   2.238   3.330
 2490TIP3    H2 7393   0.953   2.315   3.461
 2491TIP3   OH2 7394  -0.001   2.050   4.788
 2491TIP3    H1 7395  -0.053   1.969   4.773
 2491TIP3    H2 7396   0.020   2.044   4.882
 2492TIP3   OH2 7397   0.189   2.084   4.336
 2492TIP3    H1 7398   0.137   2.158   4.298
 2492TIP3    H2 7399   0.274   2.103   4.290
 2493TIP3   OH2 7400   0.623   2.325   4.470
 2493TIP3    H1 7401   0.663   2.327   4.560
 2493TIP3    H2 7402   0.688   2.380   4.421
 2494TIP3   OH2 7403   0.805   2.482   4.339
 2494TIP3    H1 7404   0.879   2.437   4.296
 2494TIP3    H2 7405   0.854   2.541   4.400
 2495TIP3   OH2 7406   1.608   0.842   4.423
 2495TIP3    H1 7407   1.515   0.837   4.395
 2495TIP3    H2 7408   1.635   0.747   4.418
 2496TIP3   OH2 7409  -0.126   2.332   4.374
 2496TIP3    H1 7410  -0.218   2.358   4.349
 2496TIP3    H2 7411  -0.114   2.388   4.452
 2497TIP3   OH2 7412   0.101   2.317   4.219
 2497TIP3    H1 7413   0.015   2.328   4.267
 2497TIP3    H2 7414   0.078   2.351   4.130
 2498TIP3   OH2 7415   0.520   2.344   4.018
 2498TIP3    H1 7416   0.451   2.365   3.953
 2498TIP3    H2 7417   0.533   2.432   4.061
 2499TIP3   OH2 7418   0.790   2.279   4.068
 2499TIP3    H1 7419   0.697   2.304   4.052
 2499TIP3    H2 7420   0.837   2.355   4.029
 2500TIP3   OH2 7421   0.987   2.468   3.981
 2500TIP3    H1 7422   0.979   2.557   3.939
 2500TIP3    H2 7423   1.019   2.414   3.906
 2501TIP3   OH2 7424  -0.222   2.144   4.112
 2501TIP3    H1 7425  -0.202   2.107   4.201
 2501TIP3    H2 7426  -0.162   2.091   4.057
 2502TIP3   OH2 7427  -0.036   2.012   3.963
 2502TIP3    H1 7428  -0.019   1.926   4.009
 2502TIP3    H2 7429   0.053   2.051   3.960
 2503TIP3   OH2 7430   0.235   2.103   3.970
 2503TIP3    H1 7431   0.267   2.012   3.960
 2503TIP3    H2 7432   0.279   2.128   4.053
 2504TIP3   OH2 7433   1.331   0.644   3.963
 2504TIP3    H1 7434   1.376   0.677   3.882
 2504TIP3    H2 7435   1.240   0.664   3.940
 2505TIP3   OH2 7436   1.429   0.728   3.726
 2505TIP3    H1 7437   1.500   0.681   3.679
 2505TIP3    H2 7438   1.452   0.821   3.707
 2506TIP3   OH2 7439   1.057   2.216   3.175
 2506TIP3    H1 7440   1.050   2.118   3.165
 2506TIP3    H2 7441   1.005   2.246   3.097
 2507TIP3   OH2 7442   1.340   0.807   4.866
 2507TIP3    H1 7443   1.353   0.777   4.959
 2507TIP3    H2 7444   1.432   0.802   4.831
 2508TIP3   OH2 7445   1.274   2.356   4.357
 2508TIP3    H1 7446   1.195   2.329   4.307
 2508TIP3    H2 7447   1.257   2.453   4.363
 2509TIP3   OH2 7448   2.538   1.730   3.113
 2509TIP3    H1 7449   2.513   1.824   3.100
 2509TIP3    H2 7450   2.455   1.686   3.088
 2510TIP3   OH2 7451   2.546   1.731   3.509
 2510TIP3    H1 7452   2.579   1.710   3.598
 2510TIP3    H2 7453   2.503   1.648   3.484
 2511TIP3   OH2 7454   1.839   1.622   3.873
 2511TIP3    H1 7455   1.872   1.556   3.937
 2511TIP3    H2 7456   1.914   1.682   3.868
 2512TIP3   OH2 7457   2.787   2.037   3.191
 2512TIP3    H1 7458   2.772   1.970   3.259
 2512TIP3    H2 7459   2.818   2.113   3.244
 2513TIP3   OH2 7460   1.815   2.032   3.589
 2513TIP3    H1 7461   1.806   1.935   3.595
 2513TIP3    H2 7462   1.912   2.041   3.582
 2514TIP3   OH2 7463   1.522   1.237   3.375
 2514TIP3    H1 7464   1.474   1.322   3.383
 2514TIP3    H2 7465   1.450   1.175   3.383
 2515TIP3   OH2 7466   1.579   1.524   3.555
 2515TIP3    H1 7467   1.630   1.447   3.587
 2515TIP3    H2 7468   1.647   1.576   3.508
 2516TIP3   OH2 7469   2.438   2.494   3.205
 2516TIP3    H1 7470   2.483   2.421   3.158
 2516TIP3    H2 7471   2.426   2.457   3.294
 2517TIP3   OH2 7472   2.338   1.956   3.557
 2517TIP3    H1 7473   2.380   1.882   3.510
 2517TIP3    H2 7474   2.420   2.003   3.584
 2518TIP3   OH2 7475   3.357   1.273   3.559
 2518TIP3    H1 7476   3.386   1.359   3.596
 2518TIP3    H2 7477   3.380   1.286   3.465
 2519TIP3   OH2 7478   2.749   1.453   3.589
 2519TIP3    H1 7479   2.801   1.372   3.604
 2519TIP3    H2 7480   2.717   1.439   3.498
 2520TIP3   OH2 7481   2.086   1.112   3.557
 2520TIP3    H1 7482   2.077   1.185   3.492
 2520TIP3    H2 7483   2.043   1.040   3.505
 2521TIP3   OH2 7484   2.778   1.202   3.183
 2521TIP3    H1 7485   2.842   1.147   3.232
 2521TIP3    H2 7486   2.837   1.222   3.108
 2522TIP3   OH2 7487   1.726   1.314   3.661
 2522TIP3    H1 7488   1.812   1.307   3.705
 2522TIP3    H2 7489   1.743   1.262   3.579
 2523TIP3   OH2 7490   2.164   1.513   3.457
 2523TIP3    H1 7491   2.260   1.493   3.466
 2523TIP3    H2 7492   2.130   1.428   3.422
 2524TIP3   OH2 7493   3.433   1.485   3.728
 2524TIP3    H1 7494   3.349   1.532   3.709
 2524TIP3    H2 7495   3.459   1.527   3.812
 2525TIP3   OH2 7496   2.045   1.054   3.993
 2525TIP3    H1 7497   2.019   1.107   3.914
 2525TIP3    H2 7498   2.011   1.113   4.065
 2526TIP3   OH2 7499   2.438   1.963   2.983
 2526TIP3    H1 7500   2.361   1.925   2.939
 2526TIP3    H2 7501   2.398   2.046   3.017
 2527TIP3   OH2 7502   2.192   1.874   3.777
 2527TIP3    H1 7503   2.135   1.946   3.812
 2527TIP3    H2 7504   2.238   1.921   3.703
 2528TIP3   OH2 7505   1.966   1.209   3.779
 2528TIP3    H1 7506   2.023   1.286   3.802
 2528TIP3    H2 7507   2.013   1.176   3.699
 2529TIP3   OH2 7508   2.025   2.073   3.876
 2529TIP3    H1 7509   2.002   2.162   3.841
 2529TIP3    H2 7510   1.945   2.057   3.931
 2530TIP3   OH2 7511   1.414   1.764   3.114
 2530TIP3    H1 7512   1.366   1.799   3.037
 2530TIP3    H2 7513   1.445   1.848   3.155
 2531TIP3   OH2 7514   2.854   2.277   3.350
 2531TIP3    H1 7515   2.765   2.269   3.392
 2531TIP3    H2 7516   2.846   2.365   3.308
 2532TIP3   OH2 7517   3.145   1.168   3.714
 2532TIP3    H1 7518   3.059   1.195   3.677
 2532TIP3    H2 7519   3.207   1.205   3.648
 2533TIP3   OH2 7520   2.428   0.818   3.772
 2533TIP3    H1 7521   2.479   0.808   3.688
 2533TIP3    H2 7522   2.365   0.884   3.739
 2534TIP3   OH2 7523   2.557   2.319   3.025
 2534TIP3    H1 7524   2.610   2.238   3.007
 2534TIP3    H2 7525   2.618   2.386   2.985
 2535TIP3   OH2 7526   2.698   2.097   2.936
 2535TIP3    H1 7527   2.625   2.033   2.932
 2535TIP3    H2 7528   2.743   2.070   3.020
 2536TIP3   OH2 7529   3.080   2.185   3.699
 2536TIP3    H1 7530   3.067   2.109   3.639
 2536TIP3    H2 7531   3.061   2.261   3.640
 2537TIP3   OH2 7532   2.357   1.589   2.941
 2537TIP3    H1 7533   2.273   1.619   2.903
 2537TIP3    H2 7534   2.411   1.581   2.861
 2538TIP3   OH2 7535   2.333   1.341   2.689
 2538TIP3    H1 7536   2.389   1.413   2.721
 2538TIP3    H2 7537   2.389   1.299   2.622
 2539TIP3   OH2 7538   3.276   1.828   3.548
 2539TIP3    H1 7539   3.191   1.878   3.550
 2539TIP3    H2 7540   3.306   1.851   3.457
 2540TIP3   OH2 7541   2.723   1.661   2.926
 2540TIP3    H1 7542   2.667   1.687   3.003
 2540TIP3    H2 7543   2.805   1.634   2.971
 2541TIP3   OH2 7544   2.954   1.700   3.847
 2541TIP3    H1 7545   2.952   1.784   3.898
 2541TIP3    H2 7546   2.868   1.707   3.799
 2542TIP3   OH2 7547   1.950   1.657   3.353
 2542TIP3    H1 7548   1.912   1.600   3.283
 2542TIP3    H2 7549   2.030   1.607   3.379
 2543TIP3   OH2 7550   2.081   2.069   3.490
 2543TIP3    H1 7551   2.067   2.038   3.399
 2543TIP3    H2 7552   2.170   2.033   3.509
 2544TIP3   OH2 7553   2.087   1.633   3.698
 2544TIP3    H1 7554   2.122   1.608   3.610
 2544TIP3    H2 7555   2.131   1.719   3.716
 2545TIP3   OH2 7556   2.616   2.270   3.477
 2545TIP3    H1 7557   2.601   2.353   3.526
 2545TIP3    H2 7558   2.597   2.201   3.543
 2546TIP3   OH2 7559   2.229   2.186   4.026
 2546TIP3    H1 7560   2.168   2.248   4.071
 2546TIP3    H2 7561   2.165   2.135   3.973
 2547TIP3   OH2 7562   2.562   1.519   2.754
 2547TIP3    H1 7563   2.619   1.580   2.806
 2547TIP3    H2 7564   2.586   1.545   2.662
 2548TIP3   OH2 7565   1.984   1.736   4.134
 2548TIP3    H1 7566   1.991   1.827   4.169
 2548TIP3    H2 7567   1.888   1.722   4.145
 2549TIP3   OH2 7568   2.309   2.199   3.033
 2549TIP3    H1 7569   2.389   2.255   3.040
 2549TIP3    H2 7570   2.246   2.258   2.991
 2550TIP3   OH2 7571   2.023   2.350   4.111
 2550TIP3    H1 7572   1.986   2.359   4.021
 2550TIP3    H2 7573   1.942   2.329   4.164
 2551TIP3   OH2 7574   3.075   0.764   2.802
 2551TIP3    H1 7575   2.991   0.774   2.853
 2551TIP3    H2 7576   3.092   0.857   2.780
 2552TIP3   OH2 7577   1.817   1.507   3.160
 2552TIP3    H1 7578   1.754   1.555   3.102
 2552TIP3    H2 7579   1.770   1.424   3.176
 2553TIP3   OH2 7580   2.875   2.126   2.349
 2553TIP3    H1 7581   2.883   2.224   2.338
 2553TIP3    H2 7582   2.969   2.099   2.337
 2554TIP3   OH2 7583   1.598   1.888   4.060
 2554TIP3    H1 7584   1.530   1.871   3.991
 2554TIP3    H2 7585   1.637   1.800   4.075
 2555TIP3   OH2 7586   1.454   2.080   3.695
 2555TIP3    H1 7587   1.551   2.087   3.688
 2555TIP3    H2 7588   1.434   2.162   3.743
 2556TIP3   OH2 7589   3.320   2.536   3.750
 2556TIP3    H1 7590   3.317   2.440   3.766
 2556TIP3    H2 7591   3.236   2.563   3.794
 2557TIP3   OH2 7592   2.424   2.315   3.882
 2557TIP3    H1 7593   2.421   2.409   3.912
 2557TIP3    H2 7594   2.353   2.276   3.937
 2558TIP3   OH2 7595   2.190   2.447   2.832
 2558TIP3    H1 7596   2.139   2.436   2.750
 2558TIP3    H2 7597   2.157   2.533   2.865
 2559TIP3   OH2 7598   1.625   2.295   3.220
 2559TIP3    H1 7599   1.675   2.288   3.304
 2559TIP3    H2 7600   1.562   2.222   3.230
 2560TIP3   OH2 7601   2.385   2.347   2.471
 2560TIP3    H1 7602   2.448   2.279   2.438
 2560TIP3    H2 7603   2.419   2.362   2.562
 2561TIP3   OH2 7604   2.439   2.397   2.737
 2561TIP3    H1 7605   2.351   2.408   2.780
 2561TIP3    H2 7606   2.491   2.363   2.812
 2562TIP3   OH2 7607   3.207   1.659   4.025
 2562TIP3    H1 7608   3.127   1.673   3.973
 2562TIP3    H2 7609   3.223   1.564   4.012
 2563TIP3   OH2 7610   1.806   2.068   4.037
 2563TIP3    H1 7611   1.851   2.060   4.123
 2563TIP3    H2 7612   1.729   2.008   4.049
 2564TIP3   OH2 7613   2.744   1.015   4.029
 2564TIP3    H1 7614   2.815   0.982   4.088
 2564TIP3    H2 7615   2.662   0.996   4.077
 2565TIP3   OH2 7616   2.970   1.436   3.940
 2565TIP3    H1 7617   2.920   1.436   4.025
 2565TIP3    H2 7618   2.952   1.525   3.905
 2566TIP3   OH2 7619   2.622   1.563   2.491
 2566TIP3    H1 7620   2.605   1.527   2.402
 2566TIP3    H2 7621   2.707   1.609   2.476
 2567TIP3   OH2 7622   2.361   0.940   2.806
 2567TIP3    H1 7623   2.315   0.944   2.892
 2567TIP3    H2 7624   2.373   0.845   2.795
 2568TIP3   OH2 7625   2.133   1.412   3.850
 2568TIP3    H1 7626   2.085   1.438   3.931
 2568TIP3    H2 7627   2.119   1.493   3.794
 2569TIP3   OH2 7628   2.021   1.292   3.364
 2569TIP3    H1 7629   1.928   1.267   3.383
 2569TIP3    H2 7630   2.031   1.258   3.273
 2570TIP3   OH2 7631   2.498   1.386   3.089
 2570TIP3    H1 7632   2.450   1.457   3.042
 2570TIP3    H2 7633   2.561   1.354   3.021
 2571TIP3   OH2 7634   2.686   1.654   4.170
 2571TIP3    H1 7635   2.666   1.584   4.236
 2571TIP3    H2 7636   2.778   1.676   4.194
 2572TIP3   OH2 7637   2.659   1.411   3.330
 2572TIP3    H1 7638   2.599   1.438   3.259
 2572TIP3    H2 7639   2.697   1.331   3.287
 2573TIP3   OH2 7640   1.956   1.443   4.059
 2573TIP3    H1 7641   1.977   1.516   4.119
 2573TIP3    H2 7642   1.941   1.369   4.120
 2574TIP3   OH2 7643   2.041   0.965   2.791
 2574TIP3    H1 7644   2.036   0.953   2.888
 2574TIP3    H2 7645   1.960   0.918   2.762
 2575TIP3   OH2 7646   1.536   0.965   3.647
 2575TIP3    H1 7647   1.617   0.999   3.689
 2575TIP3    H2 7648   1.562   0.947   3.555
 2576TIP3   OH2 7649   2.673   1.654   3.750
 2576TIP3    H1 7650   2.707   1.582   3.691
 2576TIP3    H2 7651   2.641   1.600   3.826
 2577TIP3   OH2 7652   2.343   1.137   3.426
 2577TIP3    H1 7653   2.271   1.119   3.488
 2577TIP3    H2 7654   2.410   1.071   3.453
 2578TIP3   OH2 7655   1.781   1.171   3.433
 2578TIP3    H1 7656   1.689   1.182   3.399
 2578TIP3    H2 7657   1.804   1.081   3.404
 2579TIP3   OH2 7658   2.058   1.186   3.110
 2579TIP3    H1 7659   2.155   1.177   3.125
 2579TIP3    H2 7660   2.057   1.243   3.032
 2580TIP3   OH2 7661   2.848   1.194   3.634
 2580TIP3    H1 7662   2.802   1.209   3.719
 2580TIP3    H2 7663   2.794   1.125   3.593
 2581TIP3   OH2 7664   1.827   1.202   2.817
 2581TIP3    H1 7665   1.853   1.135   2.882
 2581TIP3    H2 7666   1.916   1.230   2.784
 2582TIP3   OH2 7667   3.015   2.882   3.848
 2582TIP3    H1 7668   3.011   2.911   3.756
 2582TIP3    H2 7669   3.093   2.931   3.881
 2583TIP3   OH2 7670   1.969   1.987   4.266
 2583TIP3    H1 7671   2.048   2.021   4.313
 2583TIP3    H2 7672   1.902   1.995   4.337
 2584TIP3   OH2 7673   2.433   1.457   3.517
 2584TIP3    H1 7674   2.499   1.418   3.458
 2584TIP3    H2 7675   2.444   1.402   3.597
 2585TIP3   OH2 7676   1.951   0.933   3.400
 2585TIP3    H1 7677   1.913   0.858   3.452
 2585TIP3    H2 7678   1.997   0.885   3.330
 2586TIP3   OH2 7679   2.403   1.339   3.832
 2586TIP3    H1 7680   2.319   1.387   3.828
 2586TIP3    H2 7681   2.466   1.407   3.866
 2587TIP3   OH2 7682   3.040   1.970   3.531
 2587TIP3    H1 7683   3.065   2.022   3.451
 2587TIP3    H2 7684   2.956   1.928   3.504
 2588TIP3   OH2 7685   2.581   1.079   2.727
 2588TIP3    H1 7686   2.498   1.042   2.767
 2588TIP3    H2 7687   2.603   1.151   2.789
 2589TIP3   OH2 7688   2.535   2.050   3.907
 2589TIP3    H1 7689   2.577   2.045   3.994
 2589TIP3    H2 7690   2.501   2.141   3.906
 2590TIP3   OH2 7691   2.677   1.295   2.872
 2590TIP3    H1 7692   2.773   1.306   2.866
 2590TIP3    H2 7693   2.645   1.376   2.827
 2591TIP3   OH2 7694   1.829   1.747   3.582
 2591TIP3    H1 7695   1.870   1.725   3.496
 2591TIP3    H2 7696   1.887   1.699   3.643
 2592TIP3   OH2 7697   1.721   1.670   4.194
 2592TIP3    H1 7698   1.736   1.662   4.290
 2592TIP3    H2 7699   1.646   1.610   4.181
 2593TIP3   OH2 7700   2.446   1.791   4.215
 2593TIP3    H1 7701   2.386   1.738   4.161
 2593TIP3    H2 7702   2.533   1.759   4.184
 2594TIP3   OH2 7703   2.699   2.306   3.804
 2594TIP3    H1 7704   2.603   2.311   3.816
 2594TIP3    H2 7705   2.730   2.361   3.879
 2595TIP3   OH2 7706   3.131   1.389   2.678
 2595TIP3    H1 7707   3.053   1.347   2.636
 2595TIP3    H2 7708   3.116   1.482   2.650
 2596TIP3   OH2 7709   3.330   2.243   3.788
 2596TIP3    H1 7710   3.232   2.239   3.779
 2596TIP3    H2 7711   3.356   2.214   3.698
 2597TIP3   OH2 7712   2.807   2.206   2.617
 2597TIP3    H1 7713   2.785   2.143   2.688
 2597TIP3    H2 7714   2.827   2.149   2.541
 2598TIP3   OH2 7715   2.807   1.836   3.447
 2598TIP3    H1 7716   2.714   1.811   3.462
 2598TIP3    H2 7717   2.839   1.754   3.403
 2599TIP3   OH2 7718   1.934   2.063   3.204
 2599TIP3    H1 7719   1.934   2.144   3.150
 2599TIP3    H2 7720   1.840   2.052   3.221
 2600TIP3   OH2 7721   1.520   1.393   2.907
 2600TIP3    H1 7722   1.536   1.478   2.954
 2600TIP3    H2 7723   1.440   1.363   2.955
 2601TIP3   OH2 7724   2.090   1.833   3.183
 2601TIP3    H1 7725   2.044   1.919   3.181
 2601TIP3    H2 7726   2.038   1.782   3.246
 2602TIP3   OH2 7727   2.208   2.403   3.673
 2602TIP3    H1 7728   2.249   2.478   3.624
 2602TIP3    H2 7729   2.285   2.369   3.722
 2603TIP3   OH2 7730   1.854   2.301   3.057
 2603TIP3    H1 7731   1.769   2.310   3.105
 2603TIP3    H2 7732   1.888   2.393   3.062
 2604TIP3   OH2 7733   2.588   2.037   3.638
 2604TIP3    H1 7734   2.578   2.036   3.736
 2604TIP3    H2 7735   2.672   1.990   3.627
 2605TIP3   OH2 7736   2.566   1.921   2.517
 2605TIP3    H1 7737   2.630   1.897   2.587
 2605TIP3    H2 7738   2.484   1.910   2.566
 2606TIP3   OH2 7739   2.841   2.566   3.681
 2606TIP3    H1 7740   2.758   2.515   3.674
 2606TIP3    H2 7741   2.827   2.634   3.611
 2607TIP3   OH2 7742   2.906   2.403   2.336
 2607TIP3    H1 7743   2.942   2.478   2.286
 2607TIP3    H2 7744   2.826   2.447   2.373
 2608TIP3   OH2 7745   1.921   1.167   4.207
 2608TIP3    H1 7746   1.828   1.189   4.227
 2608TIP3    H2 7747   1.955   1.140   4.295
 2609TIP3   OH2 7748   2.734   1.847   2.715
 2609TIP3    H1 7749   2.722   1.797   2.798
 2609TIP3    H2 7750   2.832   1.855   2.715
 2610TIP3   OH2 7751   1.647   2.266   3.831
 2610TIP3    H1 7752   1.704   2.203   3.877
 2610TIP3    H2 7753   1.663   2.348   3.880
 2611TIP3   OH2 7754   1.949   1.893   2.519
 2611TIP3    H1 7755   2.003   1.812   2.517
 2611TIP3    H2 7756   1.927   1.898   2.614
 2612TIP3   OH2 7757   1.876   1.913   2.785
 2612TIP3    H1 7758   1.964   1.884   2.817
 2612TIP3    H2 7759   1.880   2.010   2.803
 2613TIP3   OH2 7760   1.619   1.625   3.003
 2613TIP3    H1 7761   1.553   1.671   3.059
 2613TIP3    H2 7762   1.632   1.694   2.934
 2614TIP3   OH2 7763   2.760   1.253   3.890
 2614TIP3    H1 7764   2.845   1.294   3.914
 2614TIP3    H2 7765   2.757   1.173   3.946
 2615TIP3   OH2 7766   2.645   0.989   3.039
 2615TIP3    H1 7767   2.657   1.034   2.955
 2615TIP3    H2 7768   2.664   1.059   3.103
 2616TIP3   OH2 7769   2.140   2.117   2.728
 2616TIP3    H1 7770   2.054   2.136   2.770
 2616TIP3    H2 7771   2.160   2.203   2.689
 2617TIP3   OH2 7772   2.325   1.178   3.158
 2617TIP3    H1 7773   2.389   1.250   3.138
 2617TIP3    H2 7774   2.338   1.171   3.256
 2618TIP3   OH2 7775   2.602   1.491   3.958
 2618TIP3    H1 7776   2.632   1.544   4.034
 2618TIP3    H2 7777   2.659   1.412   3.962
 2619TIP3   OH2 7778   1.885   2.187   2.808
 2619TIP3    H1 7779   1.858   2.260   2.748
 2619TIP3    H2 7780   1.872   2.230   2.896
 2620TIP3   OH2 7781   2.007   0.918   3.059
 2620TIP3    H1 7782   2.011   1.007   3.100
 2620TIP3    H2 7783   2.099   0.889   3.070
 2621TIP3   OH2 7784   3.238   1.393   3.945
 2621TIP3    H1 7785   3.139   1.390   3.945
 2621TIP3    H2 7786   3.256   1.364   3.854
 2622TIP3   OH2 7787   2.887   1.594   3.326
 2622TIP3    H1 7788   2.815   1.531   3.341
 2622TIP3    H2 7789   2.961   1.553   3.376
 2623TIP3   OH2 7790   1.612   1.812   2.799
 2623TIP3    H1 7791   1.681   1.880   2.815
 2623TIP3    H2 7792   1.654   1.764   2.726
 2624TIP3   OH2 7793   2.864   2.547   3.274
 2624TIP3    H1 7794   2.821   2.594   3.199
 2624TIP3    H2 7795   2.958   2.566   3.255
 2625TIP3   OH2 7796   1.465   2.022   3.181
 2625TIP3    H1 7797   1.411   2.060   3.252
 2625TIP3    H2 7798   1.433   2.073   3.102
 2626TIP3   OH2 7799   1.638   2.583   4.257
 2626TIP3    H1 7800   1.723   2.587   4.306
 2626TIP3    H2 7801   1.619   2.488   4.258
 2627TIP3   OH2 7802   2.109   2.531   4.307
 2627TIP3    H1 7803   2.206   2.528   4.309
 2627TIP3    H2 7804   2.089   2.470   4.233
 2628TIP3   OH2 7805   2.085   2.118   2.422
 2628TIP3    H1 7806   2.036   2.047   2.468
 2628TIP3    H2 7807   2.169   2.073   2.404
 2629TIP3   OH2 7808   2.757   2.444   4.033
 2629TIP3    H1 7809   2.750   2.376   4.105
 2629TIP3    H2 7810   2.832   2.499   4.064
 2630TIP3   OH2 7811   2.534   2.152   2.340
 2630TIP3    H1 7812   2.582   2.097   2.404
 2630TIP3    H2 7813   2.596   2.154   2.264
 2631TIP3   OH2 7814   1.765   1.982   4.456
 2631TIP3    H1 7815   1.777   1.886   4.463
 2631TIP3    H2 7816   1.677   1.988   4.413
 2632TIP3   OH2 7817   1.768   1.604   2.668
 2632TIP3    H1 7818   1.850   1.612   2.722
 2632TIP3    H2 7819   1.795   1.651   2.588
 2633TIP3   OH2 7820   2.372   2.071   4.232
 2633TIP3    H1 7821   2.331   2.095   4.146
 2633TIP3    H2 7822   2.404   1.980   4.216
 2634TIP3   OH2 7823   2.863   2.082   3.839
 2634TIP3    H1 7824   2.941   2.123   3.795
 2634TIP3    H2 7825   2.796   2.152   3.824
 2635TIP3   OH2 7826   1.883   1.714   4.446
 2635TIP3    H1 7827   1.967   1.679   4.413
 2635TIP3    H2 7828   1.910   1.752   4.532
 2636TIP3   OH2 7829   1.910   1.496   2.878
 2636TIP3    H1 7830   1.936   1.537   2.962
 2636TIP3    H2 7831   1.992   1.510   2.824
 2637TIP3   OH2 7832   2.221   1.596   4.101
 2637TIP3    H1 7833   2.144   1.657   4.104
 2637TIP3    H2 7834   2.271   1.633   4.024
 2638TIP3   OH2 7835   2.062   1.295   2.723
 2638TIP3    H1 7836   2.041   1.329   2.634
 2638TIP3    H2 7837   2.157   1.319   2.727
 2639TIP3   OH2 7838   2.733   2.000   4.233
 2639TIP3    H1 7839   2.815   1.978   4.188
 2639TIP3    H2 7840   2.732   1.938   4.308
 2640TIP3   OH2 7841   2.861   1.657   2.381
 2640TIP3    H1 7842   2.849   1.618   2.292
 2640TIP3    H2 7843   2.832   1.749   2.362
 2641TIP3   OH2 7844   2.349   1.389   4.220
 2641TIP3    H1 7845   2.341   1.313   4.158
 2641TIP3    H2 7846   2.305   1.461   4.168
 2642TIP3   OH2 7847   2.332   1.166   4.031
 2642TIP3    H1 7848   2.370   1.219   3.957
 2642TIP3    H2 7849   2.244   1.146   3.996
 2643TIP3   OH2 7850   2.368   1.711   3.908
 2643TIP3    H1 7851   2.454   1.730   3.870
 2643TIP3    H2 7852   2.311   1.776   3.863
 2644TIP3   OH2 7853   2.952   1.679   4.282
 2644TIP3    H1 7854   3.010   1.602   4.291
 2644TIP3    H2 7855   3.014   1.746   4.249
 2645TIP3   OH2 7856   2.993   1.929   4.020
 2645TIP3    H1 7857   2.934   1.986   3.963
 2645TIP3    H2 7858   3.080   1.953   3.982
 2646TIP3   OH2 7859   2.232   1.487   4.462
 2646TIP3    H1 7860   2.157   1.426   4.476
 2646TIP3    H2 7861   2.256   1.470   4.369
 2647TIP3   OH2 7862   2.481   0.947   4.110
 2647TIP3    H1 7863   2.428   1.027   4.087
 2647TIP3    H2 7864   2.457   0.887   4.038
 2648TIP3   OH2 7865   2.604   1.438   4.320
 2648TIP3    H1 7866   2.577   1.440   4.414
 2648TIP3    H2 7867   2.518   1.419   4.278
 2649TIP3   OH2 7868   2.837   1.388   4.171
 2649TIP3    H1 7869   2.764   1.397   4.235
 2649TIP3    H2 7870   2.913   1.364   4.228
 2650TIP3   OH2 7871   3.054   1.328   4.327
 2650TIP3    H1 7872   3.082   1.237   4.346
 2650TIP3    H2 7873   3.063   1.373   4.413
 2651TIP3   OH2 7874   2.057   1.278   4.515
 2651TIP3    H1 7875   2.063   1.184   4.488
 2651TIP3    H2 7876   2.091   1.273   4.606
 2652TIP3   OH2 7877   2.596   0.939   4.359
 2652TIP3    H1 7878   2.623   0.847   4.353
 2652TIP3    H2 7879   2.543   0.947   4.276
 2653TIP3   OH2 7880   2.643   1.173   4.489
 2653TIP3    H1 7881   2.596   1.116   4.425
 2653TIP3    H2 7882   2.572   1.240   4.507
 2654TIP3   OH2 7883   1.859   2.389   2.617
 2654TIP3    H1 7884   1.955   2.385   2.600
 2654TIP3    H2 7885   1.831   2.446   2.543
 2655TIP3   OH2 7886   1.341   1.780   2.824
 2655TIP3    H1 7887   1.436   1.806   2.820
 2655TIP3    H2 7888   1.346   1.686   2.802
 2656TIP3   OH2 7889   1.260   2.385   3.252
 2656TIP3    H1 7890   1.192   2.326   3.212
 2656TIP3    H2 7891   1.302   2.324   3.316
 2657TIP3   OH2 7892   1.396   2.226   3.433
 2657TIP3    H1 7893   1.375   2.163   3.504
 2657TIP3    H2 7894   1.446   2.293   3.483
 2658TIP3   OH2 7895   3.121   2.631   3.239
 2658TIP3    H1 7896   3.141   2.663   3.329
 2658TIP3    H2 7897   3.181   2.684   3.184
 2659TIP3   OH2 7898   3.144   2.655   3.519
 2659TIP3    H1 7899   3.101   2.566   3.517
 2659TIP3    H2 7900   3.218   2.636   3.578
 2660TIP3   OH2 7901   3.194   2.332   4.093
 2660TIP3    H1 7902   3.121   2.343   4.158
 2660TIP3    H2 7903   3.236   2.420   4.096
 2661TIP3   OH2 7904   3.012   1.847   2.710
 2661TIP3    H1 7905   3.079   1.912   2.682
 2661TIP3    H2 7906   3.054   1.810   2.791
 2662TIP3   OH2 7907   3.132   1.715   2.917
 2662TIP3    H1 7908   3.068   1.670   2.976
 2662TIP3    H2 7909   3.199   1.748   2.981
 2663TIP3   OH2 7910   3.195   2.109   3.347
 2663TIP3    H1 7911   3.247   2.041   3.300
 2663TIP3    H2 7912   3.191   2.181   3.281
 2664TIP3   OH2 7913   3.019   2.405   3.541
 2664TIP3    H1 7914   2.948   2.449   3.591
 2664TIP3    H2 7915   2.969   2.361   3.469
 2665TIP3   OH2 7916   3.072   1.628   2.554
 2665TIP3    H1 7917   2.996   1.631   2.492
 2665TIP3    H2 7918   3.047   1.701   2.615
 2666TIP3   OH2 7919   2.932   1.292   2.513
 2666TIP3    H1 7920   2.891   1.327   2.433
 2666TIP3    H2 7921   2.920   1.196   2.502
 2667TIP3   OH2 7922   2.952   1.562   3.063
 2667TIP3    H1 7923   2.991   1.475   3.074
 2667TIP3    H2 7924   2.930   1.584   3.157
 2668TIP3   OH2 7925   1.575   1.637   3.810
 2668TIP3    H1 7926   1.572   1.610   3.716
 2668TIP3    H2 7927   1.673   1.642   3.824
 2669TIP3   OH2 7928   3.239   1.997   3.919
 2669TIP3    H1 7929   3.310   1.930   3.906
 2669TIP3    H2 7930   3.264   2.067   3.856
 2670TIP3   OH2 7931   3.420   1.795   3.923
 2670TIP3    H1 7932   3.347   1.747   3.967
 2670TIP3    H2 7933   3.494   1.734   3.942
 2671TIP3   OH2 7934   2.895   1.021   2.475
 2671TIP3    H1 7935   2.965   1.004   2.543
 2671TIP3    H2 7936   2.818   0.973   2.511
 2672TIP3   OH2 7937   3.101   1.489   3.456
 2672TIP3    H1 7938   3.189   1.496   3.413
 2672TIP3    H2 7939   3.125   1.514   3.547
 2673TIP3   OH2 7940   3.186   1.611   3.692
 2673TIP3    H1 7941   3.104   1.643   3.734
 2673TIP3    H2 7942   3.216   1.690   3.643
 2674TIP3   OH2 7943   1.791   1.320   4.467
 2674TIP3    H1 7944   1.888   1.324   4.484
 2674TIP3    H2 7945   1.767   1.239   4.515
 2675TIP3   OH2 7946   3.620   1.193   4.235
 2675TIP3    H1 7947   3.685   1.132   4.194
 2675TIP3    H2 7948   3.592   1.248   4.159
 2676TIP3   OH2 7949   1.777   1.006   3.817
 2676TIP3    H1 7950   1.822   0.962   3.743
 2676TIP3    H2 7951   1.815   1.095   3.813
 2677TIP3   OH2 7952   1.559   1.291   3.887
 2677TIP3    H1 7953   1.607   1.300   3.802
 2677TIP3    H2 7954   1.571   1.380   3.924
 2678TIP3   OH2 7955   3.495   1.333   4.040
 2678TIP3    H1 7956   3.410   1.378   4.059
 2678TIP3    H2 7957   3.462   1.261   3.983
 2679TIP3   OH2 7958   3.132   0.986   2.603
 2679TIP3    H1 7959   3.182   0.903   2.589
 2679TIP3    H2 7960   3.202   1.047   2.634
 2680TIP3   OH2 7961   1.543   0.854   3.383
 2680TIP3    H1 7962   1.450   0.846   3.362
 2680TIP3    H2 7963   1.582   0.788   3.323
 2681TIP3   OH2 7964   2.700   2.502   2.890
 2681TIP3    H1 7965   2.757   2.499   2.810
 2681TIP3    H2 7966   2.745   2.571   2.944
 2682TIP3   OH2 7967   1.757   0.863   4.168
 2682TIP3    H1 7968   1.726   0.860   4.261
 2682TIP3    H2 7969   1.684   0.917   4.128
 2683TIP3   OH2 7970   1.803   2.297   4.274
 2683TIP3    H1 7971   1.707   2.284   4.262
 2683TIP3    H2 7972   1.811   2.301   4.370
 2684TIP3   OH2 7973   1.983   2.342   3.822
 2684TIP3    H1 7974   1.933   2.418   3.786
 2684TIP3    H2 7975   2.068   2.359   3.777
 2685TIP3   OH2 7976   2.419   2.582   3.957
 2685TIP3    H1 7977   2.460   2.583   4.047
 2685TIP3    H2 7978   2.485   2.637   3.908
 2686TIP3   OH2 7979   2.601   2.739   3.825
 2686TIP3    H1 7980   2.674   2.690   3.784
 2686TIP3    H2 7981   2.650   2.797   3.886
 2687TIP3   OH2 7982   3.396   1.098   3.923
 2687TIP3    H1 7983   3.309   1.092   3.880
 2687TIP3    H2 7984   3.430   1.006   3.912
 2688TIP3   OH2 7985   1.654   2.593   3.856
 2688TIP3    H1 7986   1.563   2.621   3.832
 2688TIP3    H2 7987   1.672   2.656   3.928
 2689TIP3   OH2 7988   1.889   2.574   3.708
 2689TIP3    H1 7989   1.802   2.587   3.753
 2689TIP3    H2 7990   1.870   2.611   3.620
 2690TIP3   OH2 7991   2.317   2.602   3.505
 2690TIP3    H1 7992   2.245   2.621   3.442
 2690TIP3    H2 7993   2.328   2.689   3.548
 2691TIP3   OH2 7994   2.586   2.538   3.556
 2691TIP3    H1 7995   2.492   2.559   3.539
 2691TIP3    H2 7996   2.630   2.615   3.516
 2692TIP3   OH2 7997   2.790   2.731   3.469
 2692TIP3    H1 7998   2.777   2.817   3.423
 2692TIP3    H2 7999   2.817   2.673   3.396
 2693TIP3   OH2 8000   1.567   2.389   3.587
 2693TIP3    H1 8001   1.589   2.363   3.679
 2693TIP3    H2 8002   1.642   2.347   3.540
 2694TIP3   OH2 8003   1.765   2.262   3.451
 2694TIP3    H1 8004   1.779   2.179   3.502
 2694TIP3    H2 8005   1.855   2.300   3.450
 2695TIP3   OH2 8006   2.029   2.353   3.458
 2695TIP3    H1 8007   2.060   2.261   3.450
 2695TIP3    H2 8008   2.077   2.380   3.540
 2696TIP3   OH2 8009   3.123   0.900   3.418
 2696TIP3    H1 8010   3.158   0.970   3.361
 2696TIP3    H2 8011   3.029   0.921   3.420
 2697TIP3   OH2 8012   1.849   0.732   3.557
 2697TIP3    H1 8013   1.760   0.693   3.563
 2697TIP3    H2 8014   1.904   0.651   3.562
 2698TIP3   OH2 8015   2.281   0.744   3.423
 2698TIP3    H1 8016   2.363   0.787   3.393
 2698TIP3    H2 8017   2.296   0.756   3.517
 2699TIP3   OH2 8018   2.855   0.799   2.958
 2699TIP3    H1 8019   2.808   0.872   3.001
 2699TIP3    H2 8020   2.840   0.726   3.021
 2700TIP3   OH2 8021   1.354   2.165   2.981
 2700TIP3    H1 8022   1.266   2.137   2.949
 2700TIP3    H2 8023   1.351   2.259   2.954
 2701TIP3   OH2 8024   2.281   0.924   3.069
 2701TIP3    H1 8025   2.338   0.869   3.124
 2701TIP3    H2 8026   2.309   1.014   3.097
 2702TIP3   OH2 8027   2.126   2.352   2.566
 2702TIP3    H1 8028   2.214   2.373   2.529
 2702TIP3    H2 8029   2.101   2.277   2.507
 2703TIP3   OH2 8030   2.850   2.473   2.659
 2703TIP3    H1 8031   2.839   2.375   2.649
 2703TIP3    H2 8032   2.801   2.505   2.581
 2704TIP3   OH2 8033   2.061   1.011   4.444
 2704TIP3    H1 8034   2.021   0.933   4.486
 2704TIP3    H2 8035   2.153   1.004   4.476
 2705TIP3   OH2 8036   2.311   0.995   4.570
 2705TIP3    H1 8037   2.387   0.949   4.532
 2705TIP3    H2 8038   2.284   0.931   4.641
 2706TIP3   OH2 8039   1.425   2.182   2.620
 2706TIP3    H1 8040   1.424   2.213   2.712
 2706TIP3    H2 8041   1.515   2.142   2.612
 2707TIP3   OH2 8042   3.127   1.058   4.360
 2707TIP3    H1 8043   3.149   1.026   4.451
 2707TIP3    H2 8044   3.217   1.059   4.319
 2708TIP3   OH2 8045   3.070   2.612   3.843
 2708TIP3    H1 8046   2.991   2.584   3.795
 2708TIP3    H2 8047   3.052   2.708   3.852
 2709TIP3   OH2 8048   4.340   1.984   2.610
 2709TIP3    H1 8049   4.312   2.076   2.591
 2709TIP3    H2 8050   4.262   1.936   2.578
 2710TIP3   OH2 8051   4.345   1.980   2.996
 2710TIP3    H1 8052   4.377   1.968   3.088
 2710TIP3    H2 8053   4.292   1.900   2.983
 2711TIP3   OH2 8054   3.636   1.878   3.358
 2711TIP3    H1 8055   3.665   1.808   3.419
 2711TIP3    H2 8056   3.711   1.939   3.362
 2712TIP3   OH2 8057   4.584   2.291   2.680
 2712TIP3    H1 8058   4.569   2.228   2.751
 2712TIP3    H2 8059   4.614   2.370   2.730
 2713TIP3   OH2 8060   3.610   2.292   3.077
 2713TIP3    H1 8061   3.602   2.194   3.079
 2713TIP3    H2 8062   3.707   2.302   3.077
 2714TIP3   OH2 8063   3.321   1.507   2.865
 2714TIP3    H1 8064   3.260   1.582   2.875
 2714TIP3    H2 8065   3.258   1.436   2.844
 2715TIP3   OH2 8066   3.370   1.780   3.046
 2715TIP3    H1 8067   3.418   1.700   3.078
 2715TIP3    H2 8068   3.431   1.815   2.980
 2716TIP3   OH2 8069   4.234   2.750   2.694
 2716TIP3    H1 8070   4.276   2.677   2.644
 2716TIP3    H2 8071   4.224   2.712   2.782
 2717TIP3   OH2 8072   4.135   2.214   3.041
 2717TIP3    H1 8073   4.177   2.140   2.995
 2717TIP3    H2 8074   4.217   2.261   3.069
 2718TIP3   OH2 8075   5.149   1.535   3.037
 2718TIP3    H1 8076   5.180   1.614   3.085
 2718TIP3    H2 8077   5.180   1.554   2.947
 2719TIP3   OH2 8078   4.557   1.719   3.068
 2719TIP3    H1 8079   4.592   1.633   3.099
 2719TIP3    H2 8080   4.511   1.691   2.987
 2720TIP3   OH2 8081   3.889   1.375   3.037
 2720TIP3    H1 8082   3.864   1.446   2.974
 2720TIP3    H2 8083   3.842   1.299   2.995
 2721TIP3   OH2 8084   3.516   1.570   3.146
 2721TIP3    H1 8085   3.602   1.552   3.190
 2721TIP3    H2 8086   3.524   1.510   3.069
 2722TIP3   OH2 8087   3.959   1.771   2.939
 2722TIP3    H1 8088   4.053   1.746   2.953
 2722TIP3    H2 8089   3.921   1.687   2.907
 2723TIP3   OH2 8090   5.224   1.740   3.208
 2723TIP3    H1 8091   5.138   1.786   3.194
 2723TIP3    H2 8092   5.242   1.764   3.301
 2724TIP3   OH2 8093   3.883   1.355   3.473
 2724TIP3    H1 8094   3.824   1.392   3.405
 2724TIP3    H2 8095   3.830   1.373   3.553
 2725TIP3   OH2 8096   4.229   2.207   2.477
 2725TIP3    H1 8097   4.186   2.195   2.392
 2725TIP3    H2 8098   4.185   2.289   2.508
 2726TIP3   OH2 8099   3.990   2.133   3.264
 2726TIP3    H1 8100   3.930   2.202   3.301
 2726TIP3    H2 8101   4.033   2.181   3.191
 2727TIP3   OH2 8102   4.748   1.461   2.837
 2727TIP3    H1 8103   4.755   1.453   2.934
 2727TIP3    H2 8104   4.809   1.536   2.821
 2728TIP3   OH2 8105   3.754   1.470   3.256
 2728TIP3    H1 8106   3.815   1.543   3.280
 2728TIP3    H2 8107   3.803   1.430   3.181
 2729TIP3   OH2 8108   3.821   2.330   3.363
 2729TIP3    H1 8109   3.796   2.419   3.330
 2729TIP3    H2 8110   3.741   2.312   3.418
 2730TIP3   OH2 8111   3.210   2.018   2.601
 2730TIP3    H1 8112   3.169   2.050   2.518
 2730TIP3    H2 8113   3.243   2.103   2.639
 2731TIP3   OH2 8114   4.648   2.533   2.836
 2731TIP3    H1 8115   4.559   2.525   2.878
 2731TIP3    H2 8116   4.641   2.621   2.793
 2732TIP3   OH2 8117   4.940   1.425   3.191
 2732TIP3    H1 8118   4.864   1.481   3.171
 2732TIP3    H2 8119   5.010   1.461   3.133
 2733TIP3   OH2 8120   4.237   1.079   3.190
 2733TIP3    H1 8121   4.225   0.984   3.209
 2733TIP3    H2 8122   4.159   1.116   3.238
 2734TIP3   OH2 8123   4.350   2.575   2.511
 2734TIP3    H1 8124   4.402   2.494   2.492
 2734TIP3    H2 8125   4.412   2.642   2.472
 2735TIP3   OH2 8126   4.497   2.359   2.427
 2735TIP3    H1 8127   4.448   2.281   2.399
 2735TIP3    H2 8128   4.536   2.328   2.512
 2736TIP3   OH2 8129   4.876   2.443   3.186
 2736TIP3    H1 8130   4.864   2.366   3.126
 2736TIP3    H2 8131   4.857   2.518   3.125
 2737TIP3   OH2 8132   4.168   1.832   2.450
 2737TIP3    H1 8133   4.089   1.886   2.430
 2737TIP3    H2 8134   4.214   1.832   2.364
 2738TIP3   OH2 8135   4.127   1.627   2.154
 2738TIP3    H1 8136   4.193   1.678   2.205
 2738TIP3    H2 8137   4.185   1.563   2.108
 2739TIP3   OH2 8138   5.071   2.082   3.031
 2739TIP3    H1 8139   4.988   2.134   3.035
 2739TIP3    H2 8140   5.103   2.107   2.942
 2740TIP3   OH2 8141   4.517   1.920   2.411
 2740TIP3    H1 8142   4.463   1.945   2.490
 2740TIP3    H2 8143   4.602   1.898   2.454
 2741TIP3   OH2 8144   4.751   1.958   3.336
 2741TIP3    H1 8145   4.752   2.039   3.390
 2741TIP3    H2 8146   4.666   1.968   3.290
 2742TIP3   OH2 8147   3.749   1.915   2.831
 2742TIP3    H1 8148   3.711   1.857   2.762
 2742TIP3    H2 8149   3.826   1.863   2.862
 2743TIP3   OH2 8150   3.881   2.332   2.978
 2743TIP3    H1 8151   3.862   2.295   2.891
 2743TIP3    H2 8152   3.970   2.296   2.997
 2744TIP3   OH2 8153   3.889   1.888   3.186
 2744TIP3    H1 8154   3.919   1.867   3.096
 2744TIP3    H2 8155   3.929   1.976   3.204
 2745TIP3   OH2 8156   4.411   2.527   2.964
 2745TIP3    H1 8157   4.397   2.609   3.014
 2745TIP3    H2 8158   4.393   2.457   3.029
 2746TIP3   OH2 8159   4.025   2.444   3.511
 2746TIP3    H1 8160   3.964   2.506   3.557
 2746TIP3    H2 8161   3.960   2.392   3.459
 2747TIP3   OH2 8162   4.355   1.774   2.244
 2747TIP3    H1 8163   4.414   1.836   2.293
 2747TIP3    H2 8164   4.380   1.796   2.150
 2748TIP3   OH2 8165   3.779   1.998   3.616
 2748TIP3    H1 8166   3.785   2.088   3.655
 2748TIP3    H2 8167   3.685   1.979   3.631
 2749TIP3   OH2 8168   4.105   2.453   2.515
 2749TIP3    H1 8169   4.187   2.505   2.522
 2749TIP3    H2 8170   4.043   2.517   2.477
 2750TIP3   OH2 8171   3.818   2.608   3.598
 2750TIP3    H1 8172   3.781   2.614   3.508
 2750TIP3    H2 8173   3.738   2.587   3.652
 2751TIP3   OH2 8174   4.875   1.020   2.291
 2751TIP3    H1 8175   4.795   1.047   2.340
 2751TIP3    H2 8176   4.891   1.100   2.236
 2752TIP3   OH2 8177   3.620   1.759   2.626
 2752TIP3    H1 8178   3.546   1.801   2.577
 2752TIP3    H2 8179   3.579   1.678   2.658
 2753TIP3   OH2 8180   4.673   2.382   1.835
 2753TIP3    H1 8181   4.680   2.480   1.824
 2753TIP3    H2 8182   4.767   2.356   1.826
 2754TIP3   OH2 8183   3.395   2.145   3.545
 2754TIP3    H1 8184   3.327   2.126   3.478
 2754TIP3    H2 8185   3.433   2.057   3.564
 2755TIP3   OH2 8186   3.250   2.339   3.174
 2755TIP3    H1 8187   3.347   2.338   3.171
 2755TIP3    H2 8188   3.234   2.418   3.229
 2756TIP3   OH2 8189   5.108   2.781   3.226
 2756TIP3    H1 8190   5.110   2.686   3.248
 2756TIP3    H2 8191   5.029   2.809   3.277
 2757TIP3   OH2 8192   4.220   2.573   3.367
 2757TIP3    H1 8193   4.216   2.666   3.399
 2757TIP3    H2 8194   4.149   2.533   3.422
 2758TIP3   OH2 8195   3.985   2.702   2.320
 2758TIP3    H1 8196   3.937   2.688   2.237
 2758TIP3    H2 8197   3.952   2.788   2.350
 2759TIP3   OH2 8198   3.421   2.552   2.706
 2759TIP3    H1 8199   3.470   2.545   2.791
 2759TIP3    H2 8200   3.365   2.473   2.711
 2760TIP3   OH2 8201   4.182   2.606   1.957
 2760TIP3    H1 8202   4.241   2.535   1.922
 2760TIP3    H2 8203   4.217   2.618   2.048
 2761TIP3   OH2 8204   4.235   2.654   2.225
 2761TIP3    H1 8205   4.147   2.663   2.268
 2761TIP3    H2 8206   4.289   2.622   2.299
 2762TIP3   OH2 8207   5.004   1.921   3.511
 2762TIP3    H1 8208   4.920   1.929   3.464
 2762TIP3    H2 8209   5.023   1.826   3.502
 2763TIP3   OH2 8210   3.601   2.326   3.525
 2763TIP3    H1 8211   3.648   2.315   3.610
 2763TIP3    H2 8212   3.526   2.265   3.535
 2764TIP3   OH2 8213   3.999   1.152   3.317
 2764TIP3    H1 8214   3.910   1.121   3.290
 2764TIP3    H2 8215   3.973   1.231   3.368
 2765TIP3   OH2 8216   4.539   1.261   3.515
 2765TIP3    H1 8217   4.610   1.241   3.580
 2765TIP3    H2 8218   4.458   1.245   3.566
 2766TIP3   OH2 8219   4.761   1.691   3.424
 2766TIP3    H1 8220   4.721   1.688   3.514
 2766TIP3    H2 8221   4.746   1.783   3.396
 2767TIP3   OH2 8222   4.426   1.817   1.985
 2767TIP3    H1 8223   4.400   1.797   1.893
 2767TIP3    H2 8224   4.508   1.867   1.971
 2768TIP3   OH2 8225   4.148   1.195   2.290
 2768TIP3    H1 8226   4.111   1.192   2.380
 2768TIP3    H2 8227   4.106   1.115   2.253
 2769TIP3   OH2 8228   3.933   1.666   3.336
 2769TIP3    H1 8229   3.882   1.686   3.417
 2769TIP3    H2 8230   3.918   1.748   3.283
 2770TIP3   OH2 8231   3.816   1.552   2.846
 2770TIP3    H1 8232   3.724   1.523   2.865
 2770TIP3    H2 8233   3.829   1.509   2.758
 2771TIP3   OH2 8234   4.313   1.635   2.582
 2771TIP3    H1 8235   4.260   1.707   2.541
 2771TIP3    H2 8236   4.363   1.603   2.504
 2772TIP3   OH2 8237   4.481   1.912   3.660
 2772TIP3    H1 8238   4.459   1.840   3.723
 2772TIP3    H2 8239   4.574   1.928   3.683
 2773TIP3   OH2 8240   4.461   1.661   2.820
 2773TIP3    H1 8241   4.391   1.689   2.758
 2773TIP3    H2 8242   4.537   1.666   2.761
 2774TIP3   OH2 8243   3.752   1.694   3.542
 2774TIP3    H1 8244   3.778   1.760   3.609
 2774TIP3    H2 8245   3.740   1.614   3.596
 2775TIP3   OH2 8246   3.800   1.174   2.254
 2775TIP3    H1 8247   3.788   1.173   2.351
 2775TIP3    H2 8248   3.725   1.231   2.228
 2776TIP3   OH2 8249   3.409   1.249   3.071
 2776TIP3    H1 8250   3.438   1.262   3.162
 2776TIP3    H2 8251   3.321   1.209   3.083
 2777TIP3   OH2 8252   3.322   1.198   2.640
 2777TIP3    H1 8253   3.372   1.236   2.566
 2777TIP3    H2 8254   3.260   1.271   2.661
 2778TIP3   OH2 8255   4.465   1.912   3.237
 2778TIP3    H1 8256   4.505   1.842   3.179
 2778TIP3    H2 8257   4.438   1.857   3.314
 2779TIP3   OH2 8258   4.137   1.371   2.913
 2779TIP3    H1 8259   4.053   1.377   2.964
 2779TIP3    H2 8260   4.203   1.375   2.983
 2780TIP3   OH2 8261   3.579   1.435   2.909
 2780TIP3    H1 8262   3.484   1.451   2.889
 2780TIP3    H2 8263   3.577   1.339   2.925
 2781TIP3   OH2 8264   3.848   1.426   2.604
 2781TIP3    H1 8265   3.937   1.445   2.571
 2781TIP3    H2 8266   3.791   1.446   2.526
 2782TIP3   OH2 8267   4.616   1.446   3.102
 2782TIP3    H1 8268   4.608   1.462   3.199
 2782TIP3    H2 8269   4.539   1.386   3.090
 2783TIP3   OH2 8270   3.694   1.457   2.384
 2783TIP3    H1 8271   3.620   1.416   2.335
 2783TIP3    H2 8272   3.745   1.497   2.311
 2784TIP3   OH2 8273   4.812   3.141   3.333
 2784TIP3    H1 8274   4.804   3.161   3.238
 2784TIP3    H2 8275   4.844   3.225   3.369
 2785TIP3   OH2 8276   3.764   2.248   3.752
 2785TIP3    H1 8277   3.843   2.279   3.800
 2785TIP3    H2 8278   3.698   2.250   3.824
 2786TIP3   OH2 8279   4.222   1.707   3.013
 2786TIP3    H1 8280   4.298   1.665   2.971
 2786TIP3    H2 8281   4.222   1.666   3.102
 2787TIP3   OH2 8282   3.759   1.181   2.898
 2787TIP3    H1 8283   3.708   1.115   2.950
 2787TIP3    H2 8284   3.774   1.132   2.817
 2788TIP3   OH2 8285   4.203   1.611   3.288
 2788TIP3    H1 8286   4.113   1.641   3.310
 2788TIP3    H2 8287   4.259   1.667   3.345
 2789TIP3   OH2 8288   3.942   1.986   2.393
 2789TIP3    H1 8289   3.867   1.924   2.380
 2789TIP3    H2 8290   3.920   2.022   2.483
 2790TIP3   OH2 8291   4.837   2.228   3.018
 2790TIP3    H1 8292   4.863   2.280   2.938
 2790TIP3    H2 8293   4.752   2.188   2.991
 2791TIP3   OH2 8294   4.402   1.293   2.255
 2791TIP3    H1 8295   4.308   1.272   2.276
 2791TIP3    H2 8296   4.417   1.377   2.301
 2792TIP3   OH2 8297   4.333   2.308   3.392
 2792TIP3    H1 8298   4.372   2.295   3.480
 2792TIP3    H2 8299   4.297   2.398   3.397
 2793TIP3   OH2 8300   4.470   1.546   2.369
 2793TIP3    H1 8301   4.566   1.554   2.382
 2793TIP3    H2 8302   4.450   1.623   2.313
 2794TIP3   OH2 8303   3.633   2.015   3.066
 2794TIP3    H1 8304   3.672   1.983   2.982
 2794TIP3    H2 8305   3.673   1.955   3.132
 2795TIP3   OH2 8306   4.083   2.139   2.215
 2795TIP3    H1 8307   4.034   2.225   2.218
 2795TIP3    H2 8308   4.030   2.085   2.277
 2796TIP3   OH2 8309   3.517   1.930   3.681
 2796TIP3    H1 8310   3.531   1.917   3.777
 2796TIP3    H2 8311   3.444   1.868   3.664
 2797TIP3   OH2 8312   4.241   2.050   3.701
 2797TIP3    H1 8313   4.180   1.988   3.659
 2797TIP3    H2 8314   4.328   2.014   3.672
 2798TIP3   OH2 8315   4.495   2.565   3.289
 2798TIP3    H1 8316   4.398   2.568   3.302
 2798TIP3    H2 8317   4.525   2.619   3.365
 2799TIP3   OH2 8318   4.900   1.646   2.198
 2799TIP3    H1 8319   4.839   1.603   2.134
 2799TIP3    H2 8320   4.900   1.735   2.157
 2800TIP3   OH2 8321   5.126   2.499   3.274
 2800TIP3    H1 8322   5.028   2.492   3.266
 2800TIP3    H2 8323   5.153   2.470   3.184
 2801TIP3   OH2 8324   4.607   2.462   2.103
 2801TIP3    H1 8325   4.582   2.396   2.169
 2801TIP3    H2 8326   4.621   2.409   2.022
 2802TIP3   OH2 8327   4.603   2.095   2.932
 2802TIP3    H1 8328   4.510   2.069   2.948
 2802TIP3    H2 8329   4.636   2.018   2.884
 2803TIP3   OH2 8330   3.734   2.318   2.689
 2803TIP3    H1 8331   3.729   2.400   2.636
 2803TIP3    H2 8332   3.641   2.305   2.713
 2804TIP3   OH2 8333   3.297   1.622   2.399
 2804TIP3    H1 8334   3.343   1.706   2.421
 2804TIP3    H2 8335   3.221   1.627   2.461
 2805TIP3   OH2 8336   3.863   2.080   2.633
 2805TIP3    H1 8337   3.830   2.170   2.651
 2805TIP3    H2 8338   3.829   2.031   2.709
 2806TIP3   OH2 8339   4.005   2.660   3.160
 2806TIP3    H1 8340   4.047   2.734   3.111
 2806TIP3    H2 8341   4.080   2.625   3.209
 2807TIP3   OH2 8342   3.650   2.557   2.544
 2807TIP3    H1 8343   3.565   2.566   2.592
 2807TIP3    H2 8344   3.683   2.649   2.548
 2808TIP3   OH2 8345   4.385   2.293   3.125
 2808TIP3    H1 8346   4.373   2.293   3.222
 2808TIP3    H2 8347   4.472   2.250   3.117
 2809TIP3   OH2 8348   4.371   2.186   2.002
 2809TIP3    H1 8349   4.424   2.161   2.081
 2809TIP3    H2 8350   4.282   2.163   2.032
 2810TIP3   OH2 8351   4.638   2.824   3.168
 2810TIP3    H1 8352   4.556   2.771   3.163
 2810TIP3    H2 8353   4.622   2.890   3.097
 2811TIP3   OH2 8354   4.703   2.660   1.822
 2811TIP3    H1 8355   4.743   2.736   1.777
 2811TIP3    H2 8356   4.622   2.704   1.857
 2812TIP3   OH2 8357   3.721   1.437   3.686
 2812TIP3    H1 8358   3.624   1.441   3.697
 2812TIP3    H2 8359   3.748   1.384   3.762
 2813TIP3   OH2 8360   4.529   2.114   2.213
 2813TIP3    H1 8361   4.518   2.053   2.288
 2813TIP3    H2 8362   4.627   2.116   2.206
 2814TIP3   OH2 8363   3.442   2.521   3.318
 2814TIP3    H1 8364   3.497   2.454   3.362
 2814TIP3    H2 8365   3.460   2.599   3.372
 2815TIP3   OH2 8366   3.730   2.167   2.005
 2815TIP3    H1 8367   3.743   2.074   1.981
 2815TIP3    H2 8368   3.710   2.160   2.100
 2816TIP3   OH2 8369   3.673   2.174   2.276
 2816TIP3    H1 8370   3.744   2.148   2.336
 2816TIP3    H2 8371   3.675   2.272   2.284
 2817TIP3   OH2 8372   3.405   1.864   2.482
 2817TIP3    H1 8373   3.340   1.910   2.539
 2817TIP3    H2 8374   3.419   1.933   2.414
 2818TIP3   OH2 8375   4.572   1.492   3.364
 2818TIP3    H1 8376   4.644   1.543   3.406
 2818TIP3    H2 8377   4.561   1.417   3.426
 2819TIP3   OH2 8378   3.941   2.369   2.223
 2819TIP3    H1 8379   3.854   2.392   2.260
 2819TIP3    H2 8380   3.959   2.450   2.171
 2820TIP3   OH2 8381   4.152   1.417   2.644
 2820TIP3    H1 8382   4.205   1.498   2.630
 2820TIP3    H2 8383   4.145   1.413   2.742
 2821TIP3   OH2 8384   4.403   1.748   3.446
 2821TIP3    H1 8385   4.423   1.806   3.523
 2821TIP3    H2 8386   4.456   1.670   3.467
 2822TIP3   OH2 8387   3.687   2.445   2.295
 2822TIP3    H1 8388   3.657   2.516   2.234
 2822TIP3    H2 8389   3.671   2.487   2.382
 2823TIP3   OH2 8390   3.783   1.161   2.529
 2823TIP3    H1 8391   3.780   1.250   2.570
 2823TIP3    H2 8392   3.880   1.147   2.531
 2824TIP3   OH2 8393   5.034   1.659   3.427
 2824TIP3    H1 8394   4.936   1.652   3.429
 2824TIP3    H2 8395   5.056   1.597   3.357
 2825TIP3   OH2 8396   4.689   1.841   2.816
 2825TIP3    H1 8397   4.621   1.814   2.880
 2825TIP3    H2 8398   4.770   1.806   2.860
 2826TIP3   OH2 8399   3.403   2.070   2.285
 2826TIP3    H1 8400   3.472   2.138   2.295
 2826TIP3    H2 8401   3.448   2.013   2.218
 2827TIP3   OH2 8402   3.345   1.351   2.402
 2827TIP3    H1 8403   3.353   1.448   2.406
 2827TIP3    H2 8404   3.250   1.339   2.417
 2828TIP3   OH2 8405   4.661   2.802   2.760
 2828TIP3    H1 8406   4.619   2.849   2.685
 2828TIP3    H2 8407   4.756   2.822   2.742
 2829TIP3   OH2 8408   3.737   1.070   3.287
 2829TIP3    H1 8409   3.704   1.039   3.200
 2829TIP3    H2 8410   3.723   0.991   3.343
 2830TIP3   OH2 8411   3.265   2.282   2.668
 2830TIP3    H1 8412   3.209   2.317   2.739
 2830TIP3    H2 8413   3.230   2.330   2.590
 2831TIP3   OH2 8414   3.435   2.840   3.741
 2831TIP3    H1 8415   3.520   2.843   3.791
 2831TIP3    H2 8416   3.416   2.745   3.744
 2832TIP3   OH2 8417   3.907   2.790   3.791
 2832TIP3    H1 8418   4.003   2.779   3.795
 2832TIP3    H2 8419   3.884   2.728   3.719
 2833TIP3   OH2 8420   3.891   2.370   1.911
 2833TIP3    H1 8421   3.836   2.299   1.951
 2833TIP3    H2 8422   3.968   2.319   1.881
 2834TIP3   OH2 8423   4.553   2.700   3.520
 2834TIP3    H1 8424   4.545   2.633   3.591
 2834TIP3    H2 8425   4.628   2.755   3.552
 2835TIP3   OH2 8426   4.328   2.408   1.830
 2835TIP3    H1 8427   4.371   2.345   1.891
 2835TIP3    H2 8428   4.387   2.406   1.752
 2836TIP3   OH2 8429   3.561   2.239   3.943
 2836TIP3    H1 8430   3.575   2.143   3.950
 2836TIP3    H2 8431   3.474   2.243   3.898
 2837TIP3   OH2 8432   3.541   1.884   2.140
 2837TIP3    H1 8433   3.598   1.857   2.215
 2837TIP3    H2 8434   3.608   1.890   2.069
 2838TIP3   OH2 8435   4.168   2.327   3.718
 2838TIP3    H1 8436   4.127   2.349   3.632
 2838TIP3    H2 8437   4.199   2.235   3.705
 2839TIP3   OH2 8438   4.058   2.087   1.946
 2839TIP3    H1 8439   4.057   2.100   2.043
 2839TIP3    H2 8440   4.053   1.990   1.941
 2840TIP3   OH2 8441   4.659   2.338   3.323
 2840TIP3    H1 8442   4.736   2.380   3.281
 2840TIP3    H2 8443   4.591   2.408   3.309
 2841TIP3   OH2 8444   3.682   1.972   3.930
 2841TIP3    H1 8445   3.763   1.930   3.900
 2841TIP3    H2 8446   3.709   2.008   4.017
 2842TIP3   OH2 8447   3.740   1.796   2.356
 2842TIP3    H1 8448   3.713   1.762   2.443
 2842TIP3    H2 8449   3.779   1.718   2.313
 2843TIP3   OH2 8450   4.017   1.857   3.588
 2843TIP3    H1 8451   3.939   1.916   3.589
 2843TIP3    H2 8452   4.067   1.892   3.510
 2844TIP3   OH2 8453   3.849   1.588   2.200
 2844TIP3    H1 8454   3.824   1.598   2.106
 2844TIP3    H2 8455   3.947   1.592   2.192
 2845TIP3   OH2 8456   4.532   2.258   3.719
 2845TIP3    H1 8457   4.613   2.229   3.676
 2845TIP3    H2 8458   4.526   2.196   3.794
 2846TIP3   OH2 8459   4.662   1.911   1.866
 2846TIP3    H1 8460   4.641   1.865   1.784
 2846TIP3    H2 8461   4.633   2.002   1.844
 2847TIP3   OH2 8462   4.138   1.648   3.713
 2847TIP3    H1 8463   4.140   1.570   3.653
 2847TIP3    H2 8464   4.095   1.716   3.656
 2848TIP3   OH2 8465   4.142   1.434   3.519
 2848TIP3    H1 8466   4.169   1.475   3.435
 2848TIP3    H2 8467   4.048   1.412   3.502
 2849TIP3   OH2 8468   4.165   1.964   3.391
 2849TIP3    H1 8469   4.252   1.987   3.355
 2849TIP3    H2 8470   4.108   2.031   3.347
 2850TIP3   OH2 8471   4.747   1.933   3.771
 2850TIP3    H1 8472   4.794   1.850   3.791
 2850TIP3    H2 8473   4.819   1.988   3.737
 2851TIP3   OH2 8474   4.789   2.187   3.506
 2851TIP3    H1 8475   4.732   2.243   3.449
 2851TIP3    H2 8476   4.877   2.210   3.469
 2852TIP3   OH2 8477   4.017   1.752   3.947
 2852TIP3    H1 8478   3.949   1.683   3.963
 2852TIP3    H2 8479   4.051   1.726   3.859
 2853TIP3   OH2 8480   4.273   1.194   3.591
 2853TIP3    H1 8481   4.223   1.276   3.569
 2853TIP3    H2 8482   4.203   1.126   3.581
 2854TIP3   OH2 8483   4.400   1.697   3.805
 2854TIP3    H1 8484   4.390   1.682   3.901
 2854TIP3    H2 8485   4.309   1.673   3.776
 2855TIP3   OH2 8486   4.641   1.644   3.661
 2855TIP3    H1 8487   4.568   1.647   3.726
 2855TIP3    H2 8488   4.715   1.607   3.716
 2856TIP3   OH2 8489   4.861   1.574   3.813
 2856TIP3    H1 8490   4.910   1.489   3.821
 2856TIP3    H2 8491   4.868   1.609   3.903
 2857TIP3   OH2 8492   3.855   1.532   4.002
 2857TIP3    H1 8493   3.861   1.440   3.970
 2857TIP3    H2 8494   3.894   1.522   4.092
 2858TIP3   OH2 8495   4.364   1.203   3.850
 2858TIP3    H1 8496   4.436   1.137   3.843
 2858TIP3    H2 8497   4.326   1.198   3.760
 2859TIP3   OH2 8498   4.432   1.419   4.010
 2859TIP3    H1 8499   4.412   1.348   3.944
 2859TIP3    H2 8500   4.354   1.478   4.001
 2860TIP3   OH2 8501   3.657   2.646   2.105
 2860TIP3    H1 8502   3.752   2.637   2.087
 2860TIP3    H2 8503   3.630   2.700   2.029
 2861TIP3   OH2 8504   3.134   2.034   2.316
 2861TIP3    H1 8505   3.229   2.055   2.306
 2861TIP3    H2 8506   3.130   1.944   2.277
 2862TIP3   OH2 8507   3.056   2.641   2.738
 2862TIP3    H1 8508   2.988   2.581   2.698
 2862TIP3    H2 8509   3.098   2.580   2.803
 2863TIP3   OH2 8510   3.190   2.483   2.922
 2863TIP3    H1 8511   3.175   2.418   2.993
 2863TIP3    H2 8512   3.240   2.550   2.972
 2864TIP3   OH2 8513   4.920   2.888   2.731
 2864TIP3    H1 8514   4.944   2.925   2.817
 2864TIP3    H2 8515   4.965   2.948   2.670
 2865TIP3   OH2 8516   4.949   2.901   3.014
 2865TIP3    H1 8517   4.899   2.818   3.000
 2865TIP3    H2 8518   5.012   2.871   3.082
 2866TIP3   OH2 8519   4.988   2.590   3.578
 2866TIP3    H1 8520   4.917   2.600   3.645
 2866TIP3    H2 8521   5.031   2.678   3.583
 2867TIP3   OH2 8522   4.807   2.104   2.196
 2867TIP3    H1 8523   4.873   2.169   2.166
 2867TIP3    H2 8524   4.852   2.067   2.276
 2868TIP3   OH2 8525   4.934   1.971   2.400
 2868TIP3    H1 8526   4.868   1.931   2.460
 2868TIP3    H2 8527   5.002   2.006   2.462
 2869TIP3   OH2 8528   4.990   2.364   2.833
 2869TIP3    H1 8529   5.044   2.296   2.787
 2869TIP3    H2 8530   4.987   2.436   2.766
 2870TIP3   OH2 8531   4.813   2.660   3.025
 2870TIP3    H1 8532   4.743   2.705   3.076
 2870TIP3    H2 8533   4.762   2.616   2.954
 2871TIP3   OH2 8534   4.870   1.879   2.048
 2871TIP3    H1 8535   4.798   1.881   1.982
 2871TIP3    H2 8536   4.844   1.955   2.104
 2872TIP3   OH2 8537   4.734   1.552   2.005
 2872TIP3    H1 8538   4.698   1.583   1.921
 2872TIP3    H2 8539   4.715   1.456   1.999
 2873TIP3   OH2 8540   4.744   1.831   2.544
 2873TIP3    H1 8541   4.755   1.735   2.530
 2873TIP3    H2 8542   4.730   1.838   2.641
 2874TIP3   OH2 8543   3.370   1.898   3.297
 2874TIP3    H1 8544   3.366   1.864   3.205
 2874TIP3    H2 8545   3.468   1.900   3.311
 2875TIP3   OH2 8546   5.037   2.253   3.405
 2875TIP3    H1 8547   5.108   2.185   3.394
 2875TIP3    H2 8548   5.065   2.322   3.342
 2876TIP3   OH2 8549   5.219   2.051   3.410
 2876TIP3    H1 8550   5.145   2.004   3.453
 2876TIP3    H2 8551   5.292   1.987   3.428
 2877TIP3   OH2 8552   4.684   1.286   1.982
 2877TIP3    H1 8553   4.760   1.253   2.035
 2877TIP3    H2 8554   4.612   1.224   2.004
 2878TIP3   OH2 8555   4.747   1.554   2.432
 2878TIP3    H1 8556   4.782   1.465   2.452
 2878TIP3    H2 8557   4.806   1.581   2.359
 2879TIP3   OH2 8558   4.899   1.716   2.934
 2879TIP3    H1 8559   4.986   1.737   2.893
 2879TIP3    H2 8560   4.916   1.752   3.023
 2880TIP3   OH2 8561   4.970   1.861   3.162
 2880TIP3    H1 8562   4.898   1.897   3.217
 2880TIP3    H2 8563   5.006   1.942   3.121
 2881TIP3   OH2 8564   3.589   1.583   3.964
 2881TIP3    H1 8565   3.686   1.581   3.972
 2881TIP3    H2 8566   3.566   1.498   4.005
 2882TIP3   OH2 8567   5.461   1.478   3.724
 2882TIP3    H1 8568   5.488   1.393   3.684
 2882TIP3    H2 8569   5.401   1.513   3.656
 2883TIP3   OH2 8570   4.838   1.299   2.492
 2883TIP3    H1 8571   4.901   1.278   2.564
 2883TIP3    H2 8572   4.787   1.216   2.485
 2884TIP3   OH2 8573   3.548   1.278   3.322
 2884TIP3    H1 8574   3.610   1.202   3.317
 2884TIP3    H2 8575   3.608   1.352   3.303
 2885TIP3   OH2 8576   3.356   1.550   3.374
 2885TIP3    H1 8577   3.403   1.545   3.289
 2885TIP3    H2 8578   3.382   1.637   3.406
 2886TIP3   OH2 8579   5.293   1.585   3.532
 2886TIP3    H1 8580   5.206   1.620   3.558
 2886TIP3    H2 8581   5.266   1.506   3.482
 2887TIP3   OH2 8582   4.926   1.225   2.113
 2887TIP3    H1 8583   4.969   1.156   2.057
 2887TIP3    H2 8584   4.993   1.296   2.113
 2888TIP3   OH2 8585   3.306   1.022   2.854
 2888TIP3    H1 8586   3.249   1.049   2.929
 2888TIP3    H2 8587   3.322   1.108   2.810
 2889TIP3   OH2 8588   4.493   2.759   2.376
 2889TIP3    H1 8589   4.551   2.755   2.297
 2889TIP3    H2 8590   4.538   2.826   2.431
 2890TIP3   OH2 8591   3.557   1.129   3.686
 2890TIP3    H1 8592   3.507   1.134   3.769
 2890TIP3    H2 8593   3.495   1.172   3.624
 2891TIP3   OH2 8594   3.598   2.561   3.761
 2891TIP3    H1 8595   3.503   2.542   3.748
 2891TIP3    H2 8596   3.607   2.552   3.856
 2892TIP3   OH2 8597   3.779   2.599   3.310
 2892TIP3    H1 8598   3.730   2.676   3.272
 2892TIP3    H2 8599   3.864   2.615   3.265
 2893TIP3   OH2 8600   4.215   2.839   3.446
 2893TIP3    H1 8601   4.257   2.839   3.535
 2893TIP3    H2 8602   4.281   2.893   3.396
 2894TIP3   OH2 8603   4.396   2.995   3.312
 2894TIP3    H1 8604   4.468   2.947   3.270
 2894TIP3    H2 8605   4.447   3.054   3.373
 2895TIP3   OH2 8606   5.204   1.360   3.394
 2895TIP3    H1 8607   5.113   1.346   3.423
 2895TIP3    H2 8608   5.238   1.268   3.397
 2896TIP3   OH2 8609   3.451   2.853   3.339
 2896TIP3    H1 8610   3.360   2.882   3.318
 2896TIP3    H2 8611   3.468   2.907   3.418
 2897TIP3   OH2 8612   3.686   2.832   3.195
 2897TIP3    H1 8613   3.599   2.844   3.239
 2897TIP3    H2 8614   3.667   2.866   3.106
 2898TIP3   OH2 8615   4.113   2.859   2.992
 2898TIP3    H1 8616   4.042   2.878   2.928
 2898TIP3    H2 8617   4.125   2.946   3.035
 2899TIP3   OH2 8618   4.383   2.796   3.043
 2899TIP3    H1 8619   4.289   2.817   3.025
 2899TIP3    H2 8620   4.428   2.872   3.001
 2900TIP3   OH2 8621   4.584   2.985   2.953
 2900TIP3    H1 8622   4.576   3.071   2.906
 2900TIP3    H2 8623   4.613   2.926   2.880
 2901TIP3   OH2 8624   3.364   2.647   3.076
 2901TIP3    H1 8625   3.388   2.618   3.167
 2901TIP3    H2 8626   3.437   2.604   3.027
 2902TIP3   OH2 8627   3.560   2.520   2.938
 2902TIP3    H1 8628   3.574   2.436   2.989
 2902TIP3    H2 8629   3.652   2.556   2.937
 2903TIP3   OH2 8630   3.826   2.610   2.946
 2903TIP3    H1 8631   3.856   2.517   2.940
 2903TIP3    H2 8632   3.875   2.636   3.027
 2904TIP3   OH2 8633   4.411   1.258   3.016
 2904TIP3    H1 8634   4.350   1.210   3.075
 2904TIP3    H2 8635   4.471   1.186   2.990
 2905TIP3   OH2 8636   4.923   1.144   2.929
 2905TIP3    H1 8637   4.968   1.195   2.857
 2905TIP3    H2 8638   4.838   1.188   2.934
 2906TIP3   OH2 8639   5.014   1.251   2.697
 2906TIP3    H1 8640   5.087   1.194   2.662
 2906TIP3    H2 8641   5.055   1.340   2.680
 2907TIP3   OH2 8642   3.653   0.977   3.040
 2907TIP3    H1 8643   3.559   0.947   3.042
 2907TIP3    H2 8644   3.697   0.889   3.037
 2908TIP3   OH2 8645   3.417   0.846   2.679
 2908TIP3    H1 8646   3.454   0.912   2.619
 2908TIP3    H2 8647   3.384   0.902   2.753
 2909TIP3   OH2 8648   4.099   1.017   2.922
 2909TIP3    H1 8649   4.146   1.100   2.907
 2909TIP3    H2 8650   4.076   1.026   3.016
 2910TIP3   OH2 8651   4.635   1.133   2.855
 2910TIP3    H1 8652   4.692   1.071   2.804
 2910TIP3    H2 8653   4.618   1.076   2.934
 2911TIP3   OH2 8654   4.664   1.080   2.474
 2911TIP3    H1 8655   4.582   1.071   2.422
 2911TIP3    H2 8656   4.660   0.997   2.526
 2912TIP3   OH2 8657   3.150   2.424   2.468
 2912TIP3    H1 8658   3.063   2.394   2.435
 2912TIP3    H2 8659   3.144   2.518   2.445
 2913TIP3   OH2 8660   3.554   1.016   2.445
 2913TIP3    H1 8661   3.602   0.948   2.394
 2913TIP3    H2 8662   3.628   1.066   2.486
 2914TIP3   OH2 8663   4.059   1.179   2.552
 2914TIP3    H1 8664   4.071   1.124   2.631
 2914TIP3    H2 8665   4.095   1.266   2.582
 2915TIP3   OH2 8666   3.924   2.602   2.054
 2915TIP3    H1 8667   4.011   2.626   2.017
 2915TIP3    H2 8668   3.902   2.527   1.994
 2916TIP3   OH2 8669   4.645   2.729   2.146
 2916TIP3    H1 8670   4.635   2.631   2.136
 2916TIP3    H2 8671   4.597   2.761   2.067
 2917TIP3   OH2 8672   3.854   1.255   3.933
 2917TIP3    H1 8673   3.819   1.185   3.991
 2917TIP3    H2 8674   3.948   1.256   3.961
 2918TIP3   OH2 8675   4.104   1.255   4.052
 2918TIP3    H1 8676   4.191   1.235   4.013
 2918TIP3    H2 8677   4.096   1.183   4.118
 2919TIP3   OH2 8678   3.223   2.439   2.106
 2919TIP3    H1 8679   3.227   2.464   2.200
 2919TIP3    H2 8680   3.312   2.398   2.092
 2920TIP3   OH2 8681   4.867   2.869   3.332
 2920TIP3    H1 8682   4.788   2.839   3.282
 2920TIP3    H2 8683   4.848   2.965   3.338
 2921TIP3   OH2 8684   6.136   2.244   2.096
 2921TIP3    H1 8685   6.103   2.334   2.075
 2921TIP3    H2 8686   6.062   2.190   2.061
 2922TIP3   OH2 8687   6.132   2.247   2.488
 2922TIP3    H1 8688   6.170   2.221   2.574
 2922TIP3    H2 8689   6.095   2.163   2.456
 2923TIP3   OH2 8690   5.429   2.134   2.850
 2923TIP3    H1 8691   5.459   2.065   2.912
 2923TIP3    H2 8692   5.511   2.184   2.838
 2924TIP3   OH2 8693   6.380   2.549   2.165
 2924TIP3    H1 8694   6.365   2.479   2.229
 2924TIP3    H2 8695   6.412   2.622   2.221
 2925TIP3   OH2 8696   5.408   2.549   2.573
 2925TIP3    H1 8697   5.398   2.451   2.570
 2925TIP3    H2 8698   5.504   2.556   2.560
 2926TIP3   OH2 8699   5.111   1.744   2.350
 2926TIP3    H1 8700   5.067   1.829   2.369
 2926TIP3    H2 8701   5.038   1.697   2.305
 2927TIP3   OH2 8702   5.169   2.036   2.531
 2927TIP3    H1 8703   5.219   1.958   2.564
 2927TIP3    H2 8704   5.233   2.077   2.472
 2928TIP3   OH2 8705   6.033   3.007   2.183
 2928TIP3    H1 8706   6.071   2.936   2.127
 2928TIP3    H2 8707   6.027   2.962   2.268
 2929TIP3   OH2 8708   5.931   2.471   2.529
 2929TIP3    H1 8709   5.973   2.393   2.489
 2929TIP3    H2 8710   6.013   2.519   2.554
 2930TIP3   OH2 8711   6.949   1.788   2.527
 2930TIP3    H1 8712   6.979   1.872   2.566
 2930TIP3    H2 8713   6.974   1.801   2.433
 2931TIP3   OH2 8714   6.344   1.968   2.557
 2931TIP3    H1 8715   6.389   1.884   2.578
 2931TIP3    H2 8716   6.312   1.950   2.467
 2932TIP3   OH2 8717   5.686   1.629   2.524
 2932TIP3    H1 8718   5.669   1.702   2.461
 2932TIP3    H2 8719   5.638   1.556   2.480
 2933TIP3   OH2 8720   6.381   1.724   2.144
 2933TIP3    H1 8721   6.453   1.709   2.210
 2933TIP3    H2 8722   6.433   1.756   2.069
 2934TIP3   OH2 8723   5.318   1.831   2.633
 2934TIP3    H1 8724   5.401   1.813   2.681
 2934TIP3    H2 8725   5.333   1.776   2.552
 2935TIP3   OH2 8726   5.756   2.028   2.433
 2935TIP3    H1 8727   5.851   2.006   2.442
 2935TIP3    H2 8728   5.719   1.944   2.398
 2936TIP3   OH2 8729   7.023   1.998   2.697
 2936TIP3    H1 8730   6.938   2.043   2.678
 2936TIP3    H2 8731   7.041   2.032   2.786
 2937TIP3   OH2 8732   5.680   1.613   2.960
 2937TIP3    H1 8733   5.621   1.650   2.892
 2937TIP3    H2 8734   5.627   1.629   3.041
 2938TIP3   OH2 8735   6.016   2.461   1.969
 2938TIP3    H1 8736   5.984   2.450   1.879
 2938TIP3    H2 8737   5.973   2.545   1.996
 2939TIP3   OH2 8738   5.787   2.389   2.749
 2939TIP3    H1 8739   5.729   2.459   2.786
 2939TIP3    H2 8740   5.832   2.436   2.676
 2940TIP3   OH2 8741   6.583   1.728   2.325
 2940TIP3    H1 8742   6.571   1.684   2.410
 2940TIP3    H2 8743   6.637   1.806   2.351
 2941TIP3   OH2 8744   5.552   1.728   2.743
 2941TIP3    H1 8745   5.614   1.800   2.767
 2941TIP3    H2 8746   5.602   1.687   2.668
 2942TIP3   OH2 8747   5.617   2.587   2.853
 2942TIP3    H1 8748   5.591   2.672   2.814
 2942TIP3    H2 8749   5.538   2.568   2.907
 2943TIP3   OH2 8750   5.005   2.276   2.087
 2943TIP3    H1 8751   4.967   2.306   2.003
 2943TIP3    H2 8752   5.038   2.360   2.125
 2944TIP3   OH2 8753   6.445   2.792   2.328
 2944TIP3    H1 8754   6.355   2.783   2.367
 2944TIP3    H2 8755   6.437   2.878   2.283
 2945TIP3   OH2 8756   6.742   1.686   2.693
 2945TIP3    H1 8757   6.655   1.713   2.659
 2945TIP3    H2 8758   6.803   1.719   2.623
 2946TIP3   OH2 8759   6.030   1.327   2.675
 2946TIP3    H1 8760   6.015   1.232   2.695
 2946TIP3    H2 8761   5.954   1.367   2.722
 2947TIP3   OH2 8762   6.142   2.835   1.995
 2947TIP3    H1 8763   6.192   2.751   1.979
 2947TIP3    H2 8764   6.206   2.899   1.957
 2948TIP3   OH2 8765   6.288   2.619   1.915
 2948TIP3    H1 8766   6.266   2.537   1.870
 2948TIP3    H2 8767   6.327   2.586   1.999
 2949TIP3   OH2 8768   6.672   2.699   2.672
 2949TIP3    H1 8769   6.660   2.622   2.612
 2949TIP3    H2 8770   6.655   2.774   2.611
 2950TIP3   OH2 8771   5.966   2.096   1.932
 2950TIP3    H1 8772   5.888   2.149   1.908
 2950TIP3    H2 8773   6.013   2.089   1.847
 2951TIP3   OH2 8774   5.921   1.885   1.643
 2951TIP3    H1 8775   5.990   1.936   1.690
 2951TIP3    H2 8776   5.977   1.821   1.595
 2952TIP3   OH2 8777   6.868   2.342   2.521
 2952TIP3    H1 8778   6.783   2.392   2.523
 2952TIP3    H2 8779   6.898   2.364   2.430
 2953TIP3   OH2 8780   6.314   2.180   1.898
 2953TIP3    H1 8781   6.260   2.202   1.977
 2953TIP3    H2 8782   6.398   2.153   1.940
 2954TIP3   OH2 8783   6.547   2.214   2.820
 2954TIP3    H1 8784   6.544   2.297   2.872
 2954TIP3    H2 8785   6.461   2.219   2.773
 2955TIP3   OH2 8786   5.546   2.174   2.321
 2955TIP3    H1 8787   5.505   2.116   2.254
 2955TIP3    H2 8788   5.622   2.120   2.352
 2956TIP3   OH2 8789   5.673   2.585   2.466
 2956TIP3    H1 8790   5.656   2.553   2.376
 2956TIP3    H2 8791   5.762   2.549   2.484
 2957TIP3   OH2 8792   5.673   2.148   2.673
 2957TIP3    H1 8793   5.710   2.119   2.587
 2957TIP3    H2 8794   5.722   2.232   2.690
 2958TIP3   OH2 8795   6.204   2.785   2.450
 2958TIP3    H1 8796   6.194   2.864   2.506
 2958TIP3    H2 8797   6.190   2.712   2.513
 2959TIP3   OH2 8798   5.821   2.706   2.997
 2959TIP3    H1 8799   5.760   2.766   3.045
 2959TIP3    H2 8800   5.757   2.651   2.947
 2960TIP3   OH2 8801   6.146   2.041   1.727
 2960TIP3    H1 8802   6.209   2.098   1.777
 2960TIP3    H2 8803   6.174   2.060   1.634
 2961TIP3   OH2 8804   5.576   2.259   3.103
 2961TIP3    H1 8805   5.580   2.347   3.144
 2961TIP3    H2 8806   5.482   2.237   3.116
 2962TIP3   OH2 8807   5.897   2.714   2.003
 2962TIP3    H1 8808   5.982   2.761   2.008
 2962TIP3    H2 8809   5.840   2.778   1.959
 2963TIP3   OH2 8810   5.606   2.874   3.079
 2963TIP3    H1 8811   5.578   2.862   2.986
 2963TIP3    H2 8812   5.527   2.844   3.129
 2964TIP3   OH2 8813   6.669   1.274   1.777
 2964TIP3    H1 8814   6.587   1.296   1.825
 2964TIP3    H2 8815   6.686   1.357   1.728
 2965TIP3   OH2 8816   5.411   2.019   2.126
 2965TIP3    H1 8817   5.341   2.060   2.070
 2965TIP3    H2 8818   5.381   1.927   2.131
 2966TIP3   OH2 8819   6.470   2.641   1.328
 2966TIP3    H1 8820   6.480   2.738   1.311
 2966TIP3    H2 8821   6.563   2.611   1.314
 2967TIP3   OH2 8822   5.194   2.404   3.030
 2967TIP3    H1 8823   5.126   2.380   2.964
 2967TIP3    H2 8824   5.232   2.316   3.054
 2968TIP3   OH2 8825   5.042   2.594   2.662
 2968TIP3    H1 8826   5.138   2.593   2.653
 2968TIP3    H2 8827   5.025   2.675   2.712
 2969TIP3   OH2 8828   6.910   3.050   2.721
 2969TIP3    H1 8829   6.911   2.953   2.736
 2969TIP3    H2 8830   6.827   3.074   2.767
 2970TIP3   OH2 8831   6.015   2.834   2.852
 2970TIP3    H1 8832   6.012   2.926   2.886
 2970TIP3    H2 8833   5.946   2.791   2.907
 2971TIP3   OH2 8834   5.781   2.957   1.808
 2971TIP3    H1 8835   5.734   2.941   1.724
 2971TIP3    H2 8836   5.747   3.044   1.835
 2972TIP3   OH2 8837   5.217   2.807   2.194
 2972TIP3    H1 8838   5.265   2.800   2.279
 2972TIP3    H2 8839   5.164   2.726   2.195
 2973TIP3   OH2 8840   5.978   2.862   1.443
 2973TIP3    H1 8841   6.037   2.791   1.408
 2973TIP3    H2 8842   6.014   2.873   1.534
 2974TIP3   OH2 8843   6.032   2.912   1.712
 2974TIP3    H1 8844   5.944   2.920   1.756
 2974TIP3    H2 8845   6.085   2.874   1.784
 2975TIP3   OH2 8846   6.799   2.175   2.996
 2975TIP3    H1 8847   6.716   2.184   2.947
 2975TIP3    H2 8848   6.817   2.079   2.987
 2976TIP3   OH2 8849   5.396   2.589   3.017
 2976TIP3    H1 8850   5.446   2.569   3.099
 2976TIP3    H2 8851   5.322   2.525   3.022
 2977TIP3   OH2 8852   5.795   1.406   2.808
 2977TIP3    H1 8853   5.706   1.378   2.777
 2977TIP3    H2 8854   5.769   1.487   2.857
 2978TIP3   OH2 8855   6.333   1.521   3.000
 2978TIP3    H1 8856   6.402   1.494   3.063
 2978TIP3    H2 8857   6.250   1.502   3.049
 2979TIP3   OH2 8858   6.565   1.951   2.917
 2979TIP3    H1 8859   6.515   1.949   3.001
 2979TIP3    H2 8860   6.544   2.039   2.881
 2980TIP3   OH2 8861   6.228   2.083   1.474
 2980TIP3    H1 8862   6.193   2.058   1.387
 2980TIP3    H2 8863   6.316   2.118   1.449
 2981TIP3   OH2 8864   5.937   1.452   1.770
 2981TIP3    H1 8865   5.903   1.448   1.861
 2981TIP3    H2 8866   5.903   1.368   1.735
 2982TIP3   OH2 8867   5.726   1.926   2.822
 2982TIP3    H1 8868   5.678   1.946   2.905
 2982TIP3    H2 8869   5.709   2.007   2.770
 2983TIP3   OH2 8870   5.612   1.811   2.336
 2983TIP3    H1 8871   5.520   1.784   2.355
 2983TIP3    H2 8872   5.624   1.770   2.248
 2984TIP3   OH2 8873   6.101   1.894   2.069
 2984TIP3    H1 8874   6.052   1.965   2.022
 2984TIP3    H2 8875   6.158   1.859   1.997
 2985TIP3   OH2 8876   6.277   2.169   3.148
 2985TIP3    H1 8877   6.255   2.097   3.211
 2985TIP3    H2 8878   6.371   2.184   3.171
 2986TIP3   OH2 8879   6.257   1.920   2.301
 2986TIP3    H1 8880   6.194   1.945   2.230
 2986TIP3    H2 8881   6.296   1.841   2.257
 2987TIP3   OH2 8882   5.546   1.950   3.032
 2987TIP3    H1 8883   5.583   2.011   3.098
 2987TIP3    H2 8884   5.536   1.868   3.083
 2988TIP3   OH2 8885   5.602   1.432   1.743
 2988TIP3    H1 8886   5.590   1.430   1.840
 2988TIP3    H2 8887   5.521   1.478   1.715
 2989TIP3   OH2 8888   5.142   1.471   2.614
 2989TIP3    H1 8889   5.214   1.507   2.670
 2989TIP3    H2 8890   5.188   1.448   2.532
 2990TIP3   OH2 8891   5.100   1.450   2.133
 2990TIP3    H1 8892   5.149   1.484   2.054
 2990TIP3    H2 8893   5.043   1.527   2.149
 2991TIP3   OH2 8894   6.267   2.166   2.722
 2991TIP3    H1 8895   6.301   2.095   2.663
 2991TIP3    H2 8896   6.238   2.112   2.798
 2992TIP3   OH2 8897   5.946   1.631   2.397
 2992TIP3    H1 8898   5.867   1.630   2.455
 2992TIP3    H2 8899   6.019   1.622   2.462
 2993TIP3   OH2 8900   5.374   1.688   2.405
 2993TIP3    H1 8901   5.280   1.693   2.374
 2993TIP3    H2 8902   5.401   1.598   2.381
 2994TIP3   OH2 8903   5.635   1.683   2.095
 2994TIP3    H1 8904   5.731   1.695   2.077
 2994TIP3    H2 8905   5.592   1.705   2.009
 2995TIP3   OH2 8906   6.433   1.708   2.602
 2995TIP3    H1 8907   6.400   1.721   2.694
 2995TIP3    H2 8908   6.366   1.648   2.567
 2996TIP3   OH2 8909   5.486   1.721   1.867
 2996TIP3    H1 8910   5.421   1.673   1.814
 2996TIP3    H2 8911   5.542   1.759   1.796
 2997TIP3   OH2 8912   6.606   3.397   2.821
 2997TIP3    H1 8913   6.603   3.422   2.727
 2997TIP3    H2 8914   6.685   3.445   2.852
 2998TIP3   OH2 8915   5.558   2.512   3.238
 2998TIP3    H1 8916   5.639   2.535   3.288
 2998TIP3    H2 8917   5.494   2.505   3.312
 2999TIP3   OH2 8918   6.021   1.962   2.494
 2999TIP3    H1 8919   6.094   1.924   2.443
 2999TIP3    H2 8920   6.028   1.916   2.579
 3000TIP3   OH2 8921   5.537   1.449   2.378
 3000TIP3    H1 8922   5.505   1.370   2.426
 3000TIP3    H2 8923   5.585   1.408   2.304
 3001TIP3   OH2 8924   5.997   1.860   2.785
 3001TIP3    H1 8925   5.908   1.897   2.799
 3001TIP3    H2 8926   6.055   1.922   2.834
 3002TIP3   OH2 8927   5.731   2.248   1.876
 3002TIP3    H1 8928   5.659   2.182   1.865
 3002TIP3    H2 8929   5.712   2.281   1.967
 3003TIP3   OH2 8930   6.632   2.484   2.505
 3003TIP3    H1 8931   6.657   2.535   2.424
 3003TIP3    H2 8932   6.549   2.441   2.477
 3004TIP3   OH2 8933   6.195   1.554   1.756
 3004TIP3    H1 8934   6.101   1.528   1.746
 3004TIP3    H2 8935   6.193   1.650   1.766
 3005TIP3   OH2 8936   6.129   2.563   2.879
 3005TIP3    H1 8937   6.171   2.549   2.964
 3005TIP3    H2 8938   6.097   2.655   2.885
 3006TIP3   OH2 8939   6.258   1.813   1.854
 3006TIP3    H1 8940   6.355   1.811   1.862
 3006TIP3    H2 8941   6.243   1.890   1.795
 3007TIP3   OH2 8942   5.427   2.270   2.552
 3007TIP3    H1 8943   5.465   2.243   2.467
 3007TIP3    H2 8944   5.478   2.216   2.614
 3008TIP3   OH2 8945   5.880   2.397   1.702
 3008TIP3    H1 8946   5.831   2.482   1.706
 3008TIP3    H2 8947   5.827   2.341   1.763
 3009TIP3   OH2 8948   5.311   2.192   3.170
 3009TIP3    H1 8949   5.330   2.178   3.264
 3009TIP3    H2 8950   5.244   2.123   3.154
 3010TIP3   OH2 8951   6.039   2.307   3.187
 3010TIP3    H1 8952   5.978   2.247   3.142
 3010TIP3    H2 8953   6.126   2.271   3.160
 3011TIP3   OH2 8954   6.291   2.826   2.774
 3011TIP3    H1 8955   6.195   2.827   2.787
 3011TIP3    H2 8956   6.320   2.878   2.852
 3012TIP3   OH2 8957   6.701   1.904   1.684
 3012TIP3    H1 8958   6.638   1.863   1.620
 3012TIP3    H2 8959   6.701   1.993   1.643
 3013TIP3   OH2 8960   6.923   2.761   2.760
 3013TIP3    H1 8961   6.825   2.752   2.752
 3013TIP3    H2 8962   6.949   2.729   2.670
 3014TIP3   OH2 8963   6.404   2.718   1.591
 3014TIP3    H1 8964   6.379   2.646   1.651
 3014TIP3    H2 8965   6.419   2.671   1.507
 3015TIP3   OH2 8966   6.399   2.347   2.420
 3015TIP3    H1 8967   6.306   2.323   2.434
 3015TIP3    H2 8968   6.433   2.266   2.377
 3016TIP3   OH2 8969   5.532   2.578   2.185
 3016TIP3    H1 8970   5.530   2.657   2.127
 3016TIP3    H2 8971   5.438   2.557   2.190
 3017TIP3   OH2 8972   5.097   1.877   1.890
 3017TIP3    H1 8973   5.142   1.962   1.912
 3017TIP3    H2 8974   5.021   1.880   1.951
 3018TIP3   OH2 8975   5.656   2.337   2.119
 3018TIP3    H1 8976   5.627   2.427   2.142
 3018TIP3    H2 8977   5.625   2.286   2.197
 3019TIP3   OH2 8978   5.801   2.918   2.648
 3019TIP3    H1 8979   5.844   2.989   2.597
 3019TIP3    H2 8980   5.877   2.879   2.694
 3020TIP3   OH2 8981   5.446   2.814   2.031
 3020TIP3    H1 8982   5.361   2.824   2.079
 3020TIP3    H2 8983   5.480   2.906   2.034
 3021TIP3   OH2 8984   6.182   2.554   2.610
 3021TIP3    H1 8985   6.171   2.550   2.707
 3021TIP3    H2 8986   6.261   2.499   2.597
 3022TIP3   OH2 8987   6.165   2.450   1.494
 3022TIP3    H1 8988   6.220   2.425   1.572
 3022TIP3    H2 8989   6.079   2.416   1.522
 3023TIP3   OH2 8990   6.433   3.082   2.658
 3023TIP3    H1 8991   6.353   3.027   2.653
 3023TIP3    H2 8992   6.417   3.146   2.586
 3024TIP3   OH2 8993   6.500   2.918   1.309
 3024TIP3    H1 8994   6.539   2.993   1.261
 3024TIP3    H2 8995   6.419   2.961   1.343
 3025TIP3   OH2 8996   5.519   1.695   3.174
 3025TIP3    H1 8997   5.422   1.695   3.187
 3025TIP3    H2 8998   5.549   1.641   3.248
 3026TIP3   OH2 8999   6.325   2.384   1.710
 3026TIP3    H1 9000   6.313   2.314   1.777
 3026TIP3    H2 9001   6.422   2.377   1.695
 3027TIP3   OH2 9002   5.248   2.781   2.810
 3027TIP3    H1 9003   5.306   2.703   2.805
 3027TIP3    H2 9004   5.250   2.798   2.905
 3028TIP3   OH2 9005   5.522   2.425   1.493
 3028TIP3    H1 9006   5.539   2.333   1.467
 3028TIP3    H2 9007   5.502   2.415   1.588
 3029TIP3   OH2 9008   5.467   2.430   1.765
 3029TIP3    H1 9009   5.546   2.402   1.814
 3029TIP3    H2 9010   5.472   2.528   1.774
 3030TIP3   OH2 9011   5.202   2.121   1.969
 3030TIP3    H1 9012   5.136   2.168   2.025
 3030TIP3    H2 9013   5.219   2.189   1.901
 3031TIP3   OH2 9014   6.358   1.760   2.862
 3031TIP3    H1 9015   6.439   1.799   2.897
 3031TIP3    H2 9016   6.347   1.679   2.916
 3032TIP3   OH2 9017   6.233   1.508   2.027
 3032TIP3    H1 9018   6.222   1.524   1.931
 3032TIP3    H2 9019   6.274   1.592   2.057
 3033TIP3   OH2 9020   5.736   2.625   1.711
 3033TIP3    H1 9021   5.649   2.651   1.748
 3033TIP3    H2 9022   5.754   2.702   1.654
 3034TIP3   OH2 9023   5.917   1.694   2.128
 3034TIP3    H1 9024   5.983   1.764   2.109
 3034TIP3    H2 9025   5.929   1.684   2.225
 3035TIP3   OH2 9026   6.196   2.006   2.931
 3035TIP3    H1 9027   6.223   2.056   3.010
 3035TIP3    H2 9028   6.249   1.924   2.940
 3036TIP3   OH2 9029   6.066   1.409   2.224
 3036TIP3    H1 9030   6.062   1.487   2.282
 3036TIP3    H2 9031   6.128   1.443   2.155
 3037TIP3   OH2 9032   5.482   2.703   1.782
 3037TIP3    H1 9033   5.453   2.774   1.720
 3037TIP3    H2 9034   5.467   2.745   1.869
 3038TIP3   OH2 9035   5.580   1.417   2.020
 3038TIP3    H1 9036   5.580   1.508   2.056
 3038TIP3    H2 9037   5.676   1.398   2.025
 3039TIP3   OH2 9038   6.832   1.909   2.916
 3039TIP3    H1 9039   6.734   1.907   2.923
 3039TIP3    H2 9040   6.844   1.864   2.831
 3040TIP3   OH2 9041   6.485   2.102   2.303
 3040TIP3    H1 9042   6.409   2.042   2.313
 3040TIP3    H2 9043   6.556   2.055   2.350
 3041TIP3   OH2 9044   5.202   2.327   1.770
 3041TIP3    H1 9045   5.275   2.390   1.781
 3041TIP3    H2 9046   5.244   2.267   1.704
 3042TIP3   OH2 9047   5.137   1.606   1.914
 3042TIP3    H1 9048   5.146   1.704   1.908
 3042TIP3    H2 9049   5.071   1.588   1.847
 3043TIP3   OH2 9050   6.455   3.063   2.249
 3043TIP3    H1 9051   6.413   3.110   2.173
 3043TIP3    H2 9052   6.550   3.081   2.229
 3044TIP3   OH2 9053   5.528   1.329   2.777
 3044TIP3    H1 9054   5.500   1.293   2.690
 3044TIP3    H2 9055   5.519   1.250   2.835
 3045TIP3   OH2 9056   5.063   2.542   2.155
 3045TIP3    H1 9057   5.002   2.574   2.223
 3045TIP3    H2 9058   5.030   2.587   2.074
 3046TIP3   OH2 9059   5.704   3.048   3.274
 3046TIP3    H1 9060   5.799   3.033   3.284
 3046TIP3    H2 9061   5.684   2.984   3.202
 3047TIP3   OH2 9062   5.687   2.626   1.400
 3047TIP3    H1 9063   5.633   2.554   1.439
 3047TIP3    H2 9064   5.764   2.576   1.367
 3048TIP3   OH2 9065   6.345   2.960   3.009
 3048TIP3    H1 9066   6.339   2.889   3.078
 3048TIP3    H2 9067   6.423   3.011   3.039
 3049TIP3   OH2 9068   6.123   2.664   1.317
 3049TIP3    H1 9069   6.161   2.598   1.378
 3049TIP3    H2 9070   6.183   2.658   1.240
 3050TIP3   OH2 9071   5.357   2.497   3.429
 3050TIP3    H1 9072   5.373   2.401   3.440
 3050TIP3    H2 9073   5.270   2.498   3.385
 3051TIP3   OH2 9074   5.335   2.139   1.628
 3051TIP3    H1 9075   5.393   2.109   1.701
 3051TIP3    H2 9076   5.402   2.144   1.556
 3052TIP3   OH2 9077   5.963   2.582   3.205
 3052TIP3    H1 9078   5.927   2.602   3.117
 3052TIP3    H2 9079   5.997   2.491   3.195
 3053TIP3   OH2 9080   5.848   2.343   1.433
 3053TIP3    H1 9081   5.853   2.355   1.530
 3053TIP3    H2 9082   5.852   2.245   1.427
 3054TIP3   OH2 9083   6.455   2.597   2.813
 3054TIP3    H1 9084   6.533   2.636   2.769
 3054TIP3    H2 9085   6.388   2.666   2.794
 3055TIP3   OH2 9086   5.479   2.234   3.413
 3055TIP3    H1 9087   5.555   2.181   3.387
 3055TIP3    H2 9088   5.507   2.265   3.502
 3056TIP3   OH2 9089   5.535   2.052   1.840
 3056TIP3    H1 9090   5.515   2.009   1.925
 3056TIP3    H2 9091   5.578   1.979   1.790
 3057TIP3   OH2 9092   5.808   2.110   3.073
 3057TIP3    H1 9093   5.733   2.173   3.075
 3057TIP3    H2 9094   5.862   2.146   2.998
 3058TIP3   OH2 9095   5.646   1.849   1.686
 3058TIP3    H1 9096   5.623   1.852   1.591
 3058TIP3    H2 9097   5.744   1.849   1.681
 3059TIP3   OH2 9098   6.329   2.515   3.206
 3059TIP3    H1 9099   6.408   2.484   3.161
 3059TIP3    H2 9100   6.323   2.453   3.281
 3060TIP3   OH2 9101   6.461   2.173   1.355
 3060TIP3    H1 9102   6.444   2.128   1.269
 3060TIP3    H2 9103   6.426   2.262   1.332
 3061TIP3   OH2 9104   5.936   1.904   3.199
 3061TIP3    H1 9105   5.937   1.825   3.141
 3061TIP3    H2 9106   5.891   1.971   3.142
 3062TIP3   OH2 9107   5.939   1.691   3.009
 3062TIP3    H1 9108   5.968   1.732   2.925
 3062TIP3    H2 9109   5.846   1.668   2.989
 3063TIP3   OH2 9110   5.960   2.222   2.882
 3063TIP3    H1 9111   6.047   2.235   2.843
 3063TIP3    H2 9112   5.906   2.288   2.834
 3064TIP3   OH2 9113   6.542   2.190   3.258
 3064TIP3    H1 9114   6.590   2.107   3.276
 3064TIP3    H2 9115   6.613   2.246   3.223
 3065TIP3   OH2 9116   6.585   2.445   2.995
 3065TIP3    H1 9117   6.528   2.501   2.938
 3065TIP3    H2 9118   6.674   2.466   2.957
 3066TIP3   OH2 9119   5.813   2.008   3.433
 3066TIP3    H1 9120   5.746   1.938   3.450
 3066TIP3    H2 9121   5.847   1.982   3.345
 3067TIP3   OH2 9122   6.069   1.451   3.079
 3067TIP3    H1 9123   6.020   1.533   3.056
 3067TIP3    H2 9124   6.001   1.383   3.068
 3068TIP3   OH2 9125   6.196   1.953   3.293
 3068TIP3    H1 9126   6.182   1.938   3.388
 3068TIP3    H2 9127   6.106   1.930   3.260
 3069TIP3   OH2 9128   6.433   1.905   3.147
 3069TIP3    H1 9129   6.359   1.906   3.211
 3069TIP3    H2 9130   6.509   1.876   3.203
 3070TIP3   OH2 9131   6.663   1.847   3.295
 3070TIP3    H1 9132   6.677   1.751   3.311
 3070TIP3    H2 9133   6.659   1.884   3.385
 3071TIP3   OH2 9134   5.652   1.789   3.489
 3071TIP3    H1 9135   5.655   1.697   3.456
 3071TIP3    H2 9136   5.690   1.777   3.578
 3072TIP3   OH2 9137   6.162   1.460   3.338
 3072TIP3    H1 9138   6.229   1.389   3.330
 3072TIP3    H2 9139   6.123   1.457   3.248
 3073TIP3   OH2 9140   6.230   1.676   3.495
 3073TIP3    H1 9141   6.208   1.604   3.431
 3073TIP3    H2 9142   6.151   1.734   3.488
 3074TIP3   OH2 9143   5.454   2.905   1.593
 3074TIP3    H1 9144   5.549   2.894   1.574
 3074TIP3    H2 9145   5.428   2.958   1.516
 3075TIP3   OH2 9146   4.932   2.291   1.805
 3075TIP3    H1 9147   5.028   2.313   1.792
 3075TIP3    H2 9148   4.929   2.201   1.767
 3076TIP3   OH2 9149   4.851   2.897   2.225
 3076TIP3    H1 9150   4.783   2.838   2.186
 3076TIP3    H2 9151   4.894   2.837   2.289
 3077TIP3   OH2 9152   4.983   2.742   2.411
 3077TIP3    H1 9153   4.968   2.674   2.479
 3077TIP3    H2 9154   5.035   2.807   2.463
 3078TIP3   OH2 9155   6.711   3.149   2.212
 3078TIP3    H1 9156   6.737   3.180   2.301
 3078TIP3    H2 9157   6.777   3.190   2.155
 3079TIP3   OH2 9158   6.738   3.168   2.495
 3079TIP3    H1 9159   6.692   3.082   2.489
 3079TIP3    H2 9160   6.812   3.144   2.553
 3080TIP3   OH2 9161   6.784   2.847   3.066
 3080TIP3    H1 9162   6.713   2.857   3.133
 3080TIP3    H2 9163   6.827   2.934   3.071
 3081TIP3   OH2 9164   6.601   2.361   1.685
 3081TIP3    H1 9165   6.669   2.424   1.653
 3081TIP3    H2 9166   6.647   2.322   1.763
 3082TIP3   OH2 9167   6.729   2.228   1.889
 3082TIP3    H1 9168   6.662   2.185   1.947
 3082TIP3    H2 9169   6.795   2.262   1.953
 3083TIP3   OH2 9170   6.787   2.622   2.320
 3083TIP3    H1 9171   6.839   2.552   2.275
 3083TIP3    H2 9172   6.783   2.692   2.252
 3084TIP3   OH2 9173   6.612   2.920   2.514
 3084TIP3    H1 9174   6.540   2.961   2.565
 3084TIP3    H2 9175   6.563   2.874   2.442
 3085TIP3   OH2 9176   6.667   2.138   1.534
 3085TIP3    H1 9177   6.595   2.135   1.468
 3085TIP3    H2 9178   6.636   2.213   1.588
 3086TIP3   OH2 9179   6.531   1.827   1.489
 3086TIP3    H1 9180   6.501   1.842   1.399
 3086TIP3    H2 9181   6.510   1.731   1.500
 3087TIP3   OH2 9182   6.540   2.086   2.032
 3087TIP3    H1 9183   6.548   1.989   2.021
 3087TIP3    H2 9184   6.526   2.096   2.129
 3088TIP3   OH2 9185   5.166   2.158   2.781
 3088TIP3    H1 9186   5.164   2.123   2.690
 3088TIP3    H2 9187   5.263   2.159   2.799
 3089TIP3   OH2 9188   6.833   2.510   2.892
 3089TIP3    H1 9189   6.903   2.442   2.881
 3089TIP3    H2 9190   6.858   2.577   2.826
 3090TIP3   OH2 9191   7.014   2.309   2.898
 3090TIP3    H1 9192   6.940   2.260   2.939
 3090TIP3    H2 9193   7.087   2.247   2.916
 3091TIP3   OH2 9194   6.481   1.567   1.510
 3091TIP3    H1 9195   6.556   1.521   1.551
 3091TIP3    H2 9196   6.428   1.494   1.471
 3092TIP3   OH2 9197   6.540   1.803   1.924
 3092TIP3    H1 9198   6.581   1.714   1.939
 3092TIP3    H2 9199   6.597   1.834   1.851
 3093TIP3   OH2 9200   6.698   1.971   2.424
 3093TIP3    H1 9201   6.783   1.995   2.381
 3093TIP3    H2 9202   6.714   2.009   2.512
 3094TIP3   OH2 9203   6.772   2.118   2.653
 3094TIP3    H1 9204   6.695   2.153   2.702
 3094TIP3    H2 9205   6.805   2.200   2.609
 3095TIP3   OH2 9206   5.384   1.838   3.456
 3095TIP3    H1 9207   5.482   1.833   3.463
 3095TIP3    H2 9208   5.360   1.752   3.496
 3096TIP3   OH2 9209   7.220   1.712   3.208
 3096TIP3    H1 9210   7.282   1.648   3.167
 3096TIP3    H2 9211   7.189   1.764   3.131
 3097TIP3   OH2 9212   6.647   1.553   1.967
 3097TIP3    H1 9213   6.695   1.534   2.050
 3097TIP3    H2 9214   6.586   1.476   1.964
 3098TIP3   OH2 9215   5.345   1.538   2.789
 3098TIP3    H1 9216   5.406   1.462   2.796
 3098TIP3    H2 9217   5.408   1.611   2.778
 3099TIP3   OH2 9218   5.142   1.808   2.852
 3099TIP3    H1 9219   5.197   1.808   2.771
 3099TIP3    H2 9220   5.176   1.886   2.898
 3100TIP3   OH2 9221   7.088   1.846   3.012
 3100TIP3    H1 9222   7.003   1.890   3.033
 3100TIP3    H2 9223   7.056   1.773   2.956
 3101TIP3   OH2 9224   6.731   1.482   1.608
 3101TIP3    H1 9225   6.772   1.417   1.547
 3101TIP3    H2 9226   6.794   1.557   1.601
 3102TIP3   OH2 9227   5.135   1.309   2.358
 3102TIP3    H1 9228   5.043   1.310   2.386
 3102TIP3    H2 9229   5.133   1.369   2.280
 3103TIP3   OH2 9230   6.290   3.019   1.865
 3103TIP3    H1 9231   6.344   3.008   1.784
 3103TIP3    H2 9232   6.343   3.082   1.916
 3104TIP3   OH2 9233   5.357   1.393   3.162
 3104TIP3    H1 9234   5.306   1.388   3.246
 3104TIP3    H2 9235   5.289   1.430   3.103
 3105TIP3   OH2 9236   5.378   2.845   3.236
 3105TIP3    H1 9237   5.286   2.812   3.231
 3105TIP3    H2 9238   5.403   2.815   3.325
 3106TIP3   OH2 9239   5.574   2.859   2.797
 3106TIP3    H1 9240   5.522   2.930   2.754
 3106TIP3    H2 9241   5.660   2.873   2.753
 3107TIP3   OH2 9242   6.009   3.101   2.935
 3107TIP3    H1 9243   6.053   3.097   3.023
 3107TIP3    H2 9244   6.076   3.151   2.884
 3108TIP3   OH2 9245   6.192   3.253   2.798
 3108TIP3    H1 9246   6.262   3.202   2.755
 3108TIP3    H2 9247   6.245   3.309   2.859
 3109TIP3   OH2 9248   6.989   1.609   2.896
 3109TIP3    H1 9249   6.900   1.599   2.858
 3109TIP3    H2 9250   7.024   1.518   2.886
 3110TIP3   OH2 9251   5.463   3.088   2.679
 3110TIP3    H1 9252   5.367   3.105   2.684
 3110TIP3    H2 9253   5.479   3.118   2.587
 3111TIP3   OH2 9254   5.908   3.115   2.482
 3111TIP3    H1 9255   5.842   3.134   2.413
 3111TIP3    H2 9256   5.922   3.203   2.522
 3112TIP3   OH2 9257   6.179   3.055   2.534
 3112TIP3    H1 9258   6.085   3.074   2.512
 3112TIP3    H2 9259   6.225   3.127   2.487
 3113TIP3   OH2 9260   6.381   3.244   2.443
 3113TIP3    H1 9261   6.370   3.329   2.395
 3113TIP3    H2 9262   6.410   3.185   2.370
 3114TIP3   OH2 9263   5.164   2.899   2.568
 3114TIP3    H1 9264   5.187   2.871   2.659
 3114TIP3    H2 9265   5.236   2.856   2.517
 3115TIP3   OH2 9266   5.358   2.774   2.426
 3115TIP3    H1 9267   5.373   2.690   2.474
 3115TIP3    H2 9268   5.449   2.811   2.423
 3116TIP3   OH2 9269   5.624   2.867   2.435
 3116TIP3    H1 9270   5.651   2.775   2.420
 3116TIP3    H2 9271   5.679   2.888   2.513
 3117TIP3   OH2 9272   6.192   1.525   2.515
 3117TIP3    H1 9273   6.153   1.452   2.565
 3117TIP3    H2 9274   6.268   1.482   2.470
 3118TIP3   OH2 9275   6.713   1.410   2.422
 3118TIP3    H1 9276   6.750   1.459   2.345
 3118TIP3    H2 9277   6.618   1.428   2.412
 3119TIP3   OH2 9278   6.811   1.502   2.185
 3119TIP3    H1 9279   6.885   1.451   2.145
 3119TIP3    H2 9280   6.845   1.594   2.170
 3120TIP3   OH2 9281   5.441   1.232   2.529
 3120TIP3    H1 9282   5.349   1.199   2.533
 3120TIP3    H2 9283   5.490   1.147   2.525
 3121TIP3   OH2 9284   5.230   1.106   2.178
 3121TIP3    H1 9285   5.263   1.161   2.104
 3121TIP3    H2 9286   5.207   1.173   2.244
 3122TIP3   OH2 9287   5.890   1.266   2.414
 3122TIP3    H1 9288   5.943   1.310   2.346
 3122TIP3    H2 9289   5.926   1.305   2.495
 3123TIP3   OH2 9290   6.427   1.415   2.394
 3123TIP3    H1 9291   6.432   1.376   2.306
 3123TIP3    H2 9292   6.418   1.335   2.451
 3124TIP3   OH2 9293   6.467   1.339   1.959
 3124TIP3    H1 9294   6.378   1.378   1.961
 3124TIP3    H2 9295   6.451   1.253   2.004
 3125TIP3   OH2 9296   4.946   2.680   1.956
 3125TIP3    H1 9297   4.859   2.649   1.923
 3125TIP3    H2 9298   4.939   2.775   1.933
 3126TIP3   OH2 9299   5.347   1.263   1.950
 3126TIP3    H1 9300   5.388   1.197   1.889
 3126TIP3    H2 9301   5.425   1.315   1.978
 3127TIP3   OH2 9302   5.856   1.442   2.039
 3127TIP3    H1 9303   5.920   1.395   2.096
 3127TIP3    H2 9304   5.879   1.535   2.063
 3128TIP3   OH2 9305   5.720   2.859   1.541
 3128TIP3    H1 9306   5.808   2.882   1.504
 3128TIP3    H2 9307   5.698   2.784   1.480
 3129TIP3   OH2 9308   6.439   2.985   1.635
 3129TIP3    H1 9309   6.432   2.887   1.625
 3129TIP3    H2 9310   6.394   3.014   1.554
 3130TIP3   OH2 9311   5.650   1.517   3.417
 3130TIP3    H1 9312   5.608   1.453   3.477
 3130TIP3    H2 9313   5.742   1.514   3.449
 3131TIP3   OH2 9314   5.898   1.512   3.541
 3131TIP3    H1 9315   5.985   1.487   3.503
 3131TIP3    H2 9316   5.885   1.440   3.607
 3132TIP3   OH2 9317   5.021   2.694   1.593
 3132TIP3    H1 9318   5.027   2.717   1.687
 3132TIP3    H2 9319   5.109   2.653   1.576
 3133TIP3   OH2 9320   6.728   1.577   3.327
 3133TIP3    H1 9321   6.746   1.546   3.418
 3133TIP3    H2 9322   6.818   1.572   3.287
 3134TIP3   OH2 9323   6.662   3.126   2.819
 3134TIP3    H1 9324   6.583   3.096   2.769
 3134TIP3    H2 9325   6.643   3.222   2.827
 3135TIP3   OH2 9326   7.927   2.516   1.600
 3135TIP3    H1 9327   7.895   2.597   1.556
 3135TIP3    H2 9328   7.871   2.451   1.555
 3136TIP3   OH2 9329   7.921   2.511   1.963
 3136TIP3    H1 9330   7.927   2.464   2.048
 3136TIP3    H2 9331   7.905   2.438   1.901
 3137TIP3   OH2 9332   7.226   2.392   2.336
 3137TIP3    H1 9333   7.255   2.322   2.397
 3137TIP3    H2 9334   7.309   2.438   2.318
 3138TIP3   OH2 9335   8.199   2.793   1.667
 3138TIP3    H1 9336   8.130   2.745   1.715
 3138TIP3    H2 9337   8.203   2.878   1.715
 3139TIP3   OH2 9338   7.204   2.806   2.054
 3139TIP3    H1 9339   7.195   2.708   2.054
 3139TIP3    H2 9340   7.301   2.814   2.046
 3140TIP3   OH2 9341   6.907   2.005   1.837
 3140TIP3    H1 9342   6.858   2.087   1.855
 3140TIP3    H2 9343   6.838   1.953   1.793
 3141TIP3   OH2 9344   6.965   2.293   2.020
 3141TIP3    H1 9345   7.014   2.214   2.052
 3141TIP3    H2 9346   7.023   2.326   1.951
 3142TIP3   OH2 9347   7.825   3.273   1.680
 3142TIP3    H1 9348   7.861   3.205   1.619
 3142TIP3    H2 9349   7.809   3.220   1.759
 3143TIP3   OH2 9350   7.724   2.728   2.015
 3143TIP3    H1 9351   7.762   2.649   1.971
 3143TIP3    H2 9352   7.809   2.771   2.039
 3144TIP3   OH2 9353   7.478   1.886   2.014
 3144TIP3    H1 9354   7.465   1.958   1.949
 3144TIP3    H2 9355   7.431   1.813   1.968
 3145TIP3   OH2 9356   7.113   2.086   2.120
 3145TIP3    H1 9357   7.196   2.068   2.167
 3145TIP3    H2 9358   7.127   2.032   2.039
 3146TIP3   OH2 9359   7.547   2.287   1.921
 3146TIP3    H1 9360   7.642   2.265   1.939
 3146TIP3    H2 9361   7.515   2.201   1.885
 3147TIP3   OH2 9362   7.472   1.872   2.448
 3147TIP3    H1 9363   7.415   1.909   2.379
 3147TIP3    H2 9364   7.419   1.891   2.528
 3148TIP3   OH2 9365   7.818   2.722   1.453
 3148TIP3    H1 9366   7.777   2.701   1.368
 3148TIP3    H2 9367   7.771   2.804   1.478
 3149TIP3   OH2 9368   7.586   2.645   2.239
 3149TIP3    H1 9369   7.524   2.713   2.274
 3149TIP3    H2 9370   7.626   2.691   2.162
 3150TIP3   OH2 9371   7.347   1.985   2.231
 3150TIP3    H1 9372   7.411   2.057   2.253
 3150TIP3    H2 9373   7.395   1.944   2.155
 3151TIP3   OH2 9374   7.412   2.842   2.338
 3151TIP3    H1 9375   7.385   2.929   2.302
 3151TIP3    H2 9376   7.333   2.822   2.393
 3152TIP3   OH2 9377   6.800   2.532   1.574
 3152TIP3    H1 9378   6.762   2.559   1.488
 3152TIP3    H2 9379   6.834   2.617   1.608
 3153TIP3   OH2 9380   8.219   3.045   1.801
 3153TIP3    H1 9381   8.132   3.043   1.848
 3153TIP3    H2 9382   8.217   3.134   1.762
 3154TIP3   OH2 9383   7.812   1.616   2.155
 3154TIP3    H1 9384   7.845   1.531   2.189
 3154TIP3    H2 9385   7.731   1.631   2.209
 3155TIP3   OH2 9386   7.930   3.108   1.490
 3155TIP3    H1 9387   7.981   3.023   1.483
 3155TIP3    H2 9388   7.995   3.166   1.443
 3156TIP3   OH2 9389   8.082   2.896   1.433
 3156TIP3    H1 9390   8.073   2.842   1.353
 3156TIP3    H2 9391   8.114   2.833   1.500
 3157TIP3   OH2 9392   7.765   2.363   1.428
 3157TIP3    H1 9393   7.683   2.410   1.402
 3157TIP3    H2 9394   7.806   2.346   1.341
 3158TIP3   OH2 9395   7.715   2.144   1.181
 3158TIP3    H1 9396   7.803   2.185   1.193
 3158TIP3    H2 9397   7.730   2.086   1.104
 3159TIP3   OH2 9398   7.341   2.431   1.807
 3159TIP3    H1 9399   7.300   2.372   1.740
 3159TIP3    H2 9400   7.416   2.377   1.838
 3160TIP3   OH2 9401   7.471   2.847   1.950
 3160TIP3    H1 9402   7.449   2.813   1.862
 3160TIP3    H2 9403   7.559   2.806   1.967
 3161TIP3   OH2 9404   7.471   2.404   2.162
 3161TIP3    H1 9405   7.504   2.373   2.075
 3161TIP3    H2 9406   7.520   2.487   2.176
 3162TIP3   OH2 9407   7.992   3.043   1.943
 3162TIP3    H1 9408   7.976   3.123   1.996
 3162TIP3    H2 9409   7.974   2.969   2.005
 3163TIP3   OH2 9410   7.616   2.956   2.479
 3163TIP3    H1 9411   7.557   3.015   2.531
 3163TIP3    H2 9412   7.548   2.905   2.430
 3164TIP3   OH2 9413   7.950   2.286   1.229
 3164TIP3    H1 9414   8.032   2.311   1.274
 3164TIP3    H2 9415   7.965   2.332   1.145
 3165TIP3   OH2 9416   7.373   2.513   2.592
 3165TIP3    H1 9417   7.376   2.602   2.633
 3165TIP3    H2 9418   7.278   2.493   2.601
 3166TIP3   OH2 9419   7.694   2.970   1.492
 3166TIP3    H1 9420   7.774   3.025   1.498
 3166TIP3    H2 9421   7.633   3.026   1.443
 3167TIP3   OH2 9422   7.407   3.125   2.570
 3167TIP3    H1 9423   7.371   3.124   2.479
 3167TIP3    H2 9424   7.328   3.103   2.624
 3168TIP3   OH2 9425   7.206   2.276   1.613
 3168TIP3    H1 9426   7.137   2.316   1.557
 3168TIP3    H2 9427   7.176   2.185   1.620
 3169TIP3   OH2 9428   6.988   2.660   2.518
 3169TIP3    H1 9429   6.921   2.638   2.450
 3169TIP3    H2 9430   7.027   2.572   2.539
 3170TIP3   OH2 9431   6.843   2.852   2.147
 3170TIP3    H1 9432   6.939   2.844   2.139
 3170TIP3    H2 9433   6.834   2.929   2.205
 3171TIP3   OH2 9434   7.800   3.097   2.344
 3171TIP3    H1 9435   7.802   3.166   2.411
 3171TIP3    H2 9436   7.731   3.038   2.383
 3172TIP3   OH2 9437   7.575   3.214   1.295
 3172TIP3    H1 9438   7.528   3.194   1.212
 3172TIP3    H2 9439   7.541   3.302   1.319
 3173TIP3   OH2 9440   7.012   3.064   1.679
 3173TIP3    H1 9441   7.058   3.055   1.766
 3173TIP3    H2 9442   6.965   2.978   1.675
 3174TIP3   OH2 9443   7.762   3.160   0.945
 3174TIP3    H1 9444   7.799   3.075   0.909
 3174TIP3    H2 9445   7.800   3.158   1.035
 3175TIP3   OH2 9446   7.827   3.165   1.211
 3175TIP3    H1 9447   7.737   3.174   1.249
 3175TIP3    H2 9448   7.875   3.126   1.286
 3176TIP3   OH2 9449   7.193   2.842   2.502
 3176TIP3    H1 9450   7.242   2.825   2.585
 3176TIP3    H2 9451   7.119   2.779   2.509
 3177TIP3   OH2 9452   7.582   1.662   2.301
 3177TIP3    H1 9453   7.494   1.635   2.267
 3177TIP3    H2 9454   7.556   1.744   2.348
 3178TIP3   OH2 9455   8.107   1.742   2.561
 3178TIP3    H1 9456   8.129   1.749   2.655
 3178TIP3    H2 9457   8.009   1.728   2.566
 3179TIP3   OH2 9458   7.681   1.745   1.243
 3179TIP3    H1 9459   7.678   1.733   1.339
 3179TIP3    H2 9460   7.730   1.665   1.215
 3180TIP3   OH2 9461   7.525   2.181   2.310
 3180TIP3    H1 9462   7.474   2.201   2.391
 3180TIP3    H2 9463   7.508   2.262   2.256
 3181TIP3   OH2 9464   7.407   2.068   1.825
 3181TIP3    H1 9465   7.315   2.039   1.843
 3181TIP3    H2 9466   7.421   2.025   1.737
 3182TIP3   OH2 9467   7.909   2.150   1.526
 3182TIP3    H1 9468   7.848   2.225   1.507
 3182TIP3    H2 9469   7.936   2.128   1.436
 3183TIP3   OH2 9470   8.055   2.436   2.632
 3183TIP3    H1 9471   8.038   2.367   2.699
 3183TIP3    H2 9472   8.151   2.443   2.635
 3184TIP3   OH2 9473   7.977   2.227   1.798
 3184TIP3    H1 9474   7.959   2.201   1.706
 3184TIP3    H2 9475   8.056   2.172   1.819
 3185TIP3   OH2 9476   7.344   2.208   2.518
 3185TIP3    H1 9477   7.376   2.270   2.585
 3185TIP3    H2 9478   7.332   2.126   2.569
 3186TIP3   OH2 9479   7.357   1.662   1.221
 3186TIP3    H1 9480   7.381   1.657   1.315
 3186TIP3    H2 9481   7.296   1.738   1.222
 3187TIP3   OH2 9482   6.935   1.727   2.104
 3187TIP3    H1 9483   7.012   1.761   2.154
 3187TIP3    H2 9484   6.974   1.700   2.019
 3188TIP3   OH2 9485   6.900   1.710   1.620
 3188TIP3    H1 9486   6.944   1.747   1.540
 3188TIP3    H2 9487   6.838   1.784   1.638
 3189TIP3   OH2 9488   8.014   2.403   2.208
 3189TIP3    H1 9489   8.054   2.329   2.160
 3189TIP3    H2 9490   8.007   2.363   2.297
 3190TIP3   OH2 9491   7.730   1.913   1.882
 3190TIP3    H1 9492   7.659   1.894   1.945
 3190TIP3    H2 9493   7.807   1.867   1.922
 3191TIP3   OH2 9494   7.169   1.945   1.891
 3191TIP3    H1 9495   7.075   1.951   1.861
 3191TIP3    H2 9496   7.194   1.854   1.867
 3192TIP3   OH2 9497   7.435   1.938   1.586
 3192TIP3    H1 9498   7.529   1.955   1.565
 3192TIP3    H2 9499   7.389   1.960   1.501
 3193TIP3   OH2 9500   7.286   1.975   1.363
 3193TIP3    H1 9501   7.216   1.936   1.307
 3193TIP3    H2 9502   7.340   2.019   1.294
 3194TIP3   OH2 9503   8.359   3.713   2.323
 3194TIP3    H1 9504   8.343   3.721   2.227
 3194TIP3    H2 9505   8.435   3.653   2.324
 3195TIP3   OH2 9506   7.355   2.765   2.725
 3195TIP3    H1 9507   7.436   2.792   2.774
 3195TIP3    H2 9508   7.291   2.761   2.798
 3196TIP3   OH2 9509   7.803   2.229   2.003
 3196TIP3    H1 9510   7.865   2.219   1.928
 3196TIP3    H2 9511   7.823   2.152   2.058
 3197TIP3   OH2 9512   7.334   1.705   1.864
 3197TIP3    H1 9513   7.300   1.627   1.913
 3197TIP3    H2 9514   7.387   1.663   1.795
 3198TIP3   OH2 9515   7.797   2.109   2.287
 3198TIP3    H1 9516   7.708   2.150   2.284
 3198TIP3    H2 9517   7.852   2.177   2.329
 3199TIP3   OH2 9518   7.526   2.509   1.362
 3199TIP3    H1 9519   7.455   2.442   1.351
 3199TIP3    H2 9520   7.507   2.540   1.454
 3200TIP3   OH2 9521   7.934   2.840   2.368
 3200TIP3    H1 9522   7.960   2.789   2.446
 3200TIP3    H2 9523   7.875   2.907   2.404
 3201TIP3   OH2 9524   7.226   2.530   2.039
 3201TIP3    H1 9525   7.263   2.501   1.953
 3201TIP3    H2 9526   7.271   2.470   2.100
 3202TIP3   OH2 9527   7.680   2.655   1.189
 3202TIP3    H1 9528   7.629   2.739   1.194
 3202TIP3    H2 9529   7.626   2.597   1.247
 3203TIP3   OH2 9530   7.107   2.447   2.655
 3203TIP3    H1 9531   7.123   2.431   2.750
 3203TIP3    H2 9532   7.038   2.381   2.636
 3204TIP3   OH2 9533   7.822   2.568   2.676
 3204TIP3    H1 9534   7.762   2.503   2.634
 3204TIP3    H2 9535   7.910   2.531   2.648
 3205TIP3   OH2 9536   8.086   3.130   2.298
 3205TIP3    H1 9537   7.997   3.092   2.282
 3205TIP3    H2 9538   8.126   3.059   2.350
 3206TIP3   OH2 9539   8.186   2.555   1.914
 3206TIP3    H1 9540   8.090   2.556   1.936
 3206TIP3    H2 9541   8.181   2.515   1.826
 3207TIP3   OH2 9542   7.327   2.836   1.674
 3207TIP3    H1 9543   7.323   2.914   1.616
 3207TIP3    H2 9544   7.235   2.809   1.677
 3208TIP3   OH2 9545   6.889   2.134   1.371
 3208TIP3    H1 9546   6.935   2.217   1.396
 3208TIP3    H2 9547   6.813   2.137   1.434
 3209TIP3   OH2 9548   7.454   2.596   1.608
 3209TIP3    H1 9549   7.423   2.685   1.632
 3209TIP3    H2 9550   7.422   2.543   1.684
 3210TIP3   OH2 9551   7.595   3.174   2.133
 3210TIP3    H1 9552   7.636   3.246   2.080
 3210TIP3    H2 9553   7.674   3.131   2.171
 3211TIP3   OH2 9554   7.242   3.071   1.519
 3211TIP3    H1 9555   7.157   3.080   1.566
 3211TIP3    H2 9556   7.275   3.164   1.521
 3212TIP3   OH2 9557   7.975   2.810   2.100
 3212TIP3    H1 9558   7.961   2.814   2.197
 3212TIP3    H2 9559   8.044   2.743   2.097
 3213TIP3   OH2 9560   7.881   2.718   0.998
 3213TIP3    H1 9561   7.962   2.708   1.051
 3213TIP3    H2 9562   7.813   2.688   1.062
 3214TIP3   OH2 9563   8.179   3.377   2.178
 3214TIP3    H1 9564   8.118   3.305   2.151
 3214TIP3    H2 9565   8.184   3.427   2.094
 3215TIP3   OH2 9566   7.311   1.954   2.660
 3215TIP3    H1 9567   7.214   1.955   2.672
 3215TIP3    H2 9568   7.339   1.897   2.734
 3216TIP3   OH2 9569   7.033   3.034   2.293
 3216TIP3    H1 9570   7.087   2.962   2.329
 3216TIP3    H2 9571   7.057   3.107   2.351
 3217TIP3   OH2 9572   7.314   2.688   0.981
 3217TIP3    H1 9573   7.334   2.596   0.952
 3217TIP3    H2 9574   7.296   2.674   1.075
 3218TIP3   OH2 9575   7.263   2.687   1.253
 3218TIP3    H1 9576   7.342   2.657   1.301
 3218TIP3    H2 9577   7.270   2.785   1.262
 3219TIP3   OH2 9578   6.999   2.377   1.456
 3219TIP3    H1 9579   6.932   2.423   1.511
 3219TIP3    H2 9580   7.014   2.445   1.387
 3220TIP3   OH2 9581   7.535   2.882   1.200
 3220TIP3    H1 9582   7.448   2.908   1.236
 3220TIP3    H2 9583   7.547   2.951   1.133
 3221TIP3   OH2 9584   7.715   1.953   1.609
 3221TIP3    H1 9585   7.786   2.016   1.588
 3221TIP3    H2 9586   7.724   1.944   1.707
 3222TIP3   OH2 9587   8.005   2.254   2.432
 3222TIP3    H1 9588   8.010   2.319   2.505
 3222TIP3    H2 9589   8.069   2.188   2.462
 3223TIP3   OH2 9590   7.865   1.659   1.718
 3223TIP3    H1 9591   7.894   1.705   1.800
 3223TIP3    H2 9592   7.940   1.677   1.658
 3224TIP3   OH2 9593   7.281   2.960   1.268
 3224TIP3    H1 9594   7.250   3.030   1.207
 3224TIP3    H2 9595   7.264   3.002   1.355
 3225TIP3   OH2 9596   7.384   1.672   1.500
 3225TIP3    H1 9597   7.374   1.762   1.536
 3225TIP3    H2 9598   7.480   1.660   1.513
 3226TIP3   OH2 9599   6.998   2.583   1.257
 3226TIP3    H1 9600   7.073   2.645   1.267
 3226TIP3    H2 9601   7.038   2.522   1.191
 3227TIP3   OH2 9602   6.934   1.864   1.400
 3227TIP3    H1 9603   6.930   1.961   1.390
 3227TIP3    H2 9604   6.872   1.832   1.332
 3228TIP3   OH2 9605   8.270   3.315   1.726
 3228TIP3    H1 9606   8.224   3.359   1.651
 3228TIP3    H2 9607   8.350   3.282   1.679
 3229TIP3   OH2 9608   7.320   1.584   2.264
 3229TIP3    H1 9609   7.294   1.550   2.176
 3229TIP3    H2 9610   7.311   1.505   2.320
 3230TIP3   OH2 9611   6.864   2.805   1.642
 3230TIP3    H1 9612   6.800   2.833   1.709
 3230TIP3    H2 9613   6.827   2.848   1.561
 3231TIP3   OH2 9614   7.027   3.352   2.717
 3231TIP3    H1 9615   7.113   3.350   2.763
 3231TIP3    H2 9616   7.005   3.257   2.715
 3232TIP3   OH2 9617   7.510   3.307   2.749
 3232TIP3    H1 9618   7.598   3.267   2.761
 3232TIP3    H2 9619   7.473   3.243   2.685
 3233TIP3   OH2 9620   7.485   2.883   0.891
 3233TIP3    H1 9621   7.427   2.812   0.927
 3233TIP3    H2 9622   7.559   2.830   0.859
 3234TIP3   OH2 9623   7.841   2.929   0.840
 3234TIP3    H1 9624   7.867   2.853   0.897
 3234TIP3    H2 9625   7.910   2.924   0.769
 3235TIP3   OH2 9626   7.153   2.753   2.917
 3235TIP3    H1 9627   7.169   2.657   2.925
 3235TIP3    H2 9628   7.066   2.755   2.871
 3236TIP3   OH2 9629   7.131   2.396   1.114
 3236TIP3    H1 9630   7.188   2.365   1.187
 3236TIP3    H2 9631   7.198   2.409   1.044
 3237TIP3   OH2 9632   7.758   2.837   2.691
 3237TIP3    H1 9633   7.716   2.854   2.605
 3237TIP3    H2 9634   7.788   2.744   2.683
 3238TIP3   OH2 9635   7.616   2.594   0.922
 3238TIP3    H1 9636   7.634   2.607   1.017
 3238TIP3    H2 9637   7.637   2.498   0.914
 3239TIP3   OH2 9638   8.203   2.765   2.281
 3239TIP3    H1 9639   8.289   2.796   2.249
 3239TIP3    H2 9640   8.172   2.840   2.334
 3240TIP3   OH2 9641   7.274   2.491   2.902
 3240TIP3    H1 9642   7.351   2.440   2.873
 3240TIP3    H2 9643   7.303   2.522   2.990
 3241TIP3   OH2 9644   7.330   2.314   1.333
 3241TIP3    H1 9645   7.309   2.271   1.417
 3241TIP3    H2 9646   7.374   2.241   1.284
 3242TIP3   OH2 9647   7.610   2.372   2.561
 3242TIP3    H1 9648   7.531   2.431   2.561
 3242TIP3    H2 9649   7.661   2.406   2.484
 3243TIP3   OH2 9650   7.443   2.112   1.191
 3243TIP3    H1 9651   7.425   2.116   1.094
 3243TIP3    H2 9652   7.541   2.117   1.192
 3244TIP3   OH2 9653   8.128   2.771   2.692
 3244TIP3    H1 9654   8.211   2.729   2.661
 3244TIP3    H2 9655   8.108   2.713   2.768
 3245TIP3   OH2 9656   7.718   2.156   2.688
 3245TIP3    H1 9657   7.725   2.080   2.628
 3245TIP3    H2 9658   7.681   2.225   2.629
 3246TIP3   OH2 9659   7.731   1.945   2.499
 3246TIP3    H1 9660   7.763   1.989   2.418
 3246TIP3    H2 9661   7.638   1.925   2.475
 3247TIP3   OH2 9662   7.762   2.480   2.367
 3247TIP3    H1 9663   7.842   2.484   2.313
 3247TIP3    H2 9664   7.703   2.543   2.321
 3248TIP3   OH2 9665   7.609   2.266   2.921
 3248TIP3    H1 9666   7.541   2.197   2.938
 3248TIP3    H2 9667   7.640   2.239   2.833
 3249TIP3   OH2 9668   7.839   1.702   2.585
 3249TIP3    H1 9669   7.794   1.784   2.556
 3249TIP3    H2 9670   7.772   1.634   2.566
 3250TIP3   OH2 9671   7.972   2.224   2.784
 3250TIP3    H1 9672   7.977   2.204   2.880
 3250TIP3    H2 9673   7.883   2.191   2.762
 3251TIP3   OH2 9674   8.225   2.205   2.683
 3251TIP3    H1 9675   8.140   2.208   2.732
 3251TIP3    H2 9676   8.264   2.125   2.719
 3252TIP3   OH2 9677   7.447   2.046   2.977
 3252TIP3    H1 9678   7.452   1.955   2.942
 3252TIP3    H2 9679   7.486   2.034   3.066
 3253TIP3   OH2 9680   7.973   1.713   2.826
 3253TIP3    H1 9681   8.022   1.630   2.833
 3253TIP3    H2 9682   7.918   1.699   2.746
 3254TIP3   OH2 9683   8.029   1.930   2.984
 3254TIP3    H1 9684   8.010   1.860   2.919
 3254TIP3    H2 9685   7.948   1.985   2.980
 3255TIP3   OH2 9686   7.246   3.165   1.084
 3255TIP3    H1 9687   7.341   3.151   1.065
 3255TIP3    H2 9688   7.222   3.216   1.004
 3256TIP3   OH2 9689   6.728   2.545   1.293
 3256TIP3    H1 9690   6.823   2.565   1.278
 3256TIP3    H2 9691   6.721   2.456   1.253
 3257TIP3   OH2 9692   6.644   3.156   1.713
 3257TIP3    H1 9693   6.579   3.094   1.673
 3257TIP3    H2 9694   6.689   3.096   1.777
 3258TIP3   OH2 9695   6.776   3.001   1.899
 3258TIP3    H1 9696   6.766   2.931   1.966
 3258TIP3    H2 9697   6.830   3.064   1.950
 3259TIP3   OH2 9698   6.961   2.414   2.270
 3259TIP3    H1 9699   6.959   2.379   2.179
 3259TIP3    H2 9700   7.059   2.415   2.286
 3260TIP3   OH2 9701   7.181   2.099   2.942
 3260TIP3    H1 9702   7.279   2.094   2.947
 3260TIP3    H2 9703   7.158   2.012   2.980
 3261TIP3   OH2 9704   7.142   1.795   2.278
 3261TIP3    H1 9705   7.202   1.718   2.282
 3261TIP3    H2 9706   7.206   1.868   2.265
 3262TIP3   OH2 9707   6.942   2.065   2.344
 3262TIP3    H1 9708   6.992   2.059   2.260
 3262TIP3    H2 9709   6.975   2.148   2.379
 3263TIP3   OH2 9710   6.930   1.571   1.850
 3263TIP3    H1 9711   6.836   1.564   1.874
 3263TIP3    H2 9712   6.925   1.629   1.770
 3264TIP3   OH2 9713   8.096   3.261   1.343
 3264TIP3    H1 9714   8.170   3.247   1.283
 3264TIP3    H2 9715   8.128   3.335   1.399
 3265TIP3   OH2 9716   7.149   1.649   2.661
 3265TIP3    H1 9717   7.097   1.647   2.743
 3265TIP3    H2 9718   7.085   1.687   2.598
 3266TIP3   OH2 9719   7.189   3.082   2.737
 3266TIP3    H1 9720   7.096   3.057   2.721
 3266TIP3    H2 9721   7.201   3.057   2.829
 3267TIP3   OH2 9722   7.370   3.115   2.286
 3267TIP3    H1 9723   7.321   3.190   2.246
 3267TIP3    H2 9724   7.456   3.129   2.240
 3268TIP3   OH2 9725   7.044   3.368   2.311
 3268TIP3    H1 9726   6.953   3.398   2.287
 3268TIP3    H2 9727   7.056   3.416   2.394
 3269TIP3   OH2 9728   7.280   3.348   2.169
 3269TIP3    H1 9729   7.192   3.359   2.213
 3269TIP3    H2 9730   7.260   3.379   2.079
 3270TIP3   OH2 9731   7.699   3.371   1.965
 3270TIP3    H1 9732   7.631   3.386   1.896
 3270TIP3    H2 9733   7.711   3.461   2.002
 3271TIP3   OH2 9734   7.964   3.309   2.019
 3271TIP3    H1 9735   7.872   3.332   1.993
 3271TIP3    H2 9736   8.015   3.379   1.974
 3272TIP3   OH2 9737   8.156   3.487   1.916
 3272TIP3    H1 9738   8.154   3.577   1.878
 3272TIP3    H2 9739   8.187   3.435   1.839
 3273TIP3   OH2 9740   6.954   3.160   2.053
 3273TIP3    H1 9741   6.981   3.130   2.143
 3273TIP3    H2 9742   7.026   3.117   2.001
 3274TIP3   OH2 9743   7.150   3.034   1.914
 3274TIP3    H1 9744   7.165   2.949   1.963
 3274TIP3    H2 9745   7.242   3.068   1.908
 3275TIP3   OH2 9746   7.418   3.125   1.917
 3275TIP3    H1 9747   7.447   3.032   1.905
 3275TIP3    H2 9748   7.464   3.146   2.000
 3276TIP3   OH2 9749   7.949   1.750   1.960
 3276TIP3    H1 9750   7.908   1.704   2.037
 3276TIP3    H2 9751   8.043   1.736   1.980
 3277TIP3   OH2 9752   7.239   1.490   2.016
 3277TIP3    H1 9753   7.147   1.458   2.019
 3277TIP3    H2 9754   7.288   1.405   2.010
 3278TIP3   OH2 9755   7.031   1.361   1.679
 3278TIP3    H1 9756   7.055   1.415   1.602
 3278TIP3    H2 9757   7.001   1.429   1.743
 3279TIP3   OH2 9758   7.681   1.527   1.907
 3279TIP3    H1 9759   7.740   1.557   1.836
 3279TIP3    H2 9760   7.724   1.565   1.985
 3280TIP3   OH2 9761   6.742   2.938   1.441
 3280TIP3    H1 9762   6.656   2.904   1.409
 3280TIP3    H2 9763   6.733   3.031   1.414
 3281TIP3   OH2 9764   7.152   1.503   1.442
 3281TIP3    H1 9765   7.199   1.417   1.448
 3281TIP3    H2 9766   7.223   1.566   1.466
 3282TIP3   OH2 9767   7.658   1.696   1.537
 3282TIP3    H1 9768   7.721   1.660   1.603
 3282TIP3    H2 9769   7.672   1.791   1.555
 3283TIP3   OH2 9770   7.509   3.117   1.031
 3283TIP3    H1 9771   7.593   3.151   0.994
 3283TIP3    H2 9772   7.492   3.043   0.967
 3284TIP3   OH2 9773   7.445   1.771   2.908
 3284TIP3    H1 9774   7.410   1.700   2.965
 3284TIP3    H2 9775   7.539   1.771   2.937
 3285TIP3   OH2 9776   7.695   1.768   3.029
 3285TIP3    H1 9777   7.779   1.741   2.989
 3285TIP3    H2 9778   7.680   1.697   3.095
 3286TIP3   OH2 9779   6.820   2.955   1.080
 3286TIP3    H1 9780   6.826   2.969   1.175
 3286TIP3    H2 9781   6.906   2.911   1.061
 3287TIP3   OH2 9782   8.394   3.337   2.328
 3287TIP3    H1 9783   8.338   3.341   2.248
 3287TIP3    H2 9784   8.463   3.402   2.305
 3288TIP3   OH2 9785   0.385   3.288   3.271
 3288TIP3    H1 9786   0.355   3.379   3.253
 3288TIP3    H2 9787   0.308   3.237   3.238
 3289TIP3   OH2 9788   0.377   3.291   3.659
 3289TIP3    H1 9789   0.413   3.271   3.748
 3289TIP3    H2 9790   0.337   3.206   3.636
 3290TIP3   OH2 9791  -0.309   3.133   4.014
 3290TIP3    H1 9792  -0.266   3.080   4.084
 3290TIP3    H2 9793  -0.249   3.209   4.006
 3291TIP3   OH2 9794   0.629   3.593   3.344
 3291TIP3    H1 9795   0.617   3.526   3.413
 3291TIP3    H2 9796   0.663   3.669   3.395
 3292TIP3   OH2 9797  -0.314   3.592   3.765
 3292TIP3    H1 9798  -0.325   3.496   3.778
 3292TIP3    H2 9799  -0.220   3.597   3.741
 3293TIP3   OH2 9800  -0.636   2.800   3.545
 3293TIP3    H1 9801  -0.669   2.892   3.538
 3293TIP3    H2 9802  -0.715   2.754   3.578
 3294TIP3   OH2 9803  -0.566   3.073   3.684
 3294TIP3    H1 9804  -0.514   2.992   3.700
 3294TIP3    H2 9805  -0.554   3.089   3.589
 3295TIP3   OH2 9806   0.283   4.050   3.363
 3295TIP3    H1 9807   0.319   3.982   3.302
 3295TIP3    H2 9808   0.283   4.001   3.446
 3296TIP3   OH2 9809   0.184   3.514   3.703
 3296TIP3    H1 9810   0.227   3.437   3.662
 3296TIP3    H2 9811   0.265   3.563   3.730
 3297TIP3   OH2 9812   1.195   2.821   3.701
 3297TIP3    H1 9813   1.205   2.915   3.731
 3297TIP3    H2 9814   1.231   2.828   3.611
 3298TIP3   OH2 9815   0.593   3.014   3.735
 3298TIP3    H1 9816   0.636   2.929   3.757
 3298TIP3    H2 9817   0.561   2.995   3.645
 3299TIP3   OH2 9818  -0.069   2.663   3.701
 3299TIP3    H1 9819  -0.090   2.742   3.646
 3299TIP3    H2 9820  -0.129   2.597   3.660
 3300TIP3   OH2 9821   0.631   2.767   3.325
 3300TIP3    H1 9822   0.703   2.754   3.390
 3300TIP3    H2 9823   0.681   2.803   3.250
 3301TIP3   OH2 9824  -0.426   2.865   3.797
 3301TIP3    H1 9825  -0.339   2.859   3.842
 3301TIP3    H2 9826  -0.410   2.807   3.720
 3302TIP3   OH2 9827   0.017   3.083   3.599
 3302TIP3    H1 9828   0.109   3.052   3.611
 3302TIP3    H2 9829  -0.030   2.999   3.581
 3303TIP3   OH2 9830  -0.072   2.655   4.136
 3303TIP3    H1 9831  -0.128   2.699   4.068
 3303TIP3    H2 9832  -0.124   2.673   4.216
 3304TIP3   OH2 9833   0.272   3.509   3.143
 3304TIP3    H1 9834   0.229   3.496   3.057
 3304TIP3    H2 9835   0.225   3.589   3.175
 3305TIP3   OH2 9836   0.044   3.432   3.924
 3305TIP3    H1 9837  -0.015   3.502   3.958
 3305TIP3    H2 9838   0.089   3.478   3.850
 3306TIP3   OH2 9839   0.835   2.774   3.507
 3306TIP3    H1 9840   0.806   2.743   3.594
 3306TIP3    H2 9841   0.888   2.853   3.530
 3307TIP3   OH2 9842  -0.196   2.773   3.920
 3307TIP3    H1 9843  -0.138   2.849   3.944
 3307TIP3    H2 9844  -0.144   2.732   3.847
 3308TIP3   OH2 9845  -0.121   3.634   4.016
 3308TIP3    H1 9846  -0.152   3.707   3.958
 3308TIP3    H2 9847  -0.193   3.637   4.082
 3309TIP3   OH2 9848   0.690   3.838   3.501
 3309TIP3    H1 9849   0.600   3.829   3.540
 3309TIP3    H2 9850   0.684   3.926   3.459
 3310TIP3   OH2 9851   0.990   2.715   3.864
 3310TIP3    H1 9852   0.908   2.759   3.839
 3310TIP3    H2 9853   1.056   2.758   3.805
 3311TIP3   OH2 9854   0.278   2.371   3.851
 3311TIP3    H1 9855   0.262   2.278   3.875
 3311TIP3    H2 9856   0.204   2.414   3.899
 3312TIP3   OH2 9857   0.389   3.880   3.170
 3312TIP3    H1 9858   0.441   3.797   3.155
 3312TIP3    H2 9859   0.454   3.945   3.132
 3313TIP3   OH2 9860   0.538   3.664   3.093
 3313TIP3    H1 9861   0.496   3.584   3.061
 3313TIP3    H2 9862   0.578   3.633   3.177
 3314TIP3   OH2 9863   0.922   3.747   3.855
 3314TIP3    H1 9864   0.907   3.670   3.796
 3314TIP3    H2 9865   0.905   3.821   3.793
 3315TIP3   OH2 9866   0.214   3.138   3.110
 3315TIP3    H1 9867   0.135   3.192   3.091
 3315TIP3    H2 9868   0.259   3.136   3.023
 3316TIP3   OH2 9869   0.157   2.924   2.822
 3316TIP3    H1 9870   0.219   2.981   2.871
 3316TIP3    H2 9871   0.221   2.859   2.787
 3317TIP3   OH2 9872   0.563   3.223   3.075
 3317TIP3    H1 9873   0.507   3.247   3.152
 3317TIP3    H2 9874   0.647   3.201   3.120
 3318TIP3   OH2 9875   0.787   3.252   4.018
 3318TIP3    H1 9876   0.792   3.340   4.061
 3318TIP3    H2 9877   0.723   3.269   3.947
 3319TIP3   OH2 9878  -0.197   3.230   3.505
 3319TIP3    H1 9879  -0.248   3.168   3.448
 3319TIP3    H2 9880  -0.119   3.175   3.529
 3320TIP3   OH2 9881  -0.067   3.631   3.639
 3320TIP3    H1 9882  -0.086   3.598   3.550
 3320TIP3    H2 9883   0.022   3.592   3.657
 3321TIP3   OH2 9884  -0.051   3.187   3.846
 3321TIP3    H1 9885  -0.024   3.168   3.754
 3321TIP3    H2 9886  -0.013   3.276   3.862
 3322TIP3   OH2 9887   0.448   3.830   3.626
 3322TIP3    H1 9888   0.443   3.909   3.683
 3322TIP3    H2 9889   0.437   3.756   3.688
 3323TIP3   OH2 9890   0.078   3.741   4.172
 3323TIP3    H1 9891   0.017   3.808   4.210
 3323TIP3    H2 9892   0.016   3.692   4.114
 3324TIP3   OH2 9893   0.394   3.083   2.905
 3324TIP3    H1 9894   0.455   3.143   2.954
 3324TIP3    H2 9895   0.423   3.099   2.812
 3325TIP3   OH2 9896  -0.177   3.306   4.271
 3325TIP3    H1 9897  -0.171   3.380   4.334
 3325TIP3    H2 9898  -0.266   3.321   4.236
 3326TIP3   OH2 9899   0.146   3.756   3.186
 3326TIP3    H1 9900   0.229   3.807   3.188
 3326TIP3    H2 9901   0.090   3.810   3.129
 3327TIP3   OH2 9902  -0.116   3.933   4.231
 3327TIP3    H1 9903  -0.145   3.925   4.138
 3327TIP3    H2 9904  -0.202   3.928   4.278
 3328TIP3   OH2 9905   0.905   2.299   2.953
 3328TIP3    H1 9906   0.830   2.315   3.014
 3328TIP3    H2 9907   0.866   2.330   2.870
 3329TIP3   OH2 9908  -0.354   3.078   3.340
 3329TIP3    H1 9909  -0.398   3.140   3.280
 3329TIP3    H2 9910  -0.383   2.994   3.302
 3330TIP3   OH2 9911   0.718   3.686   2.503
 3330TIP3    H1 9912   0.725   3.783   2.488
 3330TIP3    H2 9913   0.811   3.658   2.490
 3331TIP3   OH2 9914   1.161   4.094   3.901
 3331TIP3    H1 9915   1.160   3.997   3.915
 3331TIP3    H2 9916   1.077   4.119   3.946
 3332TIP3   OH2 9917   0.264   3.879   4.027
 3332TIP3    H1 9918   0.259   3.971   4.063
 3332TIP3    H2 9919   0.197   3.834   4.084
 3333TIP3   OH2 9920   0.029   3.998   2.984
 3333TIP3    H1 9921  -0.012   3.979   2.898
 3333TIP3    H2 9922  -0.005   4.087   3.006
 3334TIP3   OH2 9923   0.228   3.909   2.623
 3334TIP3    H1 9924   0.290   3.842   2.588
 3334TIP3    H2 9925   0.258   3.917   2.716
 3335TIP3   OH2 9926   0.281   3.956   2.891
 3335TIP3    H1 9927   0.191   3.961   2.931
 3335TIP3    H2 9928   0.331   3.919   2.966
 3336TIP3   OH2 9929   1.043   3.218   4.170
 3336TIP3    H1 9930   0.968   3.228   4.109
 3336TIP3    H2 9931   1.066   3.124   4.157
 3337TIP3   OH2 9932  -0.304   3.676   4.215
 3337TIP3    H1 9933  -0.258   3.645   4.296
 3337TIP3    H2 9934  -0.376   3.611   4.211
 3338TIP3   OH2 9935   0.046   2.451   3.984
 3338TIP3    H1 9936  -0.042   2.420   3.955
 3338TIP3    H2 9937   0.019   2.532   4.032
 3339TIP3   OH2 9938   0.582   2.562   4.176
 3339TIP3    H1 9939   0.651   2.541   4.242
 3339TIP3    H2 9940   0.499   2.549   4.225
 3340TIP3   OH2 9941   0.815   2.988   4.086
 3340TIP3    H1 9942   0.771   2.989   4.174
 3340TIP3    H2 9943   0.801   3.080   4.056
 3341TIP3   OH2 9944   0.485   3.118   2.653
 3341TIP3    H1 9945   0.437   3.109   2.568
 3341TIP3    H2 9946   0.563   3.169   2.624
 3342TIP3   OH2 9947  -0.025   2.969   4.001
 3342TIP3    H1 9948  -0.063   2.999   4.085
 3342TIP3    H2 9949  -0.036   3.049   3.944
 3343TIP3   OH2 9950  -0.142   2.868   3.541
 3343TIP3    H1 9951  -0.236   2.840   3.541
 3343TIP3    H2 9952  -0.121   2.859   3.445
 3344TIP3   OH2 9953   0.355   2.941   3.242
 3344TIP3    H1 9954   0.303   3.014   3.200
 3344TIP3    H2 9955   0.411   2.912   3.168
 3345TIP3   OH2 9956   0.525   3.214   4.324
 3345TIP3    H1 9957   0.506   3.142   4.388
 3345TIP3    H2 9958   0.619   3.230   4.344
 3346TIP3   OH2 9959   0.502   2.963   3.481
 3346TIP3    H1 9960   0.443   2.996   3.411
 3346TIP3    H2 9961   0.539   2.886   3.434
 3347TIP3   OH2 9962  -0.200   2.991   4.227
 3347TIP3    H1 9963  -0.154   3.051   4.288
 3347TIP3    H2 9964  -0.199   2.907   4.276
 3348TIP3   OH2 9965  -0.627   2.516   3.819
 3348TIP3    H1 9966  -0.546   2.546   3.866
 3348TIP3    H2 9967  -0.593   2.486   3.735
 3349TIP3   OH2 9968   0.490   3.207   3.894
 3349TIP3    H1 9969   0.536   3.140   3.839
 3349TIP3    H2 9970   0.476   3.156   3.976
 3350TIP3   OH2 9971   0.193   2.665   3.573
 3350TIP3    H1 9972   0.111   2.669   3.627
 3350TIP3    H2 9973   0.262   2.675   3.641
 3351TIP3   OH2 9974  -0.377   2.724   3.568
 3351TIP3    H1 9975  -0.471   2.743   3.545
 3351TIP3    H2 9976  -0.366   2.631   3.543
 3352TIP3   OH2 9977  -0.079   2.805   3.288
 3352TIP3    H1 9978   0.016   2.790   3.272
 3352TIP3    H2 9979  -0.121   2.744   3.225
 3353TIP3   OH2 9980   0.678   2.751   3.769
 3353TIP3    H1 9981   0.654   2.764   3.864
 3353TIP3    H2 9982   0.605   2.693   3.741
 3354TIP3   OH2 9983   0.854   4.443   3.997
 3354TIP3    H1 9984   0.854   4.465   3.902
 3354TIP3    H2 9985   0.936   4.488   4.026
 3355TIP3   OH2 9986  -0.206   3.550   4.444
 3355TIP3    H1 9987  -0.122   3.581   4.483
 3355TIP3    H2 9988  -0.241   3.495   4.516
 3356TIP3   OH2 9989   0.272   3.000   3.668
 3356TIP3    H1 9990   0.352   2.971   3.621
 3356TIP3    H2 9991   0.283   2.961   3.757
 3357TIP3   OH2 9992  -0.210   2.472   3.538
 3357TIP3    H1 9993  -0.192   2.382   3.568
 3357TIP3    H2 9994  -0.142   2.485   3.470
 3358TIP3   OH2 9995   0.246   2.903   3.967
 3358TIP3    H1 9996   0.158   2.943   3.977
 3358TIP3    H2 9997   0.305   2.966   4.014
 3359TIP3   OH2 9998  -0.010   3.295   3.056
 3359TIP3    H1 9999  -0.072   3.219   3.050
 3359TIP3    H210000  -0.031   3.329   3.146
 3360TIP3   OH210001   0.867   3.542   3.690
 3360TIP3    H110002   0.914   3.575   3.611
 3360TIP3    H210003   0.795   3.488   3.653
 3361TIP3   OH210004   0.404   2.616   2.960
 3361TIP3    H110005   0.339   2.640   2.893
 3361TIP3    H210006   0.446   2.704   2.976
 3362TIP3   OH210007   0.376   3.606   4.055
 3362TIP3    H110008   0.422   3.595   4.139
 3362TIP3    H210009   0.344   3.698   4.059
 3363TIP3   OH210010   0.514   2.858   3.028
 3363TIP3    H110011   0.609   2.875   3.042
 3363TIP3    H210012   0.487   2.930   2.968
 3364TIP3   OH210013  -0.334   3.321   3.724
 3364TIP3    H110014  -0.288   3.290   3.643
 3364TIP3    H210015  -0.310   3.253   3.788
 3365TIP3   OH210016   0.135   3.443   2.878
 3365TIP3    H110017   0.090   3.530   2.887
 3365TIP3    H210018   0.081   3.388   2.939
 3366TIP3   OH210019   0.287   3.351   4.364
 3366TIP3    H110020   0.230   3.296   4.309
 3366TIP3    H210021   0.376   3.317   4.338
 3367TIP3   OH210022   0.539   3.870   3.952
 3367TIP3    H110023   0.442   3.872   3.965
 3367TIP3    H210024   0.568   3.924   4.029
 3368TIP3   OH210025   0.937   2.947   2.865
 3368TIP3    H110026   0.872   2.904   2.806
 3368TIP3    H210027   0.937   3.037   2.825
 3369TIP3   OH210028   1.174   3.809   3.934
 3369TIP3    H110029   1.076   3.798   3.930
 3369TIP3    H210030   1.199   3.772   3.846
 3370TIP3   OH210031   0.656   3.763   2.769
 3370TIP3    H110032   0.625   3.695   2.831
 3370TIP3    H210033   0.667   3.714   2.685
 3371TIP3   OH210034   0.643   3.393   3.591
 3371TIP3    H110035   0.550   3.367   3.606
 3371TIP3    H210036   0.678   3.311   3.550
 3372TIP3   OH210037  -0.212   3.620   3.356
 3372TIP3    H110038  -0.216   3.699   3.298
 3372TIP3    H210039  -0.302   3.616   3.388
 3373TIP3   OH210040  -0.088   3.381   3.298
 3373TIP3    H110041  -0.121   3.471   3.318
 3373TIP3    H210042  -0.121   3.331   3.376
 3374TIP3   OH210043   0.060   3.962   3.823
 3374TIP3    H110044   0.104   4.034   3.773
 3374TIP3    H210045   0.136   3.924   3.872
 3375TIP3   OH210046  -0.309   3.862   3.208
 3375TIP3    H110047  -0.387   3.881   3.261
 3375TIP3    H210048  -0.264   3.950   3.209
 3376TIP3   OH210049   0.433   3.598   3.786
 3376TIP3    H110050   0.422   3.593   3.883
 3376TIP3    H210051   0.516   3.550   3.773
 3377TIP3   OH210052   0.412   3.491   2.671
 3377TIP3    H110053   0.469   3.465   2.747
 3377TIP3    H210054   0.325   3.466   2.707
 3378TIP3   OH210055   0.681   4.129   3.835
 3378TIP3    H110056   0.601   4.075   3.827
 3378TIP3    H210057   0.667   4.194   3.762
 3379TIP3   OH210058   0.748   3.962   2.485
 3379TIP3    H110059   0.784   4.039   2.437
 3379TIP3    H210060   0.667   4.004   2.522
 3380TIP3   OH210061  -0.216   2.737   4.364
 3380TIP3    H110062  -0.307   2.745   4.395
 3380TIP3    H210063  -0.179   2.675   4.429
 3381TIP3   OH210064   0.575   3.421   2.880
 3381TIP3    H110065   0.563   3.357   2.953
 3381TIP3    H210066   0.673   3.418   2.870
 3382TIP3   OH210067  -0.229   3.450   2.655
 3382TIP3    H110068  -0.137   3.422   2.647
 3382TIP3    H210069  -0.243   3.451   2.752
 3383TIP3   OH210070  -0.263   3.478   2.928
 3383TIP3    H110071  -0.197   3.447   2.992
 3383TIP3    H210072  -0.260   3.575   2.943
 3384TIP3   OH210073  -0.542   3.297   3.208
 3384TIP3    H110074  -0.622   3.262   3.167
 3384TIP3    H210075  -0.509   3.350   3.133
 3385TIP3   OH210076   0.614   2.798   4.029
 3385TIP3    H110077   0.689   2.847   4.067
 3385TIP3    H210078   0.604   2.722   4.091
 3386TIP3   OH210079   0.488   2.546   3.219
 3386TIP3    H110080   0.454   2.569   3.130
 3386TIP3    H210081   0.528   2.631   3.248
 3387TIP3   OH210082  -0.006   3.670   2.894
 3387TIP3    H110083  -0.089   3.709   2.927
 3387TIP3    H210084  -0.016   3.684   2.798
 3388TIP3   OH210085   0.190   2.731   3.303
 3388TIP3    H110086   0.250   2.806   3.285
 3388TIP3    H210087   0.194   2.726   3.401
 3389TIP3   OH210088   0.445   3.049   4.112
 3389TIP3    H110089   0.469   3.107   4.187
 3389TIP3    H210090   0.503   2.973   4.125
 3390TIP3   OH210091   0.329   2.451   3.420
 3390TIP3    H110092   0.317   2.530   3.476
 3390TIP3    H210093   0.393   2.486   3.353
 3391TIP3   OH210094  -0.263   3.749   2.958
 3391TIP3    H110095  -0.295   3.818   2.896
 3391TIP3    H210096  -0.283   3.790   3.045
 3392TIP3   OH210097   1.090   2.957   4.083
 3392TIP3    H110098   0.993   2.946   4.078
 3392TIP3    H210099   1.114   2.988   3.994
 3393TIP3   OH210100   0.733   3.146   3.477
 3393TIP3    H110101   0.657   3.088   3.497
 3393TIP3    H210102   0.805   3.105   3.529
 3394TIP3   OH210103  -0.532   3.395   2.955
 3394TIP3    H110104  -0.451   3.443   2.928
 3394TIP3    H210105  -0.566   3.363   2.870
 3395TIP3   OH210106   0.703   4.106   3.425
 3395TIP3    H110107   0.663   4.154   3.349
 3395TIP3    H210108   0.799   4.124   3.407
 3396TIP3   OH210109  -0.215   2.362   3.953
 3396TIP3    H110110  -0.256   2.310   3.884
 3396TIP3    H210111  -0.219   2.297   4.027
 3397TIP3   OH210112  -0.041   4.119   4.428
 3397TIP3    H110113   0.046   4.090   4.458
 3397TIP3    H210114  -0.060   4.053   4.359
 3398TIP3   OH210115  -0.054   3.678   2.619
 3398TIP3    H110116  -0.136   3.630   2.597
 3398TIP3    H210117  -0.002   3.664   2.538
 3399TIP3   OH210118   0.590   4.006   4.188
 3399TIP3    H110119   0.587   3.935   4.256
 3399TIP3    H210120   0.670   4.056   4.215
 3400TIP3   OH210121   0.387   3.719   2.503
 3400TIP3    H110122   0.428   3.651   2.559
 3400TIP3    H210123   0.437   3.712   2.420
 3401TIP3   OH210124   0.213   3.626   4.383
 3401TIP3    H110125   0.177   3.649   4.295
 3401TIP3    H210126   0.247   3.535   4.369
 3402TIP3   OH210127   0.061   3.379   2.622
 3402TIP3    H110128   0.090   3.396   2.714
 3402TIP3    H210129   0.089   3.285   2.612
 3403TIP3   OH210130   0.702   3.642   3.991
 3403TIP3    H110131   0.782   3.676   3.945
 3403TIP3    H210132   0.639   3.714   3.971
 3404TIP3   OH210133  -0.292   3.291   4.577
 3404TIP3    H110134  -0.244   3.208   4.566
 3404TIP3    H210135  -0.271   3.313   4.670
 3405TIP3   OH210136  -0.179   3.083   3.044
 3405TIP3    H110137  -0.254   3.066   3.103
 3405TIP3    H210138  -0.191   3.015   2.977
 3406TIP3   OH210139   0.052   3.149   4.243
 3406TIP3    H110140  -0.020   3.215   4.247
 3406TIP3    H210141   0.110   3.187   4.173
 3407TIP3   OH210142   0.579   3.559   4.381
 3407TIP3    H110143   0.656   3.529   4.331
 3407TIP3    H210144   0.576   3.496   4.455
 3408TIP3   OH210145   0.716   3.217   2.529
 3408TIP3    H110146   0.690   3.174   2.445
 3408TIP3    H210147   0.682   3.308   2.509
 3409TIP3   OH210148   0.185   2.949   4.375
 3409TIP3    H110149   0.187   2.870   4.317
 3409TIP3    H210150   0.141   3.015   4.317
 3410TIP3   OH210151   0.187   2.732   4.186
 3410TIP3    H110152   0.216   2.778   4.104
 3410TIP3    H210153   0.094   2.711   4.165
 3411TIP3   OH210154   0.213   3.267   4.064
 3411TIP3    H110155   0.299   3.278   4.020
 3411TIP3    H210156   0.158   3.332   4.014
 3412TIP3   OH210157   0.793   3.235   4.433
 3412TIP3    H110158   0.845   3.155   4.445
 3412TIP3    H210159   0.857   3.293   4.390
 3413TIP3   OH210160   0.831   3.495   4.178
 3413TIP3    H110161   0.776   3.550   4.117
 3413TIP3    H210162   0.920   3.513   4.140
 3414TIP3   OH210163   0.068   3.055   4.610
 3414TIP3    H110164  -0.000   2.986   4.628
 3414TIP3    H210165   0.099   3.029   4.521
 3415TIP3   OH210166   0.318   2.495   4.256
 3415TIP3    H110167   0.270   2.578   4.232
 3415TIP3    H210168   0.249   2.428   4.244
 3416TIP3   OH210169   0.446   2.996   4.469
 3416TIP3    H110170   0.432   2.983   4.565
 3416TIP3    H210171   0.356   2.975   4.437
 3417TIP3   OH210172   0.682   2.946   4.320
 3417TIP3    H110173   0.609   2.952   4.385
 3417TIP3    H210174   0.758   2.921   4.377
 3418TIP3   OH210175   0.908   2.891   4.473
 3418TIP3    H110176   0.923   2.796   4.491
 3418TIP3    H210177   0.906   2.930   4.564
 3419TIP3   OH210178  -0.083   2.826   4.663
 3419TIP3    H110179  -0.077   2.733   4.634
 3419TIP3    H210180  -0.048   2.819   4.754
 3420TIP3   OH210181   0.409   2.503   4.515
 3420TIP3    H110182   0.476   2.433   4.506
 3420TIP3    H210183   0.370   2.501   4.425
 3421TIP3   OH210184   0.477   2.719   4.673
 3421TIP3    H110185   0.455   2.649   4.608
 3421TIP3    H210186   0.400   2.779   4.666
 3422TIP3   OH210187  -0.300   3.954   2.776
 3422TIP3    H110188  -0.204   3.950   2.759
 3422TIP3    H210189  -0.328   3.987   2.688
 3423TIP3   OH210190   0.959   4.192   3.390
 3423TIP3    H110191   0.980   4.229   3.477
 3423TIP3    H210192   1.017   4.244   3.332
 3424TIP3   OH210193   0.982   4.213   3.672
 3424TIP3    H110194   0.942   4.123   3.668
 3424TIP3    H210195   1.060   4.193   3.727
 3425TIP3   OH210196   1.033   3.891   4.245
 3425TIP3    H110197   0.962   3.902   4.310
 3425TIP3    H210198   1.077   3.979   4.248
 3426TIP3   OH210199   0.854   3.400   2.857
 3426TIP3    H110200   0.918   3.468   2.830
 3426TIP3    H210201   0.897   3.364   2.938
 3427TIP3   OH210202   0.978   3.266   3.061
 3427TIP3    H110203   0.912   3.229   3.124
 3427TIP3    H210204   1.045   3.305   3.122
 3428TIP3   OH210205   1.031   3.666   3.502
 3428TIP3    H110206   1.093   3.600   3.462
 3428TIP3    H210207   1.025   3.732   3.431
 3429TIP3   OH210208   0.860   3.962   3.689
 3429TIP3    H110209   0.787   4.002   3.739
 3429TIP3    H210210   0.813   3.914   3.618
 3430TIP3   OH210211   0.910   3.173   2.711
 3430TIP3    H110212   0.842   3.186   2.640
 3430TIP3    H210213   0.888   3.251   2.767
 3431TIP3   OH210214   0.802   2.817   2.658
 3431TIP3    H110215   0.777   2.903   2.619
 3431TIP3    H210216   0.742   2.759   2.606
 3432TIP3   OH210217   0.789   3.132   3.211
 3432TIP3    H110218   0.794   3.035   3.207
 3432TIP3    H210219   0.773   3.148   3.306
 3433TIP3   OH210220  -0.572   3.117   3.953
 3433TIP3    H110221  -0.570   3.101   3.856
 3433TIP3    H210222  -0.479   3.149   3.966
 3434TIP3   OH210223   1.078   3.555   4.072
 3434TIP3    H110224   1.149   3.487   4.064
 3434TIP3    H210225   1.097   3.613   3.998
 3435TIP3   OH210226   1.264   3.359   4.093
 3435TIP3    H110227   1.187   3.304   4.118
 3435TIP3    H210228   1.336   3.293   4.102
 3436TIP3   OH210229   0.792   2.850   3.107
 3436TIP3    H110230   0.832   2.761   3.119
 3436TIP3    H210231   0.850   2.887   3.039
 3437TIP3   OH210232   0.955   3.027   3.601
 3437TIP3    H110233   1.039   3.056   3.562
 3437TIP3    H210234   0.971   3.057   3.692
 3438TIP3   OH210235  -0.346   2.907   4.656
 3438TIP3    H110236  -0.253   2.873   4.652
 3438TIP3    H210237  -0.401   2.836   4.620
 3439TIP3   OH210238   1.468   2.758   4.385
 3439TIP3    H110239   1.529   2.696   4.340
 3439TIP3    H210240   1.436   2.811   4.309
 3440TIP3   OH210241   0.904   2.599   3.135
 3440TIP3    H110242   0.947   2.583   3.222
 3440TIP3    H210243   0.842   2.524   3.133
 3441TIP3   OH210244  -0.394   2.574   3.952
 3441TIP3    H110245  -0.328   2.504   3.968
 3441TIP3    H210246  -0.337   2.653   3.952
 3442TIP3   OH210247  -0.565   2.849   4.035
 3442TIP3    H110248  -0.515   2.833   3.953
 3442TIP3    H210249  -0.560   2.946   4.038
 3443TIP3   OH210250   1.340   2.895   4.190
 3443TIP3    H110251   1.258   2.945   4.209
 3443TIP3    H210252   1.302   2.828   4.130
 3444TIP3   OH210253   0.539   4.063   3.041
 3444TIP3    H110254   0.594   4.055   2.961
 3444TIP3    H210255   0.590   4.126   3.095
 3445TIP3   OH210256  -0.385   2.431   4.373
 3445TIP3    H110257  -0.414   2.421   4.464
 3445TIP3    H210258  -0.464   2.472   4.332
 3446TIP3   OH210259  -0.171   3.912   3.958
 3446TIP3    H110260  -0.216   3.988   3.918
 3446TIP3    H210261  -0.083   3.920   3.916
 3447TIP3   OH210262   0.260   4.145   4.112
 3447TIP3    H110263   0.303   4.142   4.200
 3447TIP3    H210264   0.327   4.196   4.061
 3448TIP3   OH210265   0.441   4.299   3.973
 3448TIP3    H110266   0.511   4.248   3.929
 3448TIP3    H210267   0.495   4.354   4.034
 3449TIP3   OH210268   1.240   2.657   4.072
 3449TIP3    H110269   1.152   2.664   4.031
 3449TIP3    H210270   1.263   2.562   4.058
 3450TIP3   OH210271  -0.264   4.159   3.857
 3450TIP3    H110272  -0.337   4.186   3.915
 3450TIP3    H210273  -0.298   4.189   3.770
 3451TIP3   OH210274   0.163   4.161   3.660
 3451TIP3    H110275   0.110   4.179   3.580
 3451TIP3    H210276   0.175   4.250   3.699
 3452TIP3   OH210277   0.430   4.099   3.712
 3452TIP3    H110278   0.337   4.118   3.689
 3452TIP3    H210279   0.478   4.169   3.664
 3453TIP3   OH210280   0.622   4.287   3.616
 3453TIP3    H110281   0.618   4.373   3.568
 3453TIP3    H210282   0.656   4.228   3.546
 3454TIP3   OH210283  -0.373   3.790   3.585
 3454TIP3    H110284  -0.368   3.718   3.651
 3454TIP3    H210285  -0.287   3.833   3.597
 3455TIP3   OH210286  -0.111   3.925   3.605
 3455TIP3    H110287  -0.083   3.835   3.583
 3455TIP3    H210288  -0.061   3.938   3.688
 3456TIP3   OH210289   0.447   2.572   3.694
 3456TIP3    H110290   0.404   2.499   3.743
 3456TIP3    H210291   0.522   2.527   3.650
 3457TIP3   OH210292   0.962   2.446   3.592
 3457TIP3    H110293   0.999   2.504   3.521
 3457TIP3    H210294   0.869   2.476   3.595
 3458TIP3   OH210295   1.061   2.548   3.357
 3458TIP3    H110296   1.136   2.496   3.321
 3458TIP3    H210297   1.095   2.639   3.343
 3459TIP3   OH210298   0.134   2.320   3.596
 3459TIP3    H110299   0.189   2.365   3.530
 3459TIP3    H210300   0.169   2.357   3.678
 3460TIP3   OH210301   0.675   2.459   3.571
 3460TIP3    H110302   0.680   2.425   3.481
 3460TIP3    H210303   0.664   2.376   3.624
 3461TIP3   OH210304   0.721   2.390   3.150
 3461TIP3    H110305   0.633   2.431   3.153
 3461TIP3    H210306   0.701   2.301   3.186
 3462TIP3   OH210307   0.120   2.473   3.246
 3462TIP3    H110308   0.194   2.444   3.303
 3462TIP3    H210309   0.134   2.570   3.254
 3463TIP3   OH210310  -0.034   3.930   2.718
 3463TIP3    H110311   0.055   3.943   2.680
 3463TIP3    H210312  -0.056   3.847   2.672
 3464TIP3   OH210313   0.690   4.030   2.812
 3464TIP3    H110314   0.682   3.932   2.802
 3464TIP3    H210315   0.642   4.060   2.732
 3465TIP3   OH210316  -0.100   2.557   4.589
 3465TIP3    H110317  -0.138   2.487   4.648
 3465TIP3    H210318  -0.008   2.555   4.622
 3466TIP3   OH210319   0.148   2.554   4.714
 3466TIP3    H110320   0.236   2.534   4.676
 3466TIP3    H210321   0.138   2.483   4.780
 3467TIP3   OH210322   0.977   2.620   4.503
 3467TIP3    H110323   0.995   2.592   4.596
 3467TIP3    H210324   1.067   2.618   4.464
 3468TIP3   OH210325   0.909   4.172   3.998
 3468TIP3    H110326   0.832   4.143   3.945
 3468TIP3    H210327   0.893   4.268   4.002
 3469TIP3   OH210328   2.182   3.548   2.756
 3469TIP3    H110329   2.150   3.638   2.735
 3469TIP3    H210330   2.105   3.495   2.728
 3470TIP3   OH210331   2.186   3.542   3.147
 3470TIP3    H110332   2.219   3.522   3.236
 3470TIP3    H210333   2.137   3.462   3.124
 3471TIP3   OH210334   1.478   3.438   3.495
 3471TIP3    H110335   1.495   3.364   3.556
 3471TIP3    H210336   1.549   3.499   3.521
 3472TIP3   OH210337   2.429   3.848   2.828
 3472TIP3    H110338   2.405   3.782   2.894
 3472TIP3    H210339   2.453   3.925   2.884
 3473TIP3   OH210340   1.450   3.852   3.227
 3473TIP3    H110341   1.442   3.754   3.229
 3473TIP3    H210342   1.547   3.861   3.233
 3474TIP3   OH210343   1.160   3.043   3.008
 3474TIP3    H110344   1.129   3.130   3.037
 3474TIP3    H210345   1.076   3.004   2.978
 3475TIP3   OH210346   1.210   3.337   3.186
 3475TIP3    H110347   1.260   3.264   3.229
 3475TIP3    H210348   1.279   3.384   3.139
 3476TIP3   OH210349   2.077   4.312   2.843
 3476TIP3    H110350   2.119   4.237   2.797
 3476TIP3    H210351   2.056   4.275   2.930
 3477TIP3   OH210352   1.976   3.772   3.190
 3477TIP3    H110353   2.016   3.696   3.147
 3477TIP3    H210354   2.058   3.818   3.218
 3478TIP3   OH210355   2.995   3.091   3.192
 3478TIP3    H110356   3.023   3.173   3.236
 3478TIP3    H210357   3.012   3.112   3.099
 3479TIP3   OH210358   2.393   3.270   3.220
 3479TIP3    H110359   2.433   3.183   3.242
 3479TIP3    H210360   2.358   3.252   3.130
 3480TIP3   OH210361   1.734   2.929   3.185
 3480TIP3    H110362   1.711   3.004   3.126
 3480TIP3    H210363   1.680   2.859   3.144
 3481TIP3   OH210364   2.427   3.021   2.808
 3481TIP3    H110365   2.498   3.007   2.876
 3481TIP3    H210366   2.480   3.058   2.735
 3482TIP3   OH210367   1.368   3.145   3.285
 3482TIP3    H110368   1.430   3.125   3.356
 3482TIP3    H210369   1.394   3.081   3.217
 3483TIP3   OH210370   1.804   3.331   3.084
 3483TIP3    H110371   1.896   3.305   3.102
 3483TIP3    H210372   1.764   3.246   3.056
 3484TIP3   OH210373   3.066   3.301   3.359
 3484TIP3    H110374   2.980   3.345   3.343
 3484TIP3    H210375   3.085   3.332   3.450
 3485TIP3   OH210376   1.724   2.912   3.626
 3485TIP3    H110377   1.666   2.952   3.559
 3485TIP3    H210378   1.672   2.931   3.707
 3486TIP3   OH210379   2.075   3.769   2.623
 3486TIP3    H110380   2.027   3.750   2.542
 3486TIP3    H210381   2.027   3.849   2.654
 3487TIP3   OH210382   1.832   3.692   3.415
 3487TIP3    H110383   1.770   3.759   3.452
 3487TIP3    H210384   1.872   3.742   3.341
 3488TIP3   OH210385   2.628   3.027   2.992
 3488TIP3    H110386   2.597   2.995   3.078
 3488TIP3    H210387   2.679   3.107   3.017
 3489TIP3   OH210388   1.595   3.025   3.409
 3489TIP3    H110389   1.653   3.101   3.433
 3489TIP3    H210390   1.646   2.988   3.334
 3490TIP3   OH210391   1.661   3.887   3.513
 3490TIP3    H110392   1.636   3.976   3.481
 3490TIP3    H210393   1.582   3.868   3.568
 3491TIP3   OH210394   1.051   3.576   2.750
 3491TIP3    H110395   1.008   3.606   2.668
 3491TIP3    H210396   1.082   3.661   2.788
 3492TIP3   OH210397   2.494   4.093   2.988
 3492TIP3    H110398   2.407   4.081   3.032
 3492TIP3    H210399   2.481   4.180   2.946
 3493TIP3   OH210400   2.787   2.985   3.355
 3493TIP3    H110401   2.700   3.015   3.325
 3493TIP3    H210402   2.847   3.020   3.286
 3494TIP3   OH210403   2.077   2.631   3.341
 3494TIP3    H110404   2.059   2.537   3.359
 3494TIP3    H210405   2.001   2.673   3.388
 3495TIP3   OH210406   2.194   4.134   2.665
 3495TIP3    H110407   2.245   4.052   2.646
 3495TIP3    H210408   2.256   4.200   2.624
 3496TIP3   OH210409   2.339   3.918   2.576
 3496TIP3    H110410   2.281   3.844   2.554
 3496TIP3    H210411   2.380   3.885   2.660
 3497TIP3   OH210412   2.719   4.002   3.334
 3497TIP3    H110413   2.702   3.923   3.278
 3497TIP3    H210414   2.697   4.075   3.274
 3498TIP3   OH210415   2.010   3.395   2.597
 3498TIP3    H110416   1.929   3.447   2.579
 3498TIP3    H210417   2.051   3.393   2.509
 3499TIP3   OH210418   1.968   3.182   2.312
 3499TIP3    H110419   2.037   3.236   2.355
 3499TIP3    H210420   2.023   3.120   2.262
 3500TIP3   OH210421   2.913   3.643   3.182
 3500TIP3    H110422   2.828   3.692   3.187
 3500TIP3    H210423   2.942   3.667   3.092
 3501TIP3   OH210424   2.360   3.480   2.562
 3501TIP3    H110425   2.304   3.504   2.639
 3501TIP3    H210426   2.443   3.457   2.607
 3502TIP3   OH210427   2.591   3.516   3.482
 3502TIP3    H110428   2.589   3.598   3.535
 3502TIP3    H210429   2.504   3.520   3.438
 3503TIP3   OH210430   1.591   3.472   2.980
 3503TIP3    H110431   1.552   3.414   2.911
 3503TIP3    H210432   1.669   3.420   3.010
 3504TIP3   OH210433   1.725   3.895   3.126
 3504TIP3    H110434   1.700   3.851   3.043
 3504TIP3    H210435   1.812   3.855   3.144
 3505TIP3   OH210436   1.744   3.441   3.338
 3505TIP3    H110437   1.766   3.427   3.244
 3505TIP3    H210438   1.774   3.533   3.355
 3506TIP3   OH210439   2.259   4.083   3.115
 3506TIP3    H110440   2.239   4.165   3.164
 3506TIP3    H210441   2.236   4.013   3.179
 3507TIP3   OH210442   1.865   3.999   3.662
 3507TIP3    H110443   1.804   4.062   3.706
 3507TIP3    H210444   1.800   3.947   3.610
 3508TIP3   OH210445   2.198   3.335   2.391
 3508TIP3    H110446   2.255   3.398   2.441
 3508TIP3    H210447   2.224   3.355   2.298
 3509TIP3   OH210448   1.614   3.553   3.764
 3509TIP3    H110449   1.621   3.641   3.806
 3509TIP3    H210450   1.519   3.534   3.780
 3510TIP3   OH210451   1.947   4.010   2.664
 3510TIP3    H110452   2.025   4.067   2.675
 3510TIP3    H210453   1.882   4.070   2.626
 3511TIP3   OH210454   1.660   4.164   3.745
 3511TIP3    H110455   1.621   4.172   3.657
 3511TIP3    H210456   1.581   4.143   3.800
 3512TIP3   OH210457   2.711   2.573   2.441
 3512TIP3    H110458   2.631   2.598   2.491
 3512TIP3    H210459   2.728   2.656   2.392
 3513TIP3   OH210460   1.461   3.316   2.775
 3513TIP3    H110461   1.389   3.363   2.727
 3513TIP3    H210462   1.416   3.236   2.803
 3514TIP3   OH210463   2.513   3.942   1.989
 3514TIP3    H110464   2.521   4.039   1.974
 3514TIP3    H210465   2.606   3.914   1.977
 3515TIP3   OH210466   1.238   3.693   3.698
 3515TIP3    H110467   1.169   3.677   3.631
 3515TIP3    H210468   1.269   3.603   3.719
 3516TIP3   OH210469   1.090   3.901   3.317
 3516TIP3    H110470   1.186   3.889   3.321
 3516TIP3    H210471   1.078   3.975   3.378
 3517TIP3   OH210472   2.957   4.349   3.384
 3517TIP3    H110473   2.956   4.253   3.403
 3517TIP3    H210474   2.873   4.375   3.430
 3518TIP3   OH210475   2.061   4.121   3.515
 3518TIP3    H110476   2.064   4.214   3.547
 3518TIP3    H210477   1.989   4.085   3.571
 3519TIP3   OH210478   1.829   4.263   2.468
 3519TIP3    H110479   1.775   4.245   2.389
 3519TIP3    H210480   1.791   4.347   2.500
 3520TIP3   OH210481   1.262   4.109   2.855
 3520TIP3    H110482   1.309   4.102   2.942
 3520TIP3    H210483   1.208   4.028   2.858
 3521TIP3   OH210484   2.024   4.165   2.107
 3521TIP3    H110485   2.082   4.094   2.072
 3521TIP3    H210486   2.057   4.175   2.198
 3522TIP3   OH210487   2.078   4.212   2.376
 3522TIP3    H110488   1.988   4.223   2.415
 3522TIP3    H210489   2.125   4.172   2.450
 3523TIP3   OH210490   2.847   3.478   3.657
 3523TIP3    H110491   2.760   3.487   3.617
 3523TIP3    H210492   2.861   3.381   3.652
 3524TIP3   OH210493   1.440   3.881   3.672
 3524TIP3    H110494   1.485   3.873   3.758
 3524TIP3    H210495   1.366   3.817   3.683
 3525TIP3   OH210496   1.841   2.709   3.472
 3525TIP3    H110497   1.753   2.681   3.442
 3525TIP3    H210498   1.816   2.790   3.520
 3526TIP3   OH210499   2.376   2.819   3.663
 3526TIP3    H110500   2.445   2.797   3.729
 3526TIP3    H210501   2.293   2.805   3.712
 3527TIP3   OH210502   2.612   3.255   3.583
 3527TIP3    H110503   2.560   3.251   3.666
 3527TIP3    H210504   2.587   3.343   3.547
 3528TIP3   OH210505   2.278   3.373   2.136
 3528TIP3    H110506   2.238   3.357   2.049
 3528TIP3    H210507   2.359   3.422   2.112
 3529TIP3   OH210508   1.988   2.752   2.441
 3529TIP3    H110509   1.953   2.750   2.532
 3529TIP3    H210510   1.944   2.673   2.405
 3530TIP3   OH210511   1.776   3.220   3.488
 3530TIP3    H110512   1.722   3.242   3.567
 3530TIP3    H210513   1.763   3.303   3.435
 3531TIP3   OH210514   1.658   3.111   2.999
 3531TIP3    H110515   1.566   3.087   3.021
 3531TIP3    H210516   1.667   3.069   2.911
 3532TIP3   OH210517   2.146   3.195   2.730
 3532TIP3    H110518   2.096   3.267   2.687
 3532TIP3    H210519   2.201   3.162   2.656
 3533TIP3   OH210520   2.321   3.469   3.809
 3533TIP3    H110521   2.298   3.399   3.874
 3533TIP3    H210522   2.414   3.487   3.835
 3534TIP3   OH210523   2.304   3.221   2.965
 3534TIP3    H110524   2.239   3.250   2.898
 3534TIP3    H210525   2.337   3.142   2.919
 3535TIP3   OH210526   1.593   3.257   3.686
 3535TIP3    H110527   1.600   3.324   3.756
 3535TIP3    H210528   1.553   3.182   3.734
 3536TIP3   OH210529   1.643   2.732   2.403
 3536TIP3    H110530   1.632   2.734   2.500
 3536TIP3    H210531   1.567   2.786   2.375
 3537TIP3   OH210532   1.191   2.766   3.271
 3537TIP3    H110533   1.254   2.807   3.334
 3537TIP3    H210534   1.248   2.748   3.195
 3538TIP3   OH210535   1.134   2.760   2.794
 3538TIP3    H110536   1.185   2.799   2.719
 3538TIP3    H210537   1.090   2.841   2.827
 3539TIP3   OH210538   2.317   3.468   3.386
 3539TIP3    H110539   2.350   3.396   3.327
 3539TIP3    H210540   2.284   3.415   3.461
 3540TIP3   OH210541   1.989   2.924   3.059
 3540TIP3    H110542   1.906   2.928   3.111
 3540TIP3    H210543   2.056   2.929   3.129
 3541TIP3   OH210544   1.422   2.990   3.064
 3541TIP3    H110545   1.327   2.999   3.040
 3541TIP3    H210546   1.443   2.897   3.042
 3542TIP3   OH210547   1.683   2.980   2.759
 3542TIP3    H110548   1.775   3.001   2.737
 3542TIP3    H210549   1.634   3.005   2.677
 3543TIP3   OH210550   2.476   3.006   3.256
 3543TIP3    H110551   2.453   3.020   3.351
 3543TIP3    H210552   2.402   2.948   3.228
 3544TIP3   OH210553   1.537   3.015   2.533
 3544TIP3    H110554   1.468   2.972   2.479
 3544TIP3    H210555   1.590   3.058   2.462
 3545TIP3   OH210556   2.652   4.696   3.486
 3545TIP3    H110557   2.647   4.725   3.393
 3545TIP3    H210558   2.730   4.746   3.518
 3546TIP3   OH210559   1.604   3.805   3.901
 3546TIP3    H110560   1.682   3.837   3.950
 3546TIP3    H210561   1.537   3.807   3.972
 3547TIP3   OH210562   2.064   3.261   3.161
 3547TIP3    H110563   2.142   3.222   3.118
 3547TIP3    H210564   2.066   3.221   3.250
 3548TIP3   OH210565   1.582   2.747   3.042
 3548TIP3    H110566   1.546   2.670   3.092
 3548TIP3    H210567   1.627   2.704   2.969
 3549TIP3   OH210568   2.044   3.166   3.442
 3549TIP3    H110569   1.952   3.196   3.460
 3549TIP3    H210570   2.098   3.227   3.496
 3550TIP3   OH210571   1.781   3.546   2.544
 3550TIP3    H110572   1.707   3.482   2.530
 3550TIP3    H210573   1.759   3.581   2.633
 3551TIP3   OH210574   2.677   3.783   3.169
 3551TIP3    H110575   2.697   3.836   3.089
 3551TIP3    H210576   2.592   3.740   3.145
 3552TIP3   OH210577   2.237   2.858   2.411
 3552TIP3    H110578   2.141   2.838   2.419
 3552TIP3    H210579   2.243   2.952   2.435
 3553TIP3   OH210580   2.185   3.870   3.540
 3553TIP3    H110581   2.204   3.851   3.633
 3553TIP3    H210582   2.139   3.956   3.544
 3554TIP3   OH210583   2.304   3.108   2.512
 3554TIP3    H110584   2.400   3.118   2.527
 3554TIP3    H210585   2.282   3.189   2.462
 3555TIP3   OH210586   1.478   3.578   3.216
 3555TIP3    H110587   1.520   3.538   3.137
 3555TIP3    H210588   1.501   3.516   3.287
 3556TIP3   OH210589   1.925   3.699   2.369
 3556TIP3    H110590   1.876   3.784   2.371
 3556TIP3    H210591   1.870   3.643   2.428
 3557TIP3   OH210592   1.350   3.465   3.829
 3557TIP3    H110593   1.359   3.465   3.926
 3557TIP3    H210594   1.305   3.380   3.815
 3558TIP3   OH210595   2.080   3.609   3.850
 3558TIP3    H110596   2.014   3.546   3.815
 3558TIP3    H210597   2.164   3.569   3.819
 3559TIP3   OH210598   2.338   4.131   3.433
 3559TIP3    H110599   2.242   4.124   3.449
 3559TIP3    H210600   2.366   4.180   3.514
 3560TIP3   OH210601   2.746   3.203   2.344
 3560TIP3    H110602   2.685   3.158   2.280
 3560TIP3    H210603   2.741   3.293   2.306
 3561TIP3   OH210604   2.968   4.061   3.423
 3561TIP3    H110605   2.870   4.054   3.416
 3561TIP3    H210606   2.993   4.029   3.333
 3562TIP3   OH210607   2.459   4.019   2.258
 3562TIP3    H110608   2.420   3.955   2.320
 3562TIP3    H210609   2.462   3.969   2.175
 3563TIP3   OH210610   2.446   3.649   3.082
 3563TIP3    H110611   2.352   3.625   3.100
 3563TIP3    H210612   2.477   3.567   3.039
 3564TIP3   OH210613   1.573   3.875   2.837
 3564TIP3    H110614   1.566   3.958   2.786
 3564TIP3    H210615   1.482   3.861   2.865
 3565TIP3   OH210616   1.143   3.176   2.556
 3565TIP3    H110617   1.185   3.263   2.575
 3565TIP3    H210618   1.063   3.181   2.612
 3566TIP3   OH210619   1.706   3.639   2.784
 3566TIP3    H110620   1.670   3.728   2.802
 3566TIP3    H210621   1.671   3.589   2.860
 3567TIP3   OH210622   1.845   4.218   3.312
 3567TIP3    H110623   1.886   4.294   3.266
 3567TIP3    H210624   1.920   4.181   3.361
 3568TIP3   OH210625   1.490   4.114   2.694
 3568TIP3    H110626   1.405   4.122   2.742
 3568TIP3    H210627   1.523   4.207   2.698
 3569TIP3   OH210628   2.228   3.851   3.273
 3569TIP3    H110629   2.215   3.854   3.371
 3569TIP3    H210630   2.308   3.798   3.266
 3570TIP3   OH210631   2.208   3.750   2.153
 3570TIP3    H110632   2.260   3.723   2.232
 3570TIP3    H210633   2.119   3.720   2.180
 3571TIP3   OH210634   2.480   4.379   3.320
 3571TIP3    H110635   2.400   4.323   3.320
 3571TIP3    H210636   2.459   4.444   3.249
 3572TIP3   OH210637   2.543   4.218   1.972
 3572TIP3    H110638   2.573   4.290   1.914
 3572TIP3    H210639   2.464   4.261   2.011
 3573TIP3   OH210640   1.562   2.988   3.839
 3573TIP3    H110641   1.469   3.014   3.852
 3573TIP3    H210642   1.582   2.939   3.920
 3574TIP3   OH210643   2.369   3.674   2.362
 3574TIP3    H110644   2.357   3.613   2.438
 3574TIP3    H210645   2.467   3.673   2.355
 3575TIP3   OH210646   1.282   4.078   3.470
 3575TIP3    H110647   1.336   4.009   3.514
 3575TIP3    H210648   1.303   4.156   3.523
 3576TIP3   OH210649   1.571   3.725   2.155
 3576TIP3    H110650   1.582   3.632   2.130
 3576TIP3    H210651   1.550   3.718   2.250
 3577TIP3   OH210652   1.514   3.732   2.425
 3577TIP3    H110653   1.583   3.706   2.487
 3577TIP3    H210654   1.516   3.830   2.434
 3578TIP3   OH210655   1.247   3.423   2.632
 3578TIP3    H110656   1.181   3.469   2.689
 3578TIP3    H210657   1.259   3.491   2.563
 3579TIP3   OH210658   2.415   3.051   3.516
 3579TIP3    H110659   2.483   3.099   3.566
 3579TIP3    H210660   2.396   2.974   3.575
 3580TIP3   OH210661   2.290   2.805   2.692
 3580TIP3    H110662   2.272   2.829   2.600
 3580TIP3    H210663   2.327   2.888   2.728
 3581TIP3   OH210664   1.783   3.929   2.373
 3581TIP3    H110665   1.696   3.950   2.412
 3581TIP3    H210666   1.796   4.006   2.317
 3582TIP3   OH210667   1.968   2.992   2.790
 3582TIP3    H110668   2.030   3.066   2.774
 3582TIP3    H210669   1.974   2.984   2.888
 3583TIP3   OH210670   2.243   3.309   3.594
 3583TIP3    H110671   2.262   3.367   3.671
 3583TIP3    H210672   2.292   3.229   3.618
 3584TIP3   OH210673   2.111   2.712   2.891
 3584TIP3    H110674   2.097   2.791   2.947
 3584TIP3    H210675   2.175   2.748   2.825
 3585TIP3   OH210676   1.530   4.004   2.446
 3585TIP3    H110677   1.499   4.074   2.385
 3585TIP3    H210678   1.512   4.045   2.533
 3586TIP3   OH210679   1.626   2.718   2.681
 3586TIP3    H110680   1.622   2.809   2.718
 3586TIP3    H210681   1.723   2.702   2.689
 3587TIP3   OH210682   2.877   3.208   3.578
 3587TIP3    H110683   2.779   3.209   3.589
 3587TIP3    H210684   2.884   3.165   3.492
 3588TIP3   OH210685   2.531   3.402   2.964
 3588TIP3    H110686   2.452   3.346   2.979
 3588TIP3    H210687   2.600   3.355   3.015
 3589TIP3   OH210688   1.245   3.626   2.435
 3589TIP3    H110689   1.314   3.695   2.445
 3589TIP3    H210690   1.289   3.569   2.368
 3590TIP3   OH210691   1.172   2.900   2.568
 3590TIP3    H110692   1.179   2.998   2.568
 3590TIP3    H210693   1.130   2.884   2.481
 3591TIP3   OH210694   2.504   4.364   2.912
 3591TIP3    H110695   2.459   4.410   2.837
 3591TIP3    H210696   2.597   4.377   2.887
 3592TIP3   OH210697   1.578   2.629   3.437
 3592TIP3    H110698   1.546   2.595   3.351
 3592TIP3    H210699   1.566   2.551   3.496
 3593TIP3   OH210700   1.107   3.842   2.818
 3593TIP3    H110701   1.051   3.874   2.889
 3593TIP3    H210702   1.071   3.889   2.740
 3594TIP3   OH210703   1.274   4.396   3.902
 3594TIP3    H110704   1.358   4.398   3.954
 3594TIP3    H210705   1.258   4.301   3.896
 3595TIP3   OH210706   1.742   4.330   3.959
 3595TIP3    H110707   1.836   4.349   3.951
 3595TIP3    H210708   1.724   4.278   3.878
 3596TIP3   OH210709   1.733   3.927   2.062
 3596TIP3    H110710   1.676   3.857   2.102
 3596TIP3    H210711   1.808   3.873   2.033
 3597TIP3   OH210712   2.398   4.258   3.668
 3597TIP3    H110713   2.389   4.190   3.739
 3597TIP3    H210714   2.471   4.313   3.703
 3598TIP3   OH210715   2.169   3.966   1.981
 3598TIP3    H110716   2.205   3.898   2.041
 3598TIP3    H210717   2.227   3.960   1.903
 3599TIP3   OH210718   1.401   3.798   4.094
 3599TIP3    H110719   1.417   3.702   4.096
 3599TIP3    H210720   1.314   3.802   4.047
 3600TIP3   OH210721   1.383   3.442   2.291
 3600TIP3    H110722   1.440   3.415   2.365
 3600TIP3    H210723   1.450   3.448   2.219
 3601TIP3   OH210724   2.011   3.886   3.867
 3601TIP3    H110725   1.964   3.906   3.784
 3601TIP3    H210726   2.038   3.792   3.855
 3602TIP3   OH210727   1.902   3.649   2.098
 3602TIP3    H110728   1.898   3.660   2.196
 3602TIP3    H210729   1.901   3.551   2.091
 3603TIP3   OH210730   2.502   3.894   3.475
 3603TIP3    H110731   2.575   3.942   3.433
 3603TIP3    H210732   2.428   3.956   3.463
 3604TIP3   OH210733   1.521   3.542   4.076
 3604TIP3    H110734   1.591   3.480   4.051
 3604TIP3    H210735   1.550   3.569   4.165
 3605TIP3   OH210736   1.583   3.354   2.507
 3605TIP3    H110737   1.555   3.318   2.593
 3605TIP3    H210738   1.622   3.276   2.462
 3606TIP3   OH210739   1.866   3.424   3.746
 3606TIP3    H110740   1.781   3.472   3.743
 3606TIP3    H210741   1.910   3.456   3.663
 3607TIP3   OH210742   1.690   3.146   2.350
 3607TIP3    H110743   1.665   3.155   2.256
 3607TIP3    H210744   1.788   3.150   2.343
 3608TIP3   OH210745   2.374   3.817   3.872
 3608TIP3    H110746   2.452   3.783   3.826
 3608TIP3    H210747   2.365   3.754   3.946
 3609TIP3   OH210748   2.510   3.473   2.017
 3609TIP3    H110749   2.488   3.430   1.932
 3609TIP3    H210750   2.476   3.564   1.997
 3610TIP3   OH210751   1.985   3.207   3.860
 3610TIP3    H110752   1.978   3.129   3.801
 3610TIP3    H210753   1.939   3.276   3.807
 3611TIP3   OH210754   1.984   2.989   3.668
 3611TIP3    H110755   2.009   3.034   3.585
 3611TIP3    H210756   1.889   2.969   3.653
 3612TIP3   OH210757   2.007   3.524   3.540
 3612TIP3    H110758   2.092   3.546   3.499
 3612TIP3    H210759   1.947   3.589   3.497
 3613TIP3   OH210760   2.585   3.489   3.920
 3613TIP3    H110761   2.635   3.413   3.952
 3613TIP3    H210762   2.656   3.549   3.891
 3614TIP3   OH210763   2.632   3.744   3.658
 3614TIP3    H110764   2.573   3.799   3.602
 3614TIP3    H210765   2.719   3.767   3.619
 3615TIP3   OH210766   1.863   3.309   4.098
 3615TIP3    H110767   1.794   3.241   4.114
 3615TIP3    H210768   1.892   3.287   4.008
 3616TIP3   OH210769   2.113   2.751   3.742
 3616TIP3    H110770   2.065   2.834   3.718
 3616TIP3    H210771   2.043   2.684   3.731
 3617TIP3   OH210772   2.242   3.253   3.955
 3617TIP3    H110773   2.226   3.240   4.050
 3617TIP3    H210774   2.152   3.232   3.921
 3618TIP3   OH210775   2.475   3.196   3.806
 3618TIP3    H110776   2.402   3.206   3.871
 3618TIP3    H210777   2.551   3.173   3.864
 3619TIP3   OH210778   2.710   3.146   3.953
 3619TIP3    H110779   2.721   3.052   3.975
 3619TIP3    H210780   2.701   3.188   4.042
 3620TIP3   OH210781   1.706   3.086   4.150
 3620TIP3    H110782   1.707   2.994   4.118
 3620TIP3    H210783   1.739   3.075   4.242
 3621TIP3   OH210784   2.206   2.760   4.001
 3621TIP3    H110785   2.272   2.689   3.992
 3621TIP3    H210786   2.165   2.758   3.911
 3622TIP3   OH210787   2.274   2.976   4.159
 3622TIP3    H110788   2.251   2.907   4.094
 3622TIP3    H210789   2.197   3.037   4.153
 3623TIP3   OH210790   1.499   4.208   2.258
 3623TIP3    H110791   1.594   4.197   2.236
 3623TIP3    H210792   1.470   4.259   2.180
 3624TIP3   OH210793   0.975   3.591   2.468
 3624TIP3    H110794   1.071   3.611   2.456
 3624TIP3    H210795   0.970   3.501   2.429
 3625TIP3   OH210796   0.895   4.199   2.891
 3625TIP3    H110797   0.828   4.139   2.851
 3625TIP3    H210798   0.938   4.139   2.955
 3626TIP3   OH210799   1.029   4.042   3.074
 3626TIP3    H110800   1.018   3.975   3.144
 3626TIP3    H210801   1.080   4.108   3.124
 3627TIP3   OH210802   2.770   4.440   2.877
 3627TIP3    H110803   2.777   4.464   2.972
 3627TIP3    H210804   2.788   4.524   2.834
 3628TIP3   OH210805   2.785   4.465   3.154
 3628TIP3    H110806   2.737   4.379   3.155
 3628TIP3    H210807   2.850   4.448   3.224
 3629TIP3   OH210808   2.830   4.148   3.728
 3629TIP3    H110809   2.758   4.157   3.794
 3629TIP3    H210810   2.873   4.236   3.734
 3630TIP3   OH210811   2.649   3.657   2.348
 3630TIP3    H110812   2.713   3.724   2.318
 3630TIP3    H210813   2.693   3.621   2.428
 3631TIP3   OH210814   2.777   3.526   2.554
 3631TIP3    H110815   2.707   3.485   2.610
 3631TIP3    H210816   2.838   3.564   2.620
 3632TIP3   OH210817   2.834   3.924   2.985
 3632TIP3    H110818   2.885   3.854   2.941
 3632TIP3    H210819   2.815   3.986   2.913
 3633TIP3   OH210820   2.656   4.222   3.175
 3633TIP3    H110821   2.586   4.263   3.229
 3633TIP3    H210822   2.604   4.176   3.106
 3634TIP3   OH210823   2.711   3.436   2.197
 3634TIP3    H110824   2.640   3.438   2.129
 3634TIP3    H210825   2.682   3.511   2.253
 3635TIP3   OH210826   2.587   3.105   2.146
 3635TIP3    H110827   2.533   3.146   2.077
 3635TIP3    H210828   2.563   3.011   2.135
 3636TIP3   OH210829   2.587   3.388   2.696
 3636TIP3    H110830   2.592   3.291   2.689
 3636TIP3    H210831   2.571   3.400   2.793
 3637TIP3   OH210832   1.219   3.497   3.417
 3637TIP3    H110833   1.212   3.442   3.337
 3637TIP3    H210834   1.310   3.476   3.447
 3638TIP3   OH210835   2.879   3.812   3.555
 3638TIP3    H110836   2.949   3.744   3.543
 3638TIP3    H210837   2.904   3.880   3.491
 3639TIP3   OH210838   3.061   3.610   3.556
 3639TIP3    H110839   2.986   3.563   3.599
 3639TIP3    H210840   3.134   3.547   3.576
 3640TIP3   OH210841   2.527   2.838   2.126
 3640TIP3    H110842   2.594   2.809   2.191
 3640TIP3    H210843   2.448   2.786   2.150
 3641TIP3   OH210844   2.585   3.104   2.589
 3641TIP3    H110845   2.626   3.015   2.603
 3641TIP3    H210846   2.642   3.137   2.518
 3642TIP3   OH210847   2.742   3.268   3.088
 3642TIP3    H110848   2.827   3.294   3.046
 3642TIP3    H210849   2.755   3.308   3.176
 3643TIP3   OH210850   2.814   3.419   3.315
 3643TIP3    H110851   2.738   3.451   3.368
 3643TIP3    H210852   2.846   3.502   3.273
 3644TIP3   OH210853   1.444   3.160   4.143
 3644TIP3    H110854   1.540   3.140   4.138
 3644TIP3    H210855   1.407   3.070   4.153
 3645TIP3   OH210856   3.265   3.013   3.872
 3645TIP3    H110857   3.327   2.950   3.829
 3645TIP3    H210858   3.234   3.066   3.796
 3646TIP3   OH210859   2.694   2.853   2.627
 3646TIP3    H110860   2.740   2.837   2.711
 3646TIP3    H210861   2.631   2.778   2.626
 3647TIP3   OH210862   1.387   2.835   3.452
 3647TIP3    H110863   1.454   2.765   3.458
 3647TIP3    H210864   1.444   2.914   3.447
 3648TIP3   OH210865   3.134   3.149   3.677
 3648TIP3    H110866   3.052   3.193   3.707
 3648TIP3    H210867   3.096   3.079   3.621
 3649TIP3   OH210868   2.769   2.782   2.267
 3649TIP3    H110869   2.810   2.715   2.210
 3649TIP3    H210870   2.834   2.855   2.264
 3650TIP3   OH210871   1.176   2.596   3.007
 3650TIP3    H110872   1.093   2.599   3.057
 3650TIP3    H210873   1.161   2.662   2.937
 3651TIP3   OH210874   2.341   4.317   2.530
 3651TIP3    H110875   2.393   4.310   2.447
 3651TIP3    H210876   2.386   4.388   2.578
 3652TIP3   OH210877   1.396   2.681   3.833
 3652TIP3    H110878   1.352   2.688   3.920
 3652TIP3    H210879   1.334   2.734   3.779
 3653TIP3   OH210880   1.441   4.114   3.905
 3653TIP3    H110881   1.345   4.095   3.898
 3653TIP3    H210882   1.452   4.130   3.999
 3654TIP3   OH210883   1.618   4.155   3.457
 3654TIP3    H110884   1.568   4.231   3.421
 3654TIP3    H210885   1.703   4.172   3.413
 3655TIP3   OH210886   2.073   4.379   3.594
 3655TIP3    H110887   2.106   4.389   3.685
 3655TIP3    H210888   2.127   4.446   3.546
 3656TIP3   OH210889   2.239   4.555   3.461
 3656TIP3    H110890   2.311   4.500   3.427
 3656TIP3    H210891   2.288   4.613   3.523
 3657TIP3   OH210892   3.035   2.912   3.557
 3657TIP3    H110893   2.944   2.904   3.523
 3657TIP3    H210894   3.067   2.819   3.548
 3658TIP3   OH210895   1.299   4.407   3.493
 3658TIP3    H110896   1.206   4.430   3.472
 3658TIP3    H210897   1.315   4.465   3.569
 3659TIP3   OH210898   1.527   4.388   3.343
 3659TIP3    H110899   1.442   4.400   3.390
 3659TIP3    H210900   1.505   4.424   3.254
 3660TIP3   OH210901   1.956   4.418   3.141
 3660TIP3    H110902   1.880   4.436   3.082
 3660TIP3    H210903   1.963   4.504   3.189
 3661TIP3   OH210904   2.223   4.355   3.190
 3661TIP3    H110905   2.127   4.372   3.175
 3661TIP3    H210906   2.261   4.437   3.156
 3662TIP3   OH210907   2.436   4.550   3.108
 3662TIP3    H110908   2.418   4.633   3.060
 3662TIP3    H210909   2.455   4.487   3.035
 3663TIP3   OH210910   1.204   4.202   3.228
 3663TIP3    H110911   1.225   4.173   3.319
 3663TIP3    H210912   1.278   4.159   3.179
 3664TIP3   OH210913   1.402   4.078   3.087
 3664TIP3    H110914   1.414   3.995   3.139
 3664TIP3    H210915   1.493   4.114   3.087
 3665TIP3   OH210916   1.669   4.169   3.094
 3665TIP3    H110917   1.697   4.075   3.090
 3665TIP3    H210918   1.715   4.194   3.177
 3666TIP3   OH210919   2.244   2.828   3.184
 3666TIP3    H110920   2.198   2.758   3.233
 3666TIP3    H210921   2.316   2.780   3.139
 3667TIP3   OH210922   2.759   2.701   3.077
 3667TIP3    H110923   2.795   2.758   3.005
 3667TIP3    H210924   2.665   2.729   3.077
 3668TIP3   OH210925   2.857   2.805   2.843
 3668TIP3    H110926   2.933   2.755   2.807
 3668TIP3    H210927   2.890   2.897   2.831
 3669TIP3   OH210928   1.487   2.534   3.190
 3669TIP3    H110929   1.395   2.500   3.196
 3669TIP3    H210930   1.536   2.449   3.186
 3670TIP3   OH210931   1.292   2.400   2.847
 3670TIP3    H110932   1.306   2.457   2.770
 3670TIP3    H210933   1.254   2.464   2.912
 3671TIP3   OH210934   1.937   2.564   3.075
 3671TIP3    H110935   1.991   2.615   3.013
 3671TIP3    H210936   1.956   2.608   3.159
 3672TIP3   OH210937   2.475   2.715   3.058
 3672TIP3    H110938   2.473   2.676   2.970
 3672TIP3    H210939   2.465   2.636   3.115
 3673TIP3   OH210940   2.509   2.641   2.621
 3673TIP3    H110941   2.426   2.689   2.641
 3673TIP3    H210942   2.492   2.556   2.666
 3674TIP3   OH210943   0.992   3.982   2.616
 3674TIP3    H110944   0.905   3.950   2.585
 3674TIP3    H210945   0.983   4.076   2.593
 3675TIP3   OH210946   1.397   2.562   2.610
 3675TIP3    H110947   1.445   2.500   2.552
 3675TIP3    H210948   1.471   2.617   2.645
 3676TIP3   OH210949   1.903   2.742   2.704
 3676TIP3    H110950   1.964   2.699   2.767
 3676TIP3    H210951   1.921   2.836   2.727
 3677TIP3   OH210952   1.764   4.160   2.202
 3677TIP3    H110953   1.852   4.184   2.166
 3677TIP3    H210954   1.742   4.085   2.142
 3678TIP3   OH210955   2.490   4.287   2.297
 3678TIP3    H110956   2.482   4.189   2.288
 3678TIP3    H210957   2.439   4.316   2.219
 3679TIP3   OH210958   1.696   2.808   4.080
 3679TIP3    H110959   1.658   2.742   4.141
 3679TIP3    H210960   1.789   2.810   4.112
 3680TIP3   OH210961   1.944   2.811   4.203
 3680TIP3    H110962   2.031   2.791   4.165
 3680TIP3    H210963   1.933   2.740   4.269
 3681TIP3   OH210964   1.067   4.000   2.257
 3681TIP3    H110965   1.067   4.018   2.352
 3681TIP3    H210966   1.155   3.957   2.243
 3682TIP3   OH210967   2.772   2.875   3.991
 3682TIP3    H110968   2.789   2.847   4.083
 3682TIP3    H210969   2.863   2.872   3.953
 3683TIP3   OH210970   2.710   4.427   3.477
 3683TIP3    H110971   2.628   4.396   3.433
 3683TIP3    H210972   2.688   4.522   3.490
 3684TIP3   OH210973   3.977   3.802   2.244
 3684TIP3    H110974   3.947   3.893   2.225
 3684TIP3    H210975   3.899   3.751   2.216
 3685TIP3   OH210976   3.969   3.802   2.639
 3685TIP3    H110977   4.010   3.783   2.725
 3685TIP3    H210978   3.932   3.715   2.615
 3686TIP3   OH210979   3.272   3.692   2.994
 3686TIP3    H110980   3.296   3.621   3.057
 3686TIP3    H210981   3.352   3.745   2.996
 3687TIP3   OH210982   4.219   4.108   2.317
 3687TIP3    H110983   4.209   4.039   2.384
 3687TIP3    H210984   4.253   4.183   2.370
 3688TIP3   OH210985   3.285   4.122   2.770
 3688TIP3    H110986   3.247   4.033   2.756
 3688TIP3    H210987   3.360   4.116   2.707
 3689TIP3   OH210988   2.953   3.307   2.498
 3689TIP3    H110989   2.905   3.389   2.520
 3689TIP3    H210990   2.882   3.256   2.456
 3690TIP3   OH210991   3.012   3.596   2.684
 3690TIP3    H110992   3.061   3.517   2.717
 3690TIP3    H210993   3.069   3.625   2.611
 3691TIP3   OH210994   3.871   4.561   2.334
 3691TIP3    H110995   3.910   4.491   2.278
 3691TIP3    H210996   3.879   4.522   2.422
 3692TIP3   OH210997   3.770   4.032   2.681
 3692TIP3    H110998   3.810   3.953   2.641
 3692TIP3    H210999   3.854   4.078   2.705
 3693TIP3   OH211000   4.182   3.528   2.707
 3693TIP3    H111001   4.228   3.445   2.731
 3693TIP3    H211002   4.152   3.507   2.617
 3694TIP3   OH211003   3.528   3.187   2.673
 3694TIP3    H111004   3.508   3.260   2.611
 3694TIP3    H211005   3.478   3.114   2.631
 3695TIP3   OH211006   4.223   3.277   2.295
 3695TIP3    H111007   4.292   3.264   2.364
 3695TIP3    H211008   4.278   3.314   2.223
 3696TIP3   OH211009   3.159   3.389   2.783
 3696TIP3    H111010   3.241   3.370   2.832
 3696TIP3    H211011   3.173   3.333   2.704
 3697TIP3   OH211012   3.597   3.587   2.578
 3697TIP3    H111013   3.692   3.563   2.591
 3697TIP3    H211014   3.559   3.502   2.546
 3698TIP3   OH211015   3.521   3.170   3.110
 3698TIP3    H111016   3.461   3.208   3.043
 3698TIP3    H211017   3.468   3.187   3.191
 3699TIP3   OH211018   3.867   4.025   2.112
 3699TIP3    H111019   3.821   4.009   2.028
 3699TIP3    H211020   3.819   4.105   2.144
 3700TIP3   OH211021   3.628   3.949   2.901
 3700TIP3    H111022   3.577   4.021   2.941
 3700TIP3    H211023   3.676   3.994   2.829
 3701TIP3   OH211024   4.422   3.286   2.479
 3701TIP3    H111025   4.400   3.254   2.568
 3701TIP3    H211026   4.478   3.363   2.500
 3702TIP3   OH211027   3.394   3.286   2.893
 3702TIP3    H111028   3.455   3.359   2.918
 3702TIP3    H211029   3.445   3.246   2.818
 3703TIP3   OH211030   3.445   4.152   2.990
 3703TIP3    H111031   3.378   4.126   2.923
 3703TIP3    H211032   3.391   4.139   3.071
 3704TIP3   OH211033   2.846   3.832   2.237
 3704TIP3    H111034   2.803   3.857   2.153
 3704TIP3    H211035   2.877   3.919   2.270
 3705TIP3   OH211036   4.283   4.350   2.475
 3705TIP3    H111037   4.193   4.341   2.515
 3705TIP3    H211038   4.277   4.438   2.433
 3706TIP3   OH211039   4.584   3.236   2.833
 3706TIP3    H111040   4.500   3.280   2.814
 3706TIP3    H211041   4.649   3.301   2.799
 3707TIP3   OH211042   3.872   2.886   2.827
 3707TIP3    H111043   3.856   2.791   2.847
 3707TIP3    H211044   3.796   2.927   2.874
 3708TIP3   OH211045   3.983   4.391   2.144
 3708TIP3    H111046   4.036   4.309   2.129
 3708TIP3    H211047   4.047   4.457   2.107
 3709TIP3   OH211048   4.132   4.174   2.064
 3709TIP3    H111049   4.077   4.097   2.044
 3709TIP3    H211050   4.174   4.146   2.149
 3710TIP3   OH211051   4.513   4.256   2.823
 3710TIP3    H111052   4.502   4.179   2.763
 3710TIP3    H211053   4.497   4.332   2.762
 3711TIP3   OH211054   3.803   3.652   2.084
 3711TIP3    H111055   3.724   3.705   2.063
 3711TIP3    H211056   3.850   3.651   1.998
 3712TIP3   OH211057   3.762   3.442   1.791
 3712TIP3    H111058   3.828   3.491   1.844
 3712TIP3    H211059   3.821   3.378   1.745
 3713TIP3   OH211060   4.715   3.902   2.682
 3713TIP3    H111061   4.627   3.945   2.679
 3713TIP3    H211062   4.742   3.907   2.588
 3714TIP3   OH211063   4.156   3.735   2.049
 3714TIP3    H111064   4.101   3.760   2.128
 3714TIP3    H211065   4.240   3.711   2.094
 3715TIP3   OH211066   4.381   3.775   2.983
 3715TIP3    H111067   4.380   3.857   3.037
 3715TIP3    H211068   4.298   3.784   2.934
 3716TIP3   OH211069   3.386   3.732   2.470
 3716TIP3    H111070   3.346   3.673   2.402
 3716TIP3    H211071   3.462   3.679   2.502
 3717TIP3   OH211072   3.516   4.163   2.634
 3717TIP3    H111073   3.499   4.142   2.541
 3717TIP3    H211074   3.604   4.120   2.646
 3718TIP3   OH211075   3.522   3.704   2.823
 3718TIP3    H111076   3.555   3.678   2.735
 3718TIP3    H211077   3.567   3.789   2.840
 3719TIP3   OH211078   4.042   4.342   2.599
 3719TIP3    H111079   4.035   4.423   2.653
 3719TIP3    H211080   4.030   4.270   2.664
 3720TIP3   OH211081   3.661   4.264   3.147
 3720TIP3    H111082   3.604   4.322   3.201
 3720TIP3    H211083   3.595   4.215   3.096
 3721TIP3   OH211084   3.991   3.593   1.882
 3721TIP3    H111085   4.050   3.653   1.933
 3721TIP3    H211086   4.022   3.610   1.790
 3722TIP3   OH211087   3.415   3.819   3.247
 3722TIP3    H111088   3.420   3.905   3.295
 3722TIP3    H211089   3.322   3.795   3.266
 3723TIP3   OH211090   3.738   4.270   2.154
 3723TIP3    H111091   3.822   4.319   2.159
 3723TIP3    H211092   3.681   4.333   2.109
 3724TIP3   OH211093   3.448   4.418   3.242
 3724TIP3    H111094   3.388   4.427   3.168
 3724TIP3    H211095   3.383   4.401   3.314
 3725TIP3   OH211096   4.509   2.832   1.927
 3725TIP3    H111097   4.428   2.854   1.978
 3725TIP3    H211098   4.524   2.915   1.878
 3726TIP3   OH211099   3.254   3.576   2.269
 3726TIP3    H111100   3.183   3.619   2.217
 3726TIP3    H211101   3.217   3.489   2.286
 3727TIP3   OH211102   4.310   4.196   1.473
 3727TIP3    H111103   4.316   4.293   1.461
 3727TIP3    H211104   4.404   4.170   1.460
 3728TIP3   OH211105   3.035   3.961   3.179
 3728TIP3    H111106   2.963   3.939   3.117
 3728TIP3    H211107   3.070   3.873   3.203
 3729TIP3   OH211108   2.886   4.164   2.802
 3729TIP3    H111109   2.977   4.161   2.832
 3729TIP3    H211110   2.849   4.235   2.856
 3730TIP3   OH211111   4.753   4.607   2.872
 3730TIP3    H111112   4.752   4.510   2.889
 3730TIP3    H211113   4.670   4.633   2.917
 3731TIP3   OH211114   3.853   4.393   2.999
 3731TIP3    H111115   3.853   4.485   3.033
 3731TIP3    H211116   3.787   4.351   3.059
 3732TIP3   OH211117   3.622   4.514   1.958
 3732TIP3    H111118   3.575   4.499   1.875
 3732TIP3    H211119   3.590   4.602   1.985
 3733TIP3   OH211120   3.055   4.361   2.336
 3733TIP3    H111121   3.077   4.332   2.426
 3733TIP3    H211122   2.997   4.287   2.308
 3734TIP3   OH211123   3.820   4.421   1.594
 3734TIP3    H111124   3.878   4.350   1.560
 3734TIP3    H211125   3.854   4.432   1.685
 3735TIP3   OH211126   3.873   4.469   1.863
 3735TIP3    H111127   3.784   4.477   1.905
 3735TIP3    H211128   3.926   4.435   1.937
 3736TIP3   OH211129   4.639   3.732   3.147
 3736TIP3    H111130   4.557   3.740   3.096
 3736TIP3    H211131   4.662   3.637   3.130
 3737TIP3   OH211132   3.235   4.146   3.166
 3737TIP3    H111133   3.281   4.132   3.252
 3737TIP3    H211134   3.163   4.080   3.172
 3738TIP3   OH211135   3.637   2.965   2.958
 3738TIP3    H111136   3.548   2.936   2.928
 3738TIP3    H211137   3.610   3.046   3.007
 3739TIP3   OH211138   4.174   3.077   3.150
 3739TIP3    H111139   4.243   3.052   3.215
 3739TIP3    H211140   4.091   3.061   3.199
 3740TIP3   OH211141   4.408   3.503   3.059
 3740TIP3    H111142   4.365   3.504   3.147
 3740TIP3    H211143   4.392   3.594   3.027
 3741TIP3   OH211144   4.078   3.632   1.628
 3741TIP3    H111145   4.044   3.616   1.538
 3741TIP3    H211146   4.122   3.717   1.620
 3742TIP3   OH211147   3.783   3.012   1.928
 3742TIP3    H111148   3.748   3.009   2.019
 3742TIP3    H211149   3.742   2.931   1.892
 3743TIP3   OH211150   3.569   3.482   2.974
 3743TIP3    H111151   3.519   3.503   3.056
 3743TIP3    H211152   3.553   3.564   2.921
 3744TIP3   OH211153   3.452   3.369   2.486
 3744TIP3    H111154   3.360   3.342   2.507
 3744TIP3    H211155   3.463   3.326   2.399
 3745TIP3   OH211156   3.942   3.452   2.217
 3745TIP3    H111157   3.892   3.523   2.173
 3745TIP3    H211158   3.998   3.418   2.144
 3746TIP3   OH211159   4.117   3.727   3.298
 3746TIP3    H111160   4.096   3.655   3.361
 3746TIP3    H211161   4.211   3.743   3.320
 3747TIP3   OH211162   4.098   3.476   2.452
 3747TIP3    H111163   4.036   3.504   2.383
 3747TIP3    H211164   4.135   3.397   2.407
 3748TIP3   OH211165   3.387   3.508   3.181
 3748TIP3    H111166   3.418   3.570   3.249
 3748TIP3    H211167   3.375   3.426   3.232
 3749TIP3   OH211168   3.440   2.989   1.891
 3749TIP3    H111169   3.429   2.988   1.988
 3749TIP3    H211170   3.363   3.042   1.864
 3750TIP3   OH211171   2.983   3.028   2.761
 3750TIP3    H111172   3.055   3.063   2.818
 3750TIP3    H211173   3.030   3.001   2.681
 3751TIP3   OH211174   2.944   3.011   2.280
 3751TIP3    H111175   2.989   3.048   2.202
 3751TIP3    H211176   2.883   3.085   2.300
 3752TIP3   OH211177   4.100   3.725   2.872
 3752TIP3    H111178   4.138   3.656   2.813
 3752TIP3    H211179   4.075   3.670   2.949
 3753TIP3   OH211180   3.784   3.185   2.545
 3753TIP3    H111181   3.704   3.187   2.602
 3753TIP3    H211182   3.856   3.181   2.611
 3754TIP3   OH211183   3.215   3.248   2.553
 3754TIP3    H111184   3.120   3.256   2.525
 3754TIP3    H211185   3.237   3.155   2.532
 3755TIP3   OH211186   3.478   3.238   2.247
 3755TIP3    H111187   3.572   3.255   2.226
 3755TIP3    H211188   3.431   3.261   2.164
 3756TIP3   OH211189   4.266   3.266   2.745
 3756TIP3    H111190   4.241   3.279   2.839
 3756TIP3    H211191   4.196   3.206   2.716
 3757TIP3   OH211192   3.331   3.276   2.021
 3757TIP3    H111193   3.260   3.230   1.973
 3757TIP3    H211194   3.382   3.314   1.947
 3758TIP3   OH211195   4.448   4.953   2.973
 3758TIP3    H111196   4.446   4.983   2.881
 3758TIP3    H211197   4.523   5.004   3.009
 3759TIP3   OH211198   3.400   4.069   3.386
 3759TIP3    H111199   3.480   4.095   3.437
 3759TIP3    H211200   3.335   4.063   3.459
 3760TIP3   OH211201   3.861   3.520   2.645
 3760TIP3    H111202   3.938   3.482   2.599
 3760TIP3    H211203   3.866   3.477   2.733
 3761TIP3   OH211204   3.379   3.005   2.530
 3761TIP3    H111205   3.342   2.928   2.580
 3761TIP3    H211206   3.426   2.960   2.459
 3762TIP3   OH211207   3.839   3.421   2.932
 3762TIP3    H111208   3.749   3.456   2.950
 3762TIP3    H211209   3.896   3.481   2.984
 3763TIP3   OH211210   3.575   3.805   2.029
 3763TIP3    H111211   3.503   3.739   2.016
 3763TIP3    H211212   3.552   3.839   2.119
 3764TIP3   OH211213   4.475   4.042   2.654
 3764TIP3    H111214   4.501   4.093   2.574
 3764TIP3    H211215   4.391   4.000   2.625
 3765TIP3   OH211216   4.030   3.119   1.888
 3765TIP3    H111217   3.936   3.096   1.904
 3765TIP3    H211218   4.039   3.210   1.922
 3766TIP3   OH211219   3.966   4.120   3.030
 3766TIP3    H111220   4.013   4.105   3.113
 3766TIP3    H211221   3.938   4.213   3.036
 3767TIP3   OH211222   4.101   3.363   1.999
 3767TIP3    H111223   4.197   3.369   2.017
 3767TIP3    H211224   4.084   3.446   1.951
 3768TIP3   OH211225   3.275   3.847   2.704
 3768TIP3    H111226   3.308   3.809   2.620
 3768TIP3    H211227   3.307   3.781   2.768
 3769TIP3   OH211228   3.721   3.955   1.853
 3769TIP3    H111229   3.672   4.040   1.856
 3769TIP3    H211230   3.666   3.900   1.914
 3770TIP3   OH211231   3.153   3.747   3.317
 3770TIP3    H111232   3.169   3.734   3.413
 3770TIP3    H211233   3.082   3.682   3.301
 3771TIP3   OH211234   3.879   3.866   3.336
 3771TIP3    H111235   3.818   3.802   3.296
 3771TIP3    H211236   3.966   3.828   3.309
 3772TIP3   OH211237   4.130   4.381   2.924
 3772TIP3    H111238   4.034   4.386   2.937
 3772TIP3    H211239   4.162   4.433   3.001
 3773TIP3   OH211240   4.537   3.458   1.834
 3773TIP3    H111241   4.477   3.415   1.769
 3773TIP3    H211242   4.537   3.548   1.796
 3774TIP3   OH211243   4.764   4.317   2.911
 3774TIP3    H111244   4.666   4.310   2.904
 3774TIP3    H211245   4.789   4.285   2.821
 3775TIP3   OH211246   4.243   4.277   1.740
 3775TIP3    H111247   4.219   4.212   1.808
 3775TIP3    H211248   4.258   4.222   1.661
 3776TIP3   OH211249   4.239   3.908   2.565
 3776TIP3    H111250   4.146   3.881   2.582
 3776TIP3    H211251   4.275   3.825   2.528
 3777TIP3   OH211252   3.369   4.140   2.342
 3777TIP3    H111253   3.367   4.217   2.282
 3777TIP3    H211254   3.282   4.102   2.327
 3778TIP3   OH211255   2.938   3.434   2.041
 3778TIP3    H111256   2.980   3.520   2.062
 3778TIP3    H211257   2.859   3.438   2.099
 3779TIP3   OH211258   3.497   3.898   2.270
 3779TIP3    H111259   3.472   3.988   2.299
 3779TIP3    H211260   3.466   3.844   2.346
 3780TIP3   OH211261   3.634   4.470   2.789
 3780TIP3    H111262   3.677   4.542   2.738
 3780TIP3    H211263   3.708   4.441   2.845
 3781TIP3   OH211264   3.290   4.373   2.184
 3781TIP3    H111265   3.203   4.384   2.227
 3781TIP3    H211266   3.324   4.465   2.186
 3782TIP3   OH211267   4.022   4.111   2.761
 3782TIP3    H111268   4.011   4.107   2.859
 3782TIP3    H211269   4.105   4.062   2.750
 3783TIP3   OH211270   4.005   3.998   1.640
 3783TIP3    H111271   4.057   3.976   1.721
 3783TIP3    H211272   3.915   3.977   1.669
 3784TIP3   OH211273   4.274   4.637   2.806
 3784TIP3    H111274   4.193   4.583   2.802
 3784TIP3    H211275   4.258   4.703   2.736
 3785TIP3   OH211276   4.338   4.474   1.459
 3785TIP3    H111277   4.373   4.550   1.409
 3785TIP3    H211278   4.258   4.516   1.497
 3786TIP3   OH211279   3.358   3.252   3.322
 3786TIP3    H111280   3.262   3.257   3.338
 3786TIP3    H211281   3.388   3.202   3.400
 3787TIP3   OH211282   4.167   3.924   1.846
 3787TIP3    H111283   4.156   3.867   1.926
 3787TIP3    H211284   4.265   3.929   1.843
 3788TIP3   OH211285   3.113   4.335   2.957
 3788TIP3    H111286   3.142   4.267   3.020
 3788TIP3    H211287   3.094   4.410   3.016
 3789TIP3   OH211288   3.368   3.982   1.642
 3789TIP3    H111289   3.378   3.888   1.616
 3789TIP3    H211290   3.345   3.973   1.737
 3790TIP3   OH211291   3.310   3.988   1.913
 3790TIP3    H111292   3.385   3.961   1.968
 3790TIP3    H211293   3.314   4.086   1.921
 3791TIP3   OH211294   3.045   3.680   2.119
 3791TIP3    H111295   2.977   3.724   2.174
 3791TIP3    H211296   3.056   3.748   2.049
 3792TIP3   OH211297   4.203   3.313   3.007
 3792TIP3    H111298   4.281   3.359   3.044
 3792TIP3    H211299   4.193   3.235   3.065
 3793TIP3   OH211300   4.085   3.063   2.179
 3793TIP3    H111301   4.070   3.089   2.087
 3793TIP3    H211302   4.125   3.144   2.218
 3794TIP3   OH211303   3.580   4.185   1.861
 3794TIP3    H111304   3.492   4.208   1.898
 3794TIP3    H211305   3.595   4.261   1.804
 3795TIP3   OH211306   3.761   3.251   2.277
 3795TIP3    H111307   3.826   3.323   2.262
 3795TIP3    H211308   3.769   3.239   2.375
 3796TIP3   OH211309   4.038   3.564   3.082
 3796TIP3    H111310   4.063   3.618   3.160
 3796TIP3    H211311   4.092   3.484   3.095
 3797TIP3   OH211312   3.908   2.967   2.376
 3797TIP3    H111313   3.903   3.043   2.437
 3797TIP3    H211314   3.972   3.002   2.310
 3798TIP3   OH211315   3.326   4.260   1.933
 3798TIP3    H111316   3.296   4.329   1.870
 3798TIP3    H211317   3.310   4.305   2.019
 3799TIP3   OH211318   3.423   2.975   2.167
 3799TIP3    H111319   3.419   3.064   2.206
 3799TIP3    H211320   3.519   2.958   2.175
 3800TIP3   OH211321   4.688   3.482   3.050
 3800TIP3    H111322   4.593   3.464   3.034
 3800TIP3    H211323   4.725   3.481   2.958
 3801TIP3   OH211324   4.332   3.659   2.455
 3801TIP3    H111325   4.258   3.599   2.473
 3801TIP3    H211326   4.406   3.615   2.501
 3802TIP3   OH211327   3.042   3.883   1.922
 3802TIP3    H111328   3.113   3.950   1.929
 3802TIP3    H211329   3.084   3.824   1.855
 3803TIP3   OH211330   2.980   3.163   2.055
 3803TIP3    H111331   2.985   3.261   2.055
 3803TIP3    H211332   2.896   3.148   2.012
 3804TIP3   OH211333   4.296   4.619   2.398
 3804TIP3    H111334   4.254   4.666   2.322
 3804TIP3    H211335   4.391   4.638   2.379
 3805TIP3   OH211336   3.373   2.885   2.925
 3805TIP3    H111337   3.342   2.850   2.839
 3805TIP3    H211338   3.362   2.807   2.984
 3806TIP3   OH211339   2.908   4.109   2.303
 3806TIP3    H111340   2.845   4.132   2.373
 3806TIP3    H211341   2.865   4.149   2.224
 3807TIP3   OH211342   3.072   4.655   3.379
 3807TIP3    H111343   3.157   4.658   3.429
 3807TIP3    H211344   3.052   4.560   3.383
 3808TIP3   OH211345   3.545   4.608   3.427
 3808TIP3    H111346   3.640   4.599   3.438
 3808TIP3    H211347   3.528   4.545   3.355
 3809TIP3   OH211348   3.529   4.184   1.550
 3809TIP3    H111349   3.473   4.113   1.589
 3809TIP3    H211350   3.605   4.132   1.518
 3810TIP3   OH211351   4.189   4.514   3.156
 3810TIP3    H111352   4.181   4.448   3.228
 3810TIP3    H211353   4.264   4.569   3.186
 3811TIP3   OH211354   3.965   4.223   1.468
 3811TIP3    H111355   4.009   4.160   1.528
 3811TIP3    H211356   4.021   4.221   1.388
 3812TIP3   OH211357   3.200   4.056   3.578
 3812TIP3    H111358   3.214   3.961   3.593
 3812TIP3    H211359   3.111   4.057   3.535
 3813TIP3   OH211360   3.178   3.698   1.777
 3813TIP3    H111361   3.235   3.669   1.851
 3813TIP3    H211362   3.245   3.705   1.706
 3814TIP3   OH211363   3.807   4.140   3.356
 3814TIP3    H111364   3.771   4.160   3.268
 3814TIP3    H211365   3.840   4.048   3.346
 3815TIP3   OH211366   3.698   3.903   1.584
 3815TIP3    H111367   3.695   3.915   1.681
 3815TIP3    H211368   3.693   3.805   1.578
 3816TIP3   OH211369   4.294   4.155   2.961
 3816TIP3    H111370   4.374   4.192   2.918
 3816TIP3    H211371   4.230   4.226   2.944
 3817TIP3   OH211372   3.324   3.791   3.562
 3817TIP3    H111373   3.397   3.731   3.545
 3817TIP3    H211374   3.348   3.824   3.652
 3818TIP3   OH211375   3.381   3.610   1.995
 3818TIP3    H111376   3.353   3.571   2.079
 3818TIP3    H211377   3.418   3.532   1.948
 3819TIP3   OH211378   3.651   3.670   3.223
 3819TIP3    H111379   3.575   3.732   3.224
 3819TIP3    H211380   3.703   3.704   3.147
 3820TIP3   OH211381   3.486   3.404   1.835
 3820TIP3    H111382   3.460   3.412   1.741
 3820TIP3    H211383   3.583   3.407   1.828
 3821TIP3   OH211384   4.170   4.073   3.356
 3821TIP3    H111385   4.251   4.044   3.312
 3821TIP3    H211386   4.164   4.011   3.430
 3822TIP3   OH211387   4.340   3.742   1.464
 3822TIP3    H111388   4.283   3.671   1.433
 3822TIP3    H211389   4.280   3.820   1.458
 3823TIP3   OH211390   3.778   3.462   3.348
 3823TIP3    H111391   3.778   3.383   3.290
 3823TIP3    H211392   3.733   3.529   3.292
 3824TIP3   OH211393   3.780   3.247   3.157
 3824TIP3    H111394   3.808   3.289   3.074
 3824TIP3    H211395   3.686   3.225   3.139
 3825TIP3   OH211396   3.802   3.777   3.028
 3825TIP3    H111397   3.890   3.792   2.992
 3825TIP3    H211398   3.748   3.845   2.982
 3826TIP3   OH211399   4.383   3.748   3.407
 3826TIP3    H111400   4.432   3.666   3.423
 3826TIP3    H211401   4.452   3.805   3.370
 3827TIP3   OH211402   4.424   4.007   3.147
 3827TIP3    H111403   4.368   4.063   3.088
 3827TIP3    H211404   4.513   4.026   3.109
 3828TIP3   OH211405   3.653   3.566   3.580
 3828TIP3    H111406   3.586   3.498   3.599
 3828TIP3    H211407   3.688   3.536   3.494
 3829TIP3   OH211408   3.910   3.008   3.229
 3829TIP3    H111409   3.861   3.090   3.205
 3829TIP3    H211410   3.840   2.940   3.218
 3830TIP3   OH211411   4.038   3.510   3.443
 3830TIP3    H111412   4.024   3.497   3.539
 3830TIP3    H211413   3.948   3.488   3.411
 3831TIP3   OH211414   4.276   3.461   3.295
 3831TIP3    H111415   4.202   3.464   3.359
 3831TIP3    H211416   4.351   3.433   3.351
 3832TIP3   OH211417   4.507   3.406   3.446
 3832TIP3    H111418   4.516   3.310   3.464
 3832TIP3    H211419   4.499   3.443   3.537
 3833TIP3   OH211420   3.493   3.346   3.638
 3833TIP3    H111421   3.498   3.253   3.608
 3833TIP3    H211422   3.531   3.338   3.728
 3834TIP3   OH211423   4.003   3.018   3.487
 3834TIP3    H111424   4.069   2.947   3.480
 3834TIP3    H211425   3.963   3.015   3.398
 3835TIP3   OH211426   4.070   3.234   3.645
 3835TIP3    H111427   4.048   3.163   3.581
 3835TIP3    H211428   3.992   3.292   3.639
 3836TIP3   OH211429   3.295   4.463   1.746
 3836TIP3    H111430   3.390   4.455   1.724
 3836TIP3    H211431   3.265   4.514   1.668
 3837TIP3   OH211432   2.772   3.846   1.957
 3837TIP3    H111433   2.867   3.865   1.942
 3837TIP3    H211434   2.764   3.757   1.915
 3838TIP3   OH211435   2.693   4.455   2.375
 3838TIP3    H111436   2.625   4.397   2.334
 3838TIP3    H211437   2.734   4.393   2.438
 3839TIP3   OH211438   2.824   4.301   2.563
 3839TIP3    H111439   2.814   4.229   2.627
 3839TIP3    H211440   2.855   4.371   2.623
 3840TIP3   OH211441   4.551   4.708   2.362
 3840TIP3    H111442   4.575   4.736   2.453
 3840TIP3    H211443   4.619   4.751   2.309
 3841TIP3   OH211444   4.578   4.726   2.643
 3841TIP3    H111445   4.535   4.638   2.641
 3841TIP3    H211446   4.652   4.707   2.702
 3842TIP3   OH211447   4.625   4.403   3.216
 3842TIP3    H111448   4.554   4.415   3.282
 3842TIP3    H211449   4.668   4.491   3.218
 3843TIP3   OH211450   4.445   3.917   1.833
 3843TIP3    H111451   4.512   3.983   1.805
 3843TIP3    H211452   4.488   3.880   1.913
 3844TIP3   OH211453   4.568   3.784   2.038
 3844TIP3    H111454   4.504   3.744   2.100
 3844TIP3    H211455   4.638   3.819   2.098
 3845TIP3   OH211456   4.623   4.180   2.467
 3845TIP3    H111457   4.681   4.111   2.428
 3845TIP3    H211458   4.624   4.249   2.398
 3846TIP3   OH211459   4.453   4.476   2.663
 3846TIP3    H111460   4.382   4.519   2.715
 3846TIP3    H211461   4.402   4.431   2.593
 3847TIP3   OH211462   4.508   3.692   1.685
 3847TIP3    H111463   4.445   3.703   1.611
 3847TIP3    H211464   4.481   3.767   1.743
 3848TIP3   OH211465   4.376   3.365   1.634
 3848TIP3    H111466   4.327   3.392   1.555
 3848TIP3    H211467   4.358   3.268   1.634
 3849TIP3   OH211468   4.380   3.644   2.185
 3849TIP3    H111469   4.392   3.548   2.180
 3849TIP3    H211470   4.367   3.658   2.282
 3850TIP3   OH211471   3.007   3.717   2.932
 3850TIP3    H111472   3.004   3.680   2.841
 3850TIP3    H211473   3.104   3.715   2.949
 3851TIP3   OH211474   4.671   4.069   3.043
 3851TIP3    H111475   4.741   4.000   3.032
 3851TIP3    H211476   4.697   4.135   2.977
 3852TIP3   OH211477   4.855   3.870   3.053
 3852TIP3    H111478   4.780   3.817   3.088
 3852TIP3    H211479   4.929   3.810   3.075
 3853TIP3   OH211480   4.321   3.100   1.616
 3853TIP3    H111481   4.395   3.068   1.672
 3853TIP3    H211482   4.247   3.041   1.640
 3854TIP3   OH211483   4.379   3.358   2.073
 3854TIP3    H111484   4.421   3.270   2.089
 3854TIP3    H211485   4.439   3.393   2.005
 3855TIP3   OH211486   4.550   3.520   2.568
 3855TIP3    H111487   4.646   3.514   2.554
 3855TIP3    H211488   4.550   3.567   2.654
 3856TIP3   OH211489   4.565   3.676   2.789
 3856TIP3    H111490   4.509   3.725   2.852
 3856TIP3    H211491   4.639   3.737   2.774
 3857TIP3   OH211492   3.227   3.398   3.599
 3857TIP3    H111493   3.325   3.395   3.610
 3857TIP3    H211494   3.203   3.313   3.642
 3858TIP3   OH211495   5.093   3.283   3.349
 3858TIP3    H111496   5.063   3.191   3.344
 3858TIP3    H211497   5.038   3.328   3.281
 3859TIP3   OH211498   4.489   3.109   2.115
 3859TIP3    H111499   4.537   3.095   2.199
 3859TIP3    H211500   4.428   3.033   2.115
 3860TIP3   OH211501   3.189   3.094   2.932
 3860TIP3    H111502   3.251   3.019   2.943
 3860TIP3    H211503   3.251   3.169   2.926
 3861TIP3   OH211504   2.987   3.364   3.007
 3861TIP3    H111505   3.038   3.366   2.924
 3861TIP3    H211506   3.014   3.446   3.050
 3862TIP3   OH211507   4.929   3.405   3.172
 3862TIP3    H111508   4.853   3.459   3.201
 3862TIP3    H211509   4.885   3.357   3.098
 3863TIP3   OH211510   4.562   3.041   1.748
 3863TIP3    H111511   4.606   2.971   1.696
 3863TIP3    H211512   4.630   3.111   1.751
 3864TIP3   OH211513   2.975   2.863   2.505
 3864TIP3    H111514   2.884   2.862   2.539
 3864TIP3    H211515   2.967   2.926   2.430
 3865TIP3   OH211516   4.131   4.575   2.014
 3865TIP3    H111517   4.188   4.569   1.935
 3865TIP3    H211518   4.178   4.640   2.069
 3866TIP3   OH211519   3.194   2.944   3.320
 3866TIP3    H111520   3.146   2.945   3.405
 3866TIP3    H211521   3.128   2.987   3.262
 3867TIP3   OH211522   3.234   4.378   3.405
 3867TIP3    H111523   3.139   4.357   3.391
 3867TIP3    H211524   3.244   4.360   3.499
 3868TIP3   OH211525   3.852   4.657   3.082
 3868TIP3    H111526   3.893   4.655   3.172
 3868TIP3    H211527   3.919   4.710   3.033
 3869TIP3   OH211528   4.035   4.810   2.947
 3869TIP3    H111529   4.109   4.760   2.910
 3869TIP3    H211530   4.084   4.869   3.009
 3870TIP3   OH211531   4.826   3.160   3.053
 3870TIP3    H111532   4.745   3.174   3.001
 3870TIP3    H211533   4.848   3.067   3.034
 3871TIP3   OH211534   3.095   4.661   2.973
 3871TIP3    H111535   3.004   4.691   2.952
 3871TIP3    H211536   3.115   4.719   3.048
 3872TIP3   OH211537   3.307   4.576   2.795
 3872TIP3    H111538   3.234   4.602   2.856
 3872TIP3    H211539   3.296   4.646   2.727
 3873TIP3   OH211540   3.746   4.675   2.632
 3873TIP3    H111541   3.692   4.711   2.560
 3873TIP3    H211542   3.765   4.758   2.683
 3874TIP3   OH211543   4.019   4.610   2.679
 3874TIP3    H111544   3.926   4.634   2.661
 3874TIP3    H211545   4.066   4.687   2.641
 3875TIP3   OH211546   4.218   4.801   2.593
 3875TIP3    H111547   4.210   4.887   2.547
 3875TIP3    H211548   4.250   4.742   2.520
 3876TIP3   OH211549   3.017   4.465   2.711
 3876TIP3    H111550   3.023   4.462   2.808
 3876TIP3    H211551   3.066   4.385   2.689
 3877TIP3   OH211552   4.032   3.081   2.662
 3877TIP3    H111553   3.993   3.010   2.716
 3877TIP3    H211554   4.110   3.038   2.623
 3878TIP3   OH211555   4.554   2.955   2.562
 3878TIP3    H111556   4.593   3.013   2.492
 3878TIP3    H211557   4.463   2.989   2.568
 3879TIP3   OH211558   4.653   3.062   2.330
 3879TIP3    H111559   4.729   3.012   2.294
 3879TIP3    H211560   4.686   3.154   2.316
 3880TIP3   OH211561   3.284   2.791   2.678
 3880TIP3    H111562   3.192   2.757   2.683
 3880TIP3    H211563   3.333   2.706   2.674
 3881TIP3   OH211564   3.073   2.663   2.330
 3881TIP3    H111565   3.101   2.721   2.257
 3881TIP3    H211566   3.044   2.728   2.397
 3882TIP3   OH211567   3.732   2.822   2.563
 3882TIP3    H111568   3.786   2.871   2.499
 3882TIP3    H211569   3.758   2.862   2.647
 3883TIP3   OH211570   4.266   2.972   2.546
 3883TIP3    H111571   4.275   2.932   2.459
 3883TIP3    H211572   4.257   2.892   2.604
 3884TIP3   OH211573   4.305   2.897   2.108
 3884TIP3    H111574   4.221   2.943   2.129
 3884TIP3    H211575   4.290   2.811   2.152
 3885TIP3   OH211576   2.786   4.242   2.103
 3885TIP3    H111577   2.700   4.207   2.073
 3885TIP3    H211578   2.776   4.334   2.071
 3886TIP3   OH211579   3.192   2.820   2.090
 3886TIP3    H111580   3.240   2.758   2.033
 3886TIP3    H211581   3.265   2.875   2.126
 3887TIP3   OH211582   3.700   3.000   2.191
 3887TIP3    H111583   3.760   2.954   2.252
 3887TIP3    H211584   3.719   3.093   2.216
 3888TIP3   OH211585   3.562   4.417   1.691
 3888TIP3    H111586   3.649   4.441   1.654
 3888TIP3    H211587   3.539   4.343   1.630
 3889TIP3   OH211588   4.283   4.544   1.784
 3889TIP3    H111589   4.273   4.446   1.774
 3889TIP3    H211590   4.234   4.575   1.705
 3890TIP3   OH211591   3.492   3.070   3.568
 3890TIP3    H111592   3.455   3.002   3.627
 3890TIP3    H211593   3.585   3.070   3.598
 3891TIP3   OH211594   3.741   3.068   3.689
 3891TIP3    H111595   3.828   3.044   3.653
 3891TIP3    H211596   3.728   2.999   3.757
 3892TIP3   OH211597   2.863   4.256   1.743
 3892TIP3    H111598   2.864   4.277   1.837
 3892TIP3    H211599   2.951   4.213   1.730
 3893TIP3   OH211600   4.568   3.133   3.478
 3893TIP3    H111601   4.583   3.103   3.571
 3893TIP3    H211602   4.657   3.122   3.440
 3894TIP3   OH211603   4.505   4.684   2.967
 3894TIP3    H111604   4.424   4.655   2.919
 3894TIP3    H211605   4.486   4.780   2.976
 3895TIP3   OH211606   5.780   4.064   1.718
 3895TIP3    H111607   5.741   4.152   1.699
 3895TIP3    H211608   5.702   4.008   1.701
 3896TIP3   OH211609   5.772   4.054   2.121
 3896TIP3    H111610   5.809   4.039   2.210
 3896TIP3    H211611   5.727   3.970   2.104
 3897TIP3   OH211612   5.067   3.956   2.478
 3897TIP3    H111613   5.091   3.881   2.536
 3897TIP3    H211614   5.147   4.009   2.484
 3898TIP3   OH211615   6.062   4.341   1.782
 3898TIP3    H111616   6.011   4.294   1.850
 3898TIP3    H211617   6.078   4.427   1.826
 3899TIP3   OH211618   5.042   4.363   2.201
 3899TIP3    H111619   5.034   4.265   2.202
 3899TIP3    H211620   5.139   4.373   2.201
 3900TIP3   OH211621   4.752   3.561   1.982
 3900TIP3    H111622   4.710   3.644   2.009
 3900TIP3    H211623   4.675   3.512   1.946
 3901TIP3   OH211624   4.801   3.852   2.166
 3901TIP3    H111625   4.852   3.777   2.205
 3901TIP3    H211626   4.870   3.895   2.113
 3902TIP3   OH211627   5.666   4.827   1.821
 3902TIP3    H111628   5.706   4.752   1.772
 3902TIP3    H211629   5.655   4.789   1.909
 3903TIP3   OH211630   5.569   4.285   2.165
 3903TIP3    H111631   5.610   4.207   2.124
 3903TIP3    H211632   5.651   4.332   2.192
 3904TIP3   OH211633   6.586   3.603   2.165
 3904TIP3    H111634   6.615   3.686   2.208
 3904TIP3    H211635   6.609   3.621   2.072
 3905TIP3   OH211636   5.984   3.784   2.193
 3905TIP3    H111637   6.026   3.699   2.216
 3905TIP3    H211638   5.950   3.764   2.104
 3906TIP3   OH211639   5.324   3.444   2.162
 3906TIP3    H111640   5.303   3.518   2.101
 3906TIP3    H211641   5.272   3.372   2.120
 3907TIP3   OH211642   6.018   3.536   1.781
 3907TIP3    H111643   6.088   3.521   1.849
 3907TIP3    H211644   6.073   3.570   1.708
 3908TIP3   OH211645   4.962   3.659   2.262
 3908TIP3    H111646   5.027   3.634   2.329
 3908TIP3    H211647   4.981   3.593   2.192
 3909TIP3   OH211648   5.394   3.844   2.064
 3909TIP3    H111649   5.488   3.818   2.077
 3909TIP3    H211650   5.355   3.759   2.032
 3910TIP3   OH211651   6.659   3.812   2.336
 3910TIP3    H111652   6.574   3.858   2.319
 3910TIP3    H211653   6.687   3.854   2.419
 3911TIP3   OH211654   5.315   3.426   2.601
 3911TIP3    H111655   5.258   3.463   2.531
 3911TIP3    H211656   5.262   3.450   2.680
 3912TIP3   OH211657   5.671   4.288   1.606
 3912TIP3    H111658   5.631   4.267   1.519
 3912TIP3    H211659   5.615   4.365   1.632
 3913TIP3   OH211660   5.424   4.205   2.388
 3913TIP3    H111661   5.364   4.273   2.425
 3913TIP3    H211662   5.467   4.253   2.315
 3914TIP3   OH211663   6.219   3.544   1.963
 3914TIP3    H111664   6.201   3.502   2.048
 3914TIP3    H211665   6.272   3.622   1.990
 3915TIP3   OH211666   5.192   3.545   2.387
 3915TIP3    H111667   5.254   3.618   2.406
 3915TIP3    H211668   5.235   3.504   2.309
 3916TIP3   OH211669   5.254   4.401   2.488
 3916TIP3    H111670   5.229   4.490   2.454
 3916TIP3    H211671   5.174   4.382   2.543
 3917TIP3   OH211672   4.644   4.091   1.724
 3917TIP3    H111673   4.605   4.126   1.642
 3917TIP3    H211674   4.678   4.173   1.765
 3918TIP3   OH211675   6.073   4.598   1.939
 3918TIP3    H111676   5.991   4.592   1.993
 3918TIP3    H211677   6.074   4.693   1.916
 3919TIP3   OH211678   6.379   3.498   2.328
 3919TIP3    H111679   6.293   3.529   2.297
 3919TIP3    H211680   6.441   3.533   2.260
 3920TIP3   OH211681   5.672   3.143   2.310
 3920TIP3    H111682   5.656   3.048   2.329
 3920TIP3    H211683   5.595   3.183   2.356
 3921TIP3   OH211684   5.783   4.648   1.642
 3921TIP3    H111685   5.839   4.574   1.669
 3921TIP3    H211686   5.848   4.707   1.598
 3922TIP3   OH211687   6.287   4.515   2.311
 3922TIP3    H111688   6.304   4.437   2.256
 3922TIP3    H211689   6.325   4.588   2.260
 3923TIP3   OH211690   5.600   3.907   1.568
 3923TIP3    H111691   5.519   3.960   1.552
 3923TIP3    H211692   5.644   3.911   1.481
 3924TIP3   OH211693   5.561   3.698   1.277
 3924TIP3    H111694   5.625   3.746   1.332
 3924TIP3    H211695   5.621   3.636   1.231
 3925TIP3   OH211696   6.505   4.144   2.150
 3925TIP3    H111697   6.424   4.198   2.158
 3925TIP3    H211698   6.540   4.177   2.065
 3926TIP3   OH211699   5.981   4.030   1.542
 3926TIP3    H111700   5.905   4.033   1.606
 3926TIP3    H211701   6.039   3.962   1.583
 3927TIP3   OH211702   6.185   4.029   2.457
 3927TIP3    H111703   6.188   4.114   2.506
 3927TIP3    H211704   6.098   4.037   2.412
 3928TIP3   OH211705   5.184   3.987   1.956
 3928TIP3    H111706   5.144   3.929   1.888
 3928TIP3    H211707   5.260   3.934   1.987
 3929TIP3   OH211708   5.314   4.406   2.101
 3929TIP3    H111709   5.293   4.368   2.014
 3929TIP3    H211710   5.402   4.366   2.119
 3930TIP3   OH211711   5.321   3.960   2.310
 3930TIP3    H111712   5.352   3.937   2.220
 3930TIP3    H211713   5.363   4.047   2.327
 3931TIP3   OH211714   5.846   4.596   2.086
 3931TIP3    H111715   5.833   4.679   2.136
 3931TIP3    H211716   5.829   4.527   2.153
 3932TIP3   OH211717   5.458   4.516   2.635
 3932TIP3    H111718   5.397   4.577   2.682
 3932TIP3    H211719   5.394   4.463   2.584
 3933TIP3   OH211720   5.802   3.859   1.370
 3933TIP3    H111721   5.858   3.928   1.410
 3933TIP3    H211722   5.821   3.874   1.274
 3934TIP3   OH211723   5.213   4.067   2.742
 3934TIP3    H111724   5.218   4.157   2.781
 3934TIP3    H211725   5.117   4.049   2.756
 3935TIP3   OH211726   5.533   4.523   1.645
 3935TIP3    H111727   5.610   4.583   1.650
 3935TIP3    H211728   5.471   4.571   1.589
 3936TIP3   OH211729   5.251   4.679   2.722
 3936TIP3    H111730   5.214   4.685   2.632
 3936TIP3    H211731   5.171   4.659   2.776
 3937TIP3   OH211732   6.305   3.088   1.415
 3937TIP3    H111733   6.224   3.111   1.464
 3937TIP3    H211734   6.320   3.171   1.364
 3938TIP3   OH211735   5.053   3.830   1.755
 3938TIP3    H111736   4.981   3.872   1.703
 3938TIP3    H211737   5.013   3.746   1.779
 3939TIP3   OH211738   6.110   4.458   0.971
 3939TIP3    H111739   6.116   4.554   0.947
 3939TIP3    H211740   6.202   4.429   0.952
 3940TIP3   OH211741   4.830   4.213   2.669
 3940TIP3    H111742   4.763   4.191   2.602
 3940TIP3    H211743   4.868   4.126   2.692
 3941TIP3   OH211744   4.685   4.411   2.293
 3941TIP3    H111745   4.782   4.402   2.290
 3941TIP3    H211746   4.676   4.485   2.355
 3942TIP3   OH211747   6.540   4.865   2.349
 3942TIP3    H111748   6.570   4.782   2.393
 3942TIP3    H211749   6.457   4.882   2.399
 3943TIP3   OH211750   5.651   4.646   2.490
 3943TIP3    H111751   5.648   4.739   2.524
 3943TIP3    H211752   5.581   4.605   2.546
 3944TIP3   OH211753   5.420   4.775   1.442
 3944TIP3    H111754   5.376   4.755   1.357
 3944TIP3    H211755   5.382   4.861   1.467
 3945TIP3   OH211756   4.853   4.622   1.832
 3945TIP3    H111757   4.902   4.615   1.917
 3945TIP3    H211758   4.803   4.539   1.833
 3946TIP3   OH211759   5.613   4.678   1.084
 3946TIP3    H111760   5.672   4.608   1.048
 3946TIP3    H211761   5.644   4.684   1.177
 3947TIP3   OH211762   5.671   4.725   1.354
 3947TIP3    H111763   5.579   4.735   1.387
 3947TIP3    H211764   5.714   4.689   1.432
 3948TIP3   OH211765   6.436   3.987   2.638
 3948TIP3    H111766   6.356   4.003   2.585
 3948TIP3    H211767   6.451   3.891   2.624
 3949TIP3   OH211768   5.033   4.398   2.650
 3949TIP3    H111769   5.081   4.385   2.733
 3949TIP3    H211770   4.959   4.334   2.659
 3950TIP3   OH211771   5.441   3.223   2.442
 3950TIP3    H111772   5.353   3.190   2.413
 3950TIP3    H211773   5.412   3.305   2.485
 3951TIP3   OH211774   5.972   3.334   2.637
 3951TIP3    H111775   6.043   3.308   2.700
 3951TIP3    H211776   5.890   3.317   2.687
 3952TIP3   OH211777   6.200   3.765   2.552
 3952TIP3    H111778   6.152   3.764   2.637
 3952TIP3    H211779   6.182   3.854   2.518
 3953TIP3   OH211780   5.868   3.898   1.111
 3953TIP3    H111781   5.828   3.875   1.025
 3953TIP3    H211782   5.954   3.934   1.083
 3954TIP3   OH211783   5.577   3.269   1.413
 3954TIP3    H111784   5.543   3.266   1.505
 3954TIP3    H211785   5.538   3.187   1.378
 3955TIP3   OH211786   5.371   3.742   2.463
 3955TIP3    H111787   5.315   3.760   2.541
 3955TIP3    H211788   5.353   3.822   2.408
 3956TIP3   OH211789   5.251   3.625   1.973
 3956TIP3    H111790   5.158   3.599   1.995
 3956TIP3    H211791   5.260   3.582   1.885
 3957TIP3   OH211792   5.740   3.710   1.705
 3957TIP3    H111793   5.687   3.779   1.658
 3957TIP3    H211794   5.793   3.674   1.631
 3958TIP3   OH211795   5.914   3.983   2.783
 3958TIP3    H111796   5.892   3.911   2.847
 3958TIP3    H211797   6.007   3.999   2.807
 3959TIP3   OH211798   5.894   3.733   1.939
 3959TIP3    H111799   5.829   3.758   1.869
 3959TIP3    H211800   5.932   3.654   1.895
 3960TIP3   OH211801   5.185   3.772   2.662
 3960TIP3    H111802   5.200   3.840   2.729
 3960TIP3    H211803   5.163   3.694   2.716
 3961TIP3   OH211804   5.233   3.244   1.378
 3961TIP3    H111805   5.225   3.244   1.476
 3961TIP3    H211806   5.157   3.300   1.354
 3962TIP3   OH211807   4.771   3.284   2.236
 3962TIP3    H111808   4.841   3.317   2.297
 3962TIP3    H211809   4.824   3.256   2.160
 3963TIP3   OH211810   4.739   3.266   1.767
 3963TIP3    H111811   4.787   3.304   1.691
 3963TIP3    H211812   4.681   3.342   1.789
 3964TIP3   OH211813   5.901   3.981   2.358
 3964TIP3    H111814   5.937   3.910   2.300
 3964TIP3    H211815   5.871   3.927   2.434
 3965TIP3   OH211816   5.581   3.442   2.032
 3965TIP3    H111817   5.500   3.443   2.086
 3965TIP3    H211818   5.650   3.439   2.101
 3966TIP3   OH211819   5.014   3.505   2.038
 3966TIP3    H111820   4.919   3.513   2.013
 3966TIP3    H211821   5.034   3.411   2.021
 3967TIP3   OH211822   5.274   3.495   1.733
 3967TIP3    H111823   5.368   3.512   1.712
 3967TIP3    H211824   5.227   3.518   1.649
 3968TIP3   OH211825   6.068   3.521   2.234
 3968TIP3    H111826   6.040   3.535   2.328
 3968TIP3    H211827   5.998   3.462   2.203
 3969TIP3   OH211828   5.127   3.530   1.506
 3969TIP3    H111829   5.057   3.487   1.454
 3969TIP3    H211830   5.179   3.571   1.433
 3970TIP3   OH211831   6.240   5.216   2.459
 3970TIP3    H111832   6.242   5.237   2.364
 3970TIP3    H211833   6.320   5.262   2.491
 3971TIP3   OH211834   5.197   4.321   2.875
 3971TIP3    H111835   5.276   4.350   2.924
 3971TIP3    H211836   5.131   4.319   2.947
 3972TIP3   OH211837   5.659   3.777   2.132
 3972TIP3    H111838   5.734   3.737   2.085
 3972TIP3    H211839   5.663   3.733   2.219
 3973TIP3   OH211840   5.176   3.261   2.017
 3973TIP3    H111841   5.140   3.185   2.068
 3973TIP3    H211842   5.223   3.216   1.946
 3974TIP3   OH211843   5.636   3.675   2.423
 3974TIP3    H111844   5.546   3.711   2.437
 3974TIP3    H211845   5.693   3.738   2.472
 3975TIP3   OH211846   5.369   4.057   1.516
 3975TIP3    H111847   5.295   3.995   1.503
 3975TIP3    H211848   5.348   4.094   1.605
 3976TIP3   OH211849   6.276   4.292   2.139
 3976TIP3    H111850   6.298   4.347   2.060
 3976TIP3    H211851   6.188   4.257   2.116
 3977TIP3   OH211852   5.828   3.371   1.385
 3977TIP3    H111853   5.732   3.350   1.393
 3977TIP3    H211854   5.834   3.465   1.410
 3978TIP3   OH211855   5.763   4.379   2.515
 3978TIP3    H111856   5.805   4.367   2.601
 3978TIP3    H211857   5.729   4.470   2.520
 3979TIP3   OH211858   5.896   3.623   1.487
 3979TIP3    H111859   5.993   3.626   1.500
 3979TIP3    H211860   5.879   3.704   1.435
 3980TIP3   OH211861   5.063   4.086   2.189
 3980TIP3    H111862   5.106   4.054   2.107
 3980TIP3    H211863   5.101   4.028   2.256
 3981TIP3   OH211864   5.539   4.223   1.377
 3981TIP3    H111865   5.486   4.305   1.364
 3981TIP3    H211866   5.472   4.164   1.417
 3982TIP3   OH211867   4.950   3.998   2.805
 3982TIP3    H111868   4.955   3.982   2.901
 3982TIP3    H211869   4.876   3.939   2.780
 3983TIP3   OH211870   5.674   4.121   2.826
 3983TIP3    H111871   5.610   4.060   2.785
 3983TIP3    H211872   5.759   4.084   2.794
 3984TIP3   OH211873   5.925   4.642   2.412
 3984TIP3    H111874   5.829   4.644   2.428
 3984TIP3    H211875   5.958   4.693   2.489
 3985TIP3   OH211876   6.332   3.716   1.321
 3985TIP3    H111877   6.273   3.669   1.258
 3985TIP3    H211878   6.334   3.802   1.275
 3986TIP3   OH211879   6.041   4.514   1.232
 3986TIP3    H111880   5.955   4.471   1.231
 3986TIP3    H211881   6.077   4.486   1.145
 3987TIP3   OH211882   6.033   4.164   2.049
 3987TIP3    H111883   5.941   4.139   2.071
 3987TIP3    H211884   6.067   4.079   2.015
 3988TIP3   OH211885   5.170   4.390   1.819
 3988TIP3    H111886   5.166   4.469   1.763
 3988TIP3    H211887   5.077   4.367   1.827
 3989TIP3   OH211888   4.731   3.694   1.522
 3989TIP3    H111889   4.779   3.776   1.546
 3989TIP3    H211890   4.659   3.695   1.589
 3990TIP3   OH211891   5.300   4.151   1.760
 3990TIP3    H111892   5.267   4.241   1.778
 3990TIP3    H211893   5.264   4.102   1.835
 3991TIP3   OH211894   5.438   4.731   2.285
 3991TIP3    H111895   5.482   4.804   2.236
 3991TIP3    H211896   5.513   4.694   2.334
 3992TIP3   OH211897   5.082   4.632   1.671
 3992TIP3    H111898   4.997   4.638   1.720
 3992TIP3    H211899   5.113   4.725   1.676
 3993TIP3   OH211900   5.820   4.365   2.248
 3993TIP3    H111901   5.805   4.365   2.345
 3993TIP3    H211902   5.906   4.321   2.242
 3994TIP3   OH211903   5.782   4.256   1.121
 3994TIP3    H111904   5.791   4.211   1.206
 3994TIP3    H211905   5.688   4.235   1.102
 3995TIP3   OH211906   6.065   4.900   2.303
 3995TIP3    H111907   5.989   4.839   2.294
 3995TIP3    H211908   6.052   4.959   2.226
 3996TIP3   OH211909   6.134   4.732   0.947
 3996TIP3    H111910   6.167   4.800   0.885
 3996TIP3    H211911   6.056   4.780   0.982
 3997TIP3   OH211912   5.144   3.514   2.801
 3997TIP3    H111913   5.049   3.507   2.775
 3997TIP3    H211914   5.139   3.474   2.888
 3998TIP3   OH211915   4.873   4.592   2.443
 3998TIP3    H111916   4.929   4.523   2.483
 3998TIP3    H211917   4.894   4.668   2.499
 3999TIP3   OH211918   5.084   4.247   1.440
 3999TIP3    H111919   5.174   4.214   1.448
 3999TIP3    H211920   5.099   4.340   1.414
 4000TIP3   OH211921   4.840   3.934   1.606
 4000TIP3    H111922   4.775   3.984   1.661
 4000TIP3    H211923   4.863   4.003   1.540
 4001TIP3   OH211924   6.000   3.570   2.494
 4001TIP3    H111925   6.078   3.614   2.532
 4001TIP3    H211926   5.989   3.491   2.552
 4002TIP3   OH211927   5.877   3.320   1.667
 4002TIP3    H111928   5.864   3.342   1.573
 4002TIP3    H211929   5.918   3.402   1.702
 4003TIP3   OH211930   5.374   4.434   1.347
 4003TIP3    H111931   5.294   4.469   1.392
 4003TIP3    H211932   5.341   4.438   1.254
 4004TIP3   OH211933   5.558   3.508   1.764
 4004TIP3    H111934   5.622   3.580   1.749
 4004TIP3    H211935   5.565   3.496   1.862
 4005TIP3   OH211936   5.834   3.821   2.568
 4005TIP3    H111937   5.858   3.875   2.646
 4005TIP3    H211938   5.888   3.741   2.582
 4006TIP3   OH211939   5.702   3.224   1.863
 4006TIP3    H111940   5.695   3.301   1.922
 4006TIP3    H211941   5.767   3.257   1.797
 4007TIP3   OH211942   5.126   4.524   1.425
 4007TIP3    H111943   5.093   4.595   1.368
 4007TIP3    H211944   5.108   4.559   1.515
 4008TIP3   OH211945   5.219   3.231   1.654
 4008TIP3    H111946   5.215   3.321   1.693
 4008TIP3    H211947   5.315   3.214   1.662
 4009TIP3   OH211948   6.468   3.722   2.557
 4009TIP3    H111949   6.370   3.718   2.559
 4009TIP3    H211950   6.485   3.687   2.468
 4010TIP3   OH211951   6.123   3.916   1.935
 4010TIP3    H111952   6.046   3.858   1.953
 4010TIP3    H211953   6.194   3.871   1.986
 4011TIP3   OH211954   4.836   4.145   1.406
 4011TIP3    H111955   4.917   4.196   1.429
 4011TIP3    H211956   4.876   4.088   1.336
 4012TIP3   OH211957   4.778   3.423   1.545
 4012TIP3    H111958   4.783   3.520   1.541
 4012TIP3    H211959   4.696   3.406   1.497
 4013TIP3   OH211960   6.090   4.874   1.883
 4013TIP3    H111961   6.050   4.922   1.807
 4013TIP3    H211962   6.185   4.894   1.867
 4014TIP3   OH211963   5.181   3.135   2.412
 4014TIP3    H111964   5.143   3.109   2.326
 4014TIP3    H211965   5.160   3.058   2.468
 4015TIP3   OH211966   4.700   4.357   1.792
 4015TIP3    H111967   4.641   4.390   1.861
 4015TIP3    H211968   4.665   4.402   1.712
 4016TIP3   OH211969   4.868   4.910   2.865
 4016TIP3    H111970   4.953   4.914   2.914
 4016TIP3    H211971   4.850   4.815   2.867
 4017TIP3   OH211972   5.340   4.861   2.914
 4017TIP3    H111973   5.435   4.849   2.920
 4017TIP3    H211974   5.317   4.799   2.842
 4018TIP3   OH211975   5.985   4.772   2.647
 4018TIP3    H111976   5.978   4.703   2.717
 4018TIP3    H211977   6.065   4.822   2.676
 4019TIP3   OH211978   5.767   4.490   0.959
 4019TIP3    H111979   5.798   4.412   1.007
 4019TIP3    H211980   5.812   4.481   0.872
 4020TIP3   OH211981   4.994   4.311   3.067
 4020TIP3    H111982   5.011   4.215   3.071
 4020TIP3    H211983   4.907   4.313   3.022
 4021TIP3   OH211984   4.966   3.955   1.266
 4021TIP3    H111985   5.027   3.930   1.338
 4021TIP3    H211986   5.032   3.961   1.192
 4022TIP3   OH211987   5.601   4.398   2.842
 4022TIP3    H111988   5.561   4.420   2.756
 4022TIP3    H211989   5.632   4.306   2.829
 4023TIP3   OH211990   5.518   4.163   1.069
 4023TIP3    H111991   5.447   4.189   1.128
 4023TIP3    H211992   5.506   4.065   1.066
 4024TIP3   OH211993   6.083   4.405   2.450
 4024TIP3    H111994   6.161   4.443   2.404
 4024TIP3    H211995   6.019   4.477   2.436
 4025TIP3   OH211996   5.112   4.054   3.055
 4025TIP3    H111997   5.183   3.996   3.026
 4025TIP3    H211998   5.143   4.083   3.143
 4026TIP3   OH211999   5.172   3.865   1.481
 4026TIP3    H112000   5.150   3.826   1.567
 4026TIP3    H212001   5.211   3.790   1.432
 4027TIP3   OH212002   5.457   3.933   2.718
 4027TIP3    H112003   5.375   3.986   2.716
 4027TIP3    H212004   5.503   3.964   2.636
 4028TIP3   OH212005   5.282   3.661   1.322
 4028TIP3    H112006   5.256   3.669   1.228
 4028TIP3    H212007   5.380   3.664   1.314
 4029TIP3   OH212008   5.967   4.330   2.844
 4029TIP3    H112009   6.043   4.297   2.794
 4029TIP3    H212010   5.961   4.265   2.917
 4030TIP3   OH212011   6.104   3.988   0.998
 4030TIP3    H112012   6.086   3.943   0.913
 4030TIP3    H212013   6.070   4.077   0.975
 4031TIP3   OH212014   5.570   3.715   2.836
 4031TIP3    H112015   5.572   3.641   2.772
 4031TIP3    H212016   5.530   3.787   2.782
 4032TIP3   OH212017   5.574   3.503   2.643
 4032TIP3    H112018   5.601   3.548   2.561
 4032TIP3    H212019   5.480   3.483   2.625
 4033TIP3   OH212020   5.599   4.036   2.514
 4033TIP3    H112021   5.685   4.057   2.477
 4033TIP3    H212022   5.541   4.102   2.471
 4034TIP3   OH212023   6.182   4.005   2.894
 4034TIP3    H112024   6.232   3.923   2.907
 4034TIP3    H212025   6.250   4.062   2.856
 4035TIP3   OH212026   6.228   4.259   2.628
 4035TIP3    H112027   6.168   4.314   2.573
 4035TIP3    H212028   6.315   4.285   2.588
 4036TIP3   OH212029   5.453   3.825   3.072
 4036TIP3    H112030   5.377   3.767   3.087
 4036TIP3    H212031   5.480   3.800   2.981
 4037TIP3   OH212032   5.706   3.268   2.716
 4037TIP3    H112033   5.659   3.350   2.689
 4037TIP3    H212034   5.637   3.201   2.703
 4038TIP3   OH212035   5.833   3.766   2.929
 4038TIP3    H112036   5.821   3.755   3.025
 4038TIP3    H212037   5.742   3.743   2.898
 4039TIP3   OH212038   6.071   3.718   2.783
 4039TIP3    H112039   5.997   3.721   2.847
 4039TIP3    H212040   6.146   3.690   2.840
 4040TIP3   OH212041   6.300   3.662   2.933
 4040TIP3    H112042   6.314   3.567   2.949
 4040TIP3    H212043   6.296   3.699   3.024
 4041TIP3   OH212044   5.300   3.595   3.121
 4041TIP3    H112045   5.374   3.551   3.077
 4041TIP3    H212046   5.325   3.585   3.215
 4042TIP3   OH212047   5.791   3.273   2.977
 4042TIP3    H112048   5.862   3.206   2.971
 4042TIP3    H212049   5.760   3.272   2.884
 4043TIP3   OH212050   5.866   3.490   3.132
 4043TIP3    H112051   5.844   3.419   3.067
 4043TIP3    H212052   5.789   3.550   3.124
 4044TIP3   OH212053   5.075   4.720   1.194
 4044TIP3    H112054   5.171   4.739   1.202
 4044TIP3    H212055   5.082   4.628   1.157
 4045TIP3   OH212056   4.570   4.109   1.433
 4045TIP3    H112057   4.665   4.133   1.428
 4045TIP3    H212058   4.571   4.019   1.396
 4046TIP3   OH212059   4.488   4.712   1.862
 4046TIP3    H112060   4.420   4.651   1.825
 4046TIP3    H212061   4.531   4.652   1.928
 4047TIP3   OH212062   4.620   4.556   2.049
 4047TIP3    H112063   4.610   4.488   2.118
 4047TIP3    H212064   4.672   4.622   2.098
 4048TIP3   OH212065   6.347   4.964   1.851
 4048TIP3    H112066   6.373   4.989   1.942
 4048TIP3    H212067   6.416   5.006   1.798
 4049TIP3   OH212068   6.382   4.984   2.131
 4049TIP3    H112069   6.331   4.900   2.125
 4049TIP3    H212070   6.449   4.955   2.195
 4050TIP3   OH212071   6.318   4.105   1.557
 4050TIP3    H112072   6.294   4.014   1.585
 4050TIP3    H212073   6.415   4.106   1.575
 4051TIP3   OH212074   6.409   4.429   1.942
 4051TIP3    H112075   6.479   4.369   1.912
 4051TIP3    H212076   6.422   4.507   1.885
 4052TIP3   OH212077   6.250   4.744   2.138
 4052TIP3    H112078   6.185   4.762   2.208
 4052TIP3    H212079   6.203   4.682   2.080
 4053TIP3   OH212080   6.311   3.951   1.176
 4053TIP3    H112081   6.237   3.953   1.111
 4053TIP3    H212082   6.295   4.033   1.225
 4054TIP3   OH212083   6.171   3.623   1.123
 4054TIP3    H112084   6.128   3.652   1.042
 4054TIP3    H212085   6.151   3.526   1.120
 4055TIP3   OH212086   6.182   3.893   1.669
 4055TIP3    H112087   6.192   3.797   1.658
 4055TIP3    H212088   6.169   3.901   1.767
 4056TIP3   OH212089   4.801   3.981   2.416
 4056TIP3    H112090   4.799   3.941   2.327
 4056TIP3    H212091   4.898   3.977   2.434
 4057TIP3   OH212092   6.467   4.338   2.522
 4057TIP3    H112093   6.545   4.280   2.527
 4057TIP3    H212094   6.506   4.423   2.498
 4058TIP3   OH212095   6.649   4.133   2.556
 4058TIP3    H112096   6.575   4.079   2.589
 4058TIP3    H212097   6.723   4.070   2.562
 4059TIP3   OH212098   6.117   3.357   1.109
 4059TIP3    H112099   6.191   3.323   1.163
 4059TIP3    H212100   6.044   3.296   1.128
 4060TIP3   OH212101   6.178   3.618   1.560
 4060TIP3    H112102   6.217   3.528   1.577
 4060TIP3    H212103   6.235   3.646   1.487
 4061TIP3   OH212104   6.333   3.786   2.061
 4061TIP3    H112105   6.420   3.809   2.020
 4061TIP3    H212106   6.348   3.823   2.150
 4062TIP3   OH212107   6.406   3.930   2.292
 4062TIP3    H112108   6.331   3.967   2.341
 4062TIP3    H212109   6.441   4.011   2.246
 4063TIP3   OH212110   5.036   3.676   3.122
 4063TIP3    H112111   5.131   3.650   3.116
 4063TIP3    H212112   4.994   3.589   3.126
 4064TIP3   OH212113   6.860   3.528   2.847
 4064TIP3    H112114   6.920   3.463   2.804
 4064TIP3    H212115   6.826   3.578   2.770
 4065TIP3   OH212116   6.282   3.368   1.603
 4065TIP3    H112117   6.332   3.350   1.686
 4065TIP3    H212118   6.223   3.290   1.601
 4066TIP3   OH212119   4.986   3.339   2.390
 4066TIP3    H112120   5.055   3.275   2.416
 4066TIP3    H212121   5.020   3.421   2.426
 4067TIP3   OH212122   6.723   3.658   2.652
 4067TIP3    H112123   6.638   3.704   2.669
 4067TIP3    H212124   6.691   3.586   2.594
 4068TIP3   OH212125   6.360   3.296   1.237
 4068TIP3    H112126   6.400   3.226   1.182
 4068TIP3    H212127   6.429   3.365   1.235
 4069TIP3   OH212128   4.770   3.113   1.988
 4069TIP3    H112129   4.682   3.118   2.028
 4069TIP3    H212130   4.764   3.179   1.915
 4070TIP3   OH212131   5.940   4.819   1.507
 4070TIP3    H112132   5.992   4.822   1.424
 4070TIP3    H212133   5.979   4.893   1.558
 4071TIP3   OH212134   5.023   3.190   2.837
 4071TIP3    H112135   4.954   3.187   2.905
 4071TIP3    H212136   4.987   3.265   2.785
 4072TIP3   OH212137   5.030   4.635   2.884
 4072TIP3    H112138   4.936   4.613   2.871
 4072TIP3    H212139   5.042   4.620   2.979
 4073TIP3   OH212140   5.211   4.671   2.434
 4073TIP3    H112141   5.163   4.748   2.396
 4073TIP3    H212142   5.297   4.685   2.389
 4074TIP3   OH212143   5.651   4.912   2.569
 4074TIP3    H112144   5.691   4.911   2.659
 4074TIP3    H212145   5.718   4.965   2.520
 4075TIP3   OH212146   5.834   5.067   2.434
 4075TIP3    H112147   5.908   5.015   2.399
 4075TIP3    H212148   5.882   5.127   2.495
 4076TIP3   OH212149   6.627   3.423   2.531
 4076TIP3    H112150   6.537   3.414   2.495
 4076TIP3    H212151   6.661   3.331   2.522
 4077TIP3   OH212152   4.884   4.925   2.461
 4077TIP3    H112153   4.793   4.956   2.441
 4077TIP3    H212154   4.902   4.976   2.542
 4078TIP3   OH212155   5.120   4.905   2.319
 4078TIP3    H112156   5.033   4.916   2.363
 4078TIP3    H212157   5.100   4.936   2.229
 4079TIP3   OH212158   5.546   4.931   2.114
 4079TIP3    H112159   5.473   4.951   2.053
 4079TIP3    H212160   5.558   5.017   2.160
 4080TIP3   OH212161   5.815   4.865   2.163
 4080TIP3    H112162   5.722   4.888   2.146
 4080TIP3    H212163   5.861   4.944   2.128
 4081TIP3   OH212164   6.020   5.058   2.080
 4081TIP3    H112165   6.008   5.142   2.032
 4081TIP3    H212166   6.048   4.997   2.008
 4082TIP3   OH212167   4.796   4.717   2.202
 4082TIP3    H112168   4.821   4.689   2.293
 4082TIP3    H212169   4.869   4.675   2.152
 4083TIP3   OH212170   4.993   4.592   2.063
 4083TIP3    H112171   5.006   4.507   2.112
 4083TIP3    H212172   5.085   4.626   2.061
 4084TIP3   OH212173   5.261   4.683   2.069
 4084TIP3    H112174   5.289   4.589   2.061
 4084TIP3    H212175   5.310   4.706   2.151
 4085TIP3   OH212176   5.833   3.340   2.152
 4085TIP3    H112177   5.792   3.267   2.202
 4085TIP3    H212178   5.908   3.295   2.108
 4086TIP3   OH212179   6.350   3.221   2.054
 4086TIP3    H112180   6.387   3.273   1.979
 4086TIP3    H212181   6.256   3.243   2.049
 4087TIP3   OH212182   6.448   3.320   1.818
 4087TIP3    H112183   6.522   3.267   1.782
 4087TIP3    H212184   6.483   3.411   1.804
 4088TIP3   OH212185   5.080   3.047   2.165
 4088TIP3    H112186   4.988   3.015   2.171
 4088TIP3    H212187   5.128   2.962   2.163
 4089TIP3   OH212188   4.865   2.917   1.813
 4089TIP3    H112189   4.897   2.977   1.743
 4089TIP3    H212190   4.837   2.982   1.882
 4090TIP3   OH212191   5.528   3.079   2.049
 4090TIP3    H112192   5.582   3.126   1.983
 4090TIP3    H212193   5.556   3.121   2.131
 4091TIP3   OH212194   6.065   3.227   2.031
 4091TIP3    H112195   6.073   3.184   1.945
 4091TIP3    H212196   6.056   3.149   2.090
 4092TIP3   OH212197   6.101   3.155   1.595
 4092TIP3    H112198   6.015   3.197   1.614
 4092TIP3    H212199   6.088   3.068   1.639
 4093TIP3   OH212200   4.583   4.493   1.589
 4093TIP3    H112201   4.495   4.464   1.558
 4093TIP3    H212202   4.575   4.589   1.573
 4094TIP3   OH212203   4.988   3.078   1.575
 4094TIP3    H112204   5.036   3.015   1.518
 4094TIP3    H212205   5.061   3.132   1.612
 4095TIP3   OH212206   5.495   3.257   1.677
 4095TIP3    H112207   5.556   3.211   1.737
 4095TIP3    H212208   5.515   3.349   1.702
 4096TIP3   OH212209   5.355   4.724   1.173
 4096TIP3    H112210   5.444   4.710   1.137
 4096TIP3    H212211   5.314   4.640   1.140
 4097TIP3   OH212212   6.082   4.792   1.270
 4097TIP3    H112213   6.075   4.694   1.261
 4097TIP3    H212214   6.033   4.823   1.191
 4098TIP3   OH212215   5.519   3.291   3.135
 4098TIP3    H112216   5.611   3.297   3.107
 4098TIP3    H212217   5.528   3.264   3.230
 4099TIP3   OH212218   4.644   4.517   1.243
 4099TIP3    H112219   4.637   4.543   1.336
 4099TIP3    H212220   4.729   4.471   1.242
 4100TIP3   OH212221   6.365   3.391   2.964
 4100TIP3    H112222   6.382   3.360   3.056
 4100TIP3    H212223   6.454   3.386   2.924
 4101TIP3   OH212224   6.296   4.944   2.455
 4101TIP3    H112225   6.215   4.914   2.409
 4101TIP3    H212226   6.277   5.039   2.466
 4102TIP3   OH212227   7.568   4.318   1.219
 4102TIP3    H112228   7.536   4.407   1.195
 4102TIP3    H212229   7.494   4.264   1.186
 4103TIP3   OH212230   7.569   4.316   1.610
 4103TIP3    H112231   7.605   4.291   1.697
 4103TIP3    H212232   7.527   4.234   1.581
 4104TIP3   OH212233   6.862   4.204   1.967
 4104TIP3    H112234   6.892   4.134   2.028
 4104TIP3    H212235   6.929   4.272   1.984
 4105TIP3   OH212236   7.817   4.621   1.286
 4105TIP3    H112237   7.793   4.552   1.350
 4105TIP3    H212238   7.844   4.694   1.344
 4106TIP3   OH212239   6.838   4.616   1.685
 4106TIP3    H112240   6.829   4.519   1.689
 4106TIP3    H212241   6.935   4.626   1.686
 4107TIP3   OH212242   6.547   3.812   1.471
 4107TIP3    H112243   6.516   3.900   1.493
 4107TIP3    H212244   6.468   3.770   1.431
 4108TIP3   OH212245   6.589   4.093   1.630
 4108TIP3    H112246   6.641   4.023   1.677
 4108TIP3    H212247   6.661   4.147   1.594
 4109TIP3   OH212248   7.468   5.080   1.306
 4109TIP3    H112249   7.505   5.006   1.253
 4109TIP3    H212250   7.452   5.037   1.391
 4110TIP3   OH212251   7.365   4.542   1.652
 4110TIP3    H112252   7.406   4.464   1.610
 4110TIP3    H212253   7.447   4.589   1.678
 4111TIP3   OH212254   8.353   3.874   1.658
 4111TIP3    H112255   8.396   3.948   1.704
 4111TIP3    H212256   8.403   3.872   1.575
 4112TIP3   OH212257   7.778   4.040   1.681
 4112TIP3    H112258   7.821   3.954   1.700
 4112TIP3    H212259   7.745   4.023   1.590
 4113TIP3   OH212260   7.122   3.700   1.648
 4113TIP3    H112261   7.101   3.773   1.585
 4113TIP3    H212262   7.072   3.627   1.605
 4114TIP3   OH212263   7.820   3.796   1.272
 4114TIP3    H112264   7.892   3.773   1.334
 4114TIP3    H212265   7.871   3.827   1.195
 4115TIP3   OH212266   6.748   3.906   1.755
 4115TIP3    H112267   6.831   3.890   1.805
 4115TIP3    H212268   6.766   3.849   1.677
 4116TIP3   OH212269   7.191   4.100   1.550
 4116TIP3    H112270   7.285   4.075   1.563
 4116TIP3    H212271   7.153   4.015   1.518
 4117TIP3   OH212272   8.447   4.069   1.831
 4117TIP3    H112273   8.361   4.114   1.817
 4117TIP3    H212274   8.459   4.079   1.926
 4118TIP3   OH212275   7.113   3.685   2.084
 4118TIP3    H112276   7.054   3.723   2.016
 4118TIP3    H212277   7.059   3.702   2.165
 4119TIP3   OH212278   7.460   4.538   1.088
 4119TIP3    H112279   7.421   4.520   1.001
 4119TIP3    H212280   7.409   4.616   1.116
 4120TIP3   OH212281   7.220   4.460   1.874
 4120TIP3    H112282   7.160   4.528   1.912
 4120TIP3    H212283   7.262   4.509   1.801
 4121TIP3   OH212284   8.022   3.785   1.460
 4121TIP3    H112285   7.980   3.768   1.546
 4121TIP3    H212286   8.072   3.866   1.479
 4122TIP3   OH212287   6.985   3.800   1.866
 4122TIP3    H112288   7.046   3.873   1.891
 4122TIP3    H212289   7.036   3.760   1.792
 4123TIP3   OH212290   7.049   4.657   1.976
 4123TIP3    H112291   7.023   4.745   1.943
 4123TIP3    H212292   6.972   4.638   2.034
 4124TIP3   OH212293   6.447   4.345   1.208
 4124TIP3    H112294   6.396   4.372   1.130
 4124TIP3    H212295   6.471   4.432   1.247
 4125TIP3   OH212296   7.881   4.863   1.450
 4125TIP3    H112297   7.792   4.853   1.492
 4125TIP3    H212298   7.870   4.949   1.405
 4126TIP3   OH212299   8.174   3.754   1.825
 4126TIP3    H112300   8.089   3.783   1.788
 4126TIP3    H212301   8.236   3.786   1.756
 4127TIP3   OH212302   7.463   3.397   1.799
 4127TIP3    H112303   7.446   3.302   1.818
 4127TIP3    H212304   7.387   3.438   1.846
 4128TIP3   OH212305   7.576   4.902   1.121
 4128TIP3    H112306   7.627   4.820   1.103
 4128TIP3    H212307   7.641   4.969   1.088
 4129TIP3   OH212308   7.728   4.692   1.034
 4129TIP3    H112309   7.682   4.613   1.001
 4129TIP3    H212310   7.767   4.658   1.117
 4130TIP3   OH212311   8.101   4.771   1.794
 4130TIP3    H112312   8.087   4.692   1.736
 4130TIP3    H212313   8.084   4.845   1.732
 4131TIP3   OH212314   7.397   4.168   1.060
 4131TIP3    H112315   7.317   4.220   1.037
 4131TIP3    H212316   7.442   4.159   0.974
 4132TIP3   OH212317   7.362   3.941   0.778
 4132TIP3    H112318   7.430   3.994   0.823
 4132TIP3    H212319   7.419   3.885   0.722
 4133TIP3   OH212320   8.293   4.409   1.629
 4133TIP3    H112321   8.210   4.460   1.640
 4133TIP3    H212322   8.324   4.443   1.542
 4134TIP3   OH212323   7.746   4.249   1.024
 4134TIP3    H112324   7.692   4.274   1.103
 4134TIP3    H212325   7.830   4.222   1.068
 4135TIP3   OH212326   7.979   4.286   1.946
 4135TIP3    H112327   7.978   4.367   2.000
 4135TIP3    H212328   7.892   4.293   1.900
 4136TIP3   OH212329   6.979   4.244   1.445
 4136TIP3    H112330   6.938   4.187   1.377
 4136TIP3    H212331   7.056   4.191   1.474
 4137TIP3   OH212332   7.110   4.661   1.587
 4137TIP3    H112333   7.090   4.625   1.499
 4137TIP3    H212334   7.199   4.623   1.605
 4138TIP3   OH212335   7.117   4.216   1.794
 4138TIP3    H112336   7.151   4.193   1.705
 4138TIP3    H212337   7.159   4.302   1.812
 4139TIP3   OH212338   7.643   4.855   1.575
 4139TIP3    H112339   7.628   4.935   1.629
 4139TIP3    H212340   7.624   4.782   1.637
 4140TIP3   OH212341   7.253   4.774   2.122
 4140TIP3    H112342   7.190   4.834   2.168
 4140TIP3    H212343   7.189   4.720   2.071
 4141TIP3   OH212344   7.579   4.105   0.857
 4141TIP3    H112345   7.641   4.165   0.904
 4141TIP3    H212346   7.596   4.129   0.763
 4142TIP3   OH212347   7.006   4.327   2.218
 4142TIP3    H112348   7.012   4.413   2.265
 4142TIP3    H212349   6.913   4.305   2.238
 4143TIP3   OH212350   7.330   4.780   1.133
 4143TIP3    H112351   7.412   4.832   1.137
 4143TIP3    H212352   7.271   4.837   1.081
 4144TIP3   OH212353   7.045   4.939   2.211
 4144TIP3    H112354   7.009   4.939   2.120
 4144TIP3    H212355   6.965   4.920   2.264
 4145TIP3   OH212356   8.130   3.379   0.916
 4145TIP3    H112357   8.060   3.371   0.984
 4145TIP3    H212358   8.076   3.371   0.836
 4146TIP3   OH212359   6.846   4.089   1.247
 4146TIP3    H112360   6.776   4.131   1.193
 4146TIP3    H212361   6.812   3.999   1.256
 4147TIP3   OH212362   6.642   4.470   2.129
 4147TIP3    H112363   6.556   4.440   2.099
 4147TIP3    H212364   6.671   4.398   2.189
 4148TIP3   OH212365   6.480   4.664   1.782
 4148TIP3    H112366   6.577   4.660   1.780
 4148TIP3    H212367   6.466   4.739   1.842
 4149TIP3   OH212368   8.334   5.124   1.841
 4149TIP3    H112369   8.335   5.027   1.854
 4149TIP3    H212370   8.252   5.147   1.891
 4150TIP3   OH212371   7.448   4.902   1.979
 4150TIP3    H112372   7.444   4.994   2.011
 4150TIP3    H212373   7.377   4.861   2.032
 4151TIP3   OH212374   7.211   5.029   0.936
 4151TIP3    H112375   7.168   5.005   0.852
 4151TIP3    H212376   7.176   5.118   0.955
 4152TIP3   OH212377   6.648   4.881   1.319
 4152TIP3    H112378   6.698   4.872   1.403
 4152TIP3    H212379   6.596   4.798   1.321
 4153TIP3   OH212380   7.444   4.870   0.615
 4153TIP3    H112381   7.412   4.782   0.638
 4153TIP3    H212382   7.449   4.913   0.703
 4154TIP3   OH212383   7.466   4.978   0.865
 4154TIP3    H112384   7.374   4.990   0.899
 4154TIP3    H212385   7.510   4.943   0.945
 4155TIP3   OH212386   8.237   4.237   2.111
 4155TIP3    H112387   8.154   4.258   2.067
 4155TIP3    H212388   8.246   4.141   2.093
 4156TIP3   OH212389   6.831   4.663   2.142
 4156TIP3    H112390   6.869   4.642   2.229
 4156TIP3    H212391   6.756   4.599   2.141
 4157TIP3   OH212392   7.229   3.478   1.932
 4157TIP3    H112393   7.141   3.448   1.900
 4157TIP3    H212394   7.201   3.559   1.979
 4158TIP3   OH212395   7.749   3.598   2.123
 4158TIP3    H112396   7.796   3.600   2.207
 4158TIP3    H212397   7.657   3.579   2.152
 4159TIP3   OH212398   7.983   4.020   2.036
 4159TIP3    H112399   7.939   4.020   2.124
 4159TIP3    H212400   7.969   4.112   2.005
 4160TIP3   OH212401   7.625   4.154   0.593
 4160TIP3    H112402   7.634   4.085   0.528
 4160TIP3    H212403   7.701   4.211   0.570
 4161TIP3   OH212404   7.372   3.526   0.902
 4161TIP3    H112405   7.337   3.521   0.993
 4161TIP3    H212406   7.334   3.445   0.865
 4162TIP3   OH212407   7.160   3.997   1.948
 4162TIP3    H112408   7.109   4.018   2.029
 4162TIP3    H212409   7.144   4.078   1.894
 4163TIP3   OH212410   7.045   3.881   1.460
 4163TIP3    H112411   6.953   3.855   1.480
 4163TIP3    H212412   7.057   3.840   1.372
 4164TIP3   OH212413   7.535   3.965   1.192
 4164TIP3    H112414   7.485   4.036   1.147
 4164TIP3    H212415   7.592   3.931   1.119
 4165TIP3   OH212416   7.712   4.239   2.271
 4165TIP3    H112417   7.690   4.169   2.336
 4165TIP3    H212418   7.805   4.258   2.293
 4166TIP3   OH212419   7.690   3.991   1.425
 4166TIP3    H112420   7.626   4.015   1.355
 4166TIP3    H212421   7.730   3.913   1.380
 4167TIP3   OH212422   6.980   4.023   2.156
 4167TIP3    H112423   6.990   4.093   2.223
 4167TIP3    H212424   6.970   3.943   2.210
 4168TIP3   OH212425   7.026   3.501   0.866
 4168TIP3    H112426   7.020   3.500   0.964
 4168TIP3    H212427   6.949   3.556   0.843
 4169TIP3   OH212428   6.574   3.543   1.735
 4169TIP3    H112429   6.648   3.576   1.791
 4169TIP3    H212430   6.618   3.512   1.655
 4170TIP3   OH212431   6.535   3.522   1.255
 4170TIP3    H112432   6.583   3.557   1.177
 4170TIP3    H212433   6.478   3.598   1.274
 4171TIP3   OH212434   7.701   4.238   1.846
 4171TIP3    H112435   7.735   4.166   1.787
 4171TIP3    H212436   7.670   4.184   1.921
 4172TIP3   OH212437   7.380   3.700   1.521
 4172TIP3    H112438   7.299   3.700   1.575
 4172TIP3    H212439   7.449   3.695   1.589
 4173TIP3   OH212440   6.808   3.759   1.529
 4173TIP3    H112441   6.714   3.763   1.499
 4173TIP3    H212442   6.834   3.668   1.507
 4174TIP3   OH212443   7.070   3.754   1.219
 4174TIP3    H112444   7.164   3.767   1.199
 4174TIP3    H212445   7.025   3.775   1.134
 4175TIP3   OH212446   7.864   3.776   1.715
 4175TIP3    H112447   7.835   3.791   1.808
 4175TIP3    H212448   7.793   3.717   1.684
 4176TIP3   OH212449   6.921   3.789   0.992
 4176TIP3    H112450   6.852   3.746   0.940
 4176TIP3    H212451   6.976   3.829   0.921
 4177TIP3   OH212452   8.038   5.470   1.945
 4177TIP3    H112453   8.036   5.494   1.851
 4177TIP3    H212454   8.117   5.518   1.976
 4178TIP3   OH212455   6.981   4.562   2.370
 4178TIP3    H112456   7.047   4.597   2.432
 4178TIP3    H212457   6.897   4.571   2.421
 4179TIP3   OH212458   7.454   4.033   1.619
 4179TIP3    H112459   7.528   3.994   1.569
 4179TIP3    H212460   7.460   3.988   1.705
 4180TIP3   OH212461   6.971   3.518   1.503
 4180TIP3    H112462   6.936   3.441   1.553
 4180TIP3    H212463   7.018   3.475   1.431
 4181TIP3   OH212464   7.430   3.932   1.910
 4181TIP3    H112465   7.339   3.968   1.923
 4181TIP3    H212466   7.486   3.996   1.958
 4182TIP3   OH212467   7.162   4.317   1.003
 4182TIP3    H112468   7.091   4.251   0.990
 4182TIP3    H212469   7.143   4.349   1.094
 4183TIP3   OH212470   8.062   4.555   1.628
 4183TIP3    H112471   8.085   4.603   1.545
 4183TIP3    H212472   7.978   4.511   1.603
 4184TIP3   OH212473   7.625   3.624   0.878
 4184TIP3    H112474   7.528   3.606   0.881
 4184TIP3    H212475   7.631   3.720   0.897
 4185TIP3   OH212476   7.566   4.638   2.001
 4185TIP3    H112477   7.599   4.621   2.090
 4185TIP3    H212478   7.526   4.726   2.009
 4186TIP3   OH212479   7.695   3.878   0.976
 4186TIP3    H112480   7.792   3.883   0.986
 4186TIP3    H212481   7.675   3.957   0.922
 4187TIP3   OH212482   6.854   4.334   1.678
 4187TIP3    H112483   6.899   4.308   1.595
 4187TIP3    H212484   6.904   4.284   1.744
 4188TIP3   OH212485   7.325   4.471   0.849
 4188TIP3    H112486   7.274   4.556   0.848
 4188TIP3    H212487   7.264   4.414   0.901
 4189TIP3   OH212488   6.747   4.262   2.292
 4189TIP3    H112489   6.775   4.261   2.386
 4189TIP3    H212490   6.672   4.202   2.293
 4190TIP3   OH212491   7.470   4.378   2.313
 4190TIP3    H112492   7.405   4.318   2.271
 4190TIP3    H212493   7.554   4.340   2.280
 4191TIP3   OH212494   7.725   4.901   1.897
 4191TIP3    H112495   7.629   4.896   1.912
 4191TIP3    H212496   7.753   4.951   1.977
 4192TIP3   OH212497   8.109   3.955   0.813
 4192TIP3    H112498   8.108   3.892   0.739
 4192TIP3    H212499   8.103   4.039   0.762
 4193TIP3   OH212500   8.351   4.848   1.873
 4193TIP3    H112501   8.255   4.827   1.871
 4193TIP3    H212502   8.377   4.816   1.784
 4194TIP3   OH212503   7.857   4.781   0.694
 4194TIP3    H112504   7.840   4.742   0.782
 4194TIP3    H212505   7.804   4.723   0.637
 4195TIP3   OH212506   7.832   4.419   1.545
 4195TIP3    H112507   7.738   4.395   1.560
 4195TIP3    H212508   7.863   4.338   1.499
 4196TIP3   OH212509   6.966   4.647   1.306
 4196TIP3    H112510   6.962   4.728   1.252
 4196TIP3    H212511   6.872   4.629   1.319
 4197TIP3   OH212512   6.529   3.948   1.006
 4197TIP3    H112513   6.575   4.032   1.028
 4197TIP3    H212514   6.455   3.951   1.070
 4198TIP3   OH212515   7.092   4.407   1.246
 4198TIP3    H112516   7.061   4.498   1.266
 4198TIP3    H212517   7.059   4.358   1.323
 4199TIP3   OH212518   7.234   4.988   1.771
 4199TIP3    H112519   7.277   5.061   1.721
 4199TIP3    H212520   7.309   4.950   1.818
 4200TIP3   OH212521   6.881   4.886   1.163
 4200TIP3    H112522   6.794   4.896   1.208
 4200TIP3    H212523   6.912   4.979   1.162
 4201TIP3   OH212524   7.616   4.624   1.733
 4201TIP3    H112525   7.604   4.623   1.831
 4201TIP3    H212526   7.695   4.569   1.723
 4202TIP3   OH212527   7.580   4.521   0.631
 4202TIP3    H112528   7.632   4.491   0.709
 4202TIP3    H212529   7.495   4.479   0.646
 4203TIP3   OH212530   7.867   5.152   1.782
 4203TIP3    H112531   7.787   5.096   1.779
 4203TIP3    H212532   7.848   5.216   1.709
 4204TIP3   OH212533   6.950   3.764   2.298
 4204TIP3    H112534   6.854   3.768   2.310
 4204TIP3    H212535   6.977   3.708   2.373
 4205TIP3   OH212536   7.748   4.446   0.834
 4205TIP3    H112537   7.741   4.379   0.905
 4205TIP3    H212538   7.844   4.441   0.815
 4206TIP3   OH212539   6.670   4.845   1.930
 4206TIP3    H112540   6.722   4.774   1.972
 4206TIP3    H212541   6.683   4.917   1.992
 4207TIP3   OH212542   6.944   4.500   0.619
 4207TIP3    H112543   6.976   4.413   0.589
 4207TIP3    H212544   6.928   4.482   0.713
 4208TIP3   OH212545   6.902   4.489   0.893
 4208TIP3    H112546   6.981   4.460   0.940
 4208TIP3    H212547   6.906   4.586   0.905
 4209TIP3   OH212548   6.635   4.189   1.092
 4209TIP3    H112549   6.570   4.237   1.148
 4209TIP3    H212550   6.652   4.258   1.025
 4210TIP3   OH212551   7.792   3.828   1.972
 4210TIP3    H112552   7.868   3.876   2.009
 4210TIP3    H212553   7.781   3.752   2.032
 4211TIP3   OH212554   7.670   3.579   1.156
 4211TIP3    H112555   7.658   3.597   1.060
 4211TIP3    H212556   7.713   3.662   1.186
 4212TIP3   OH212557   7.176   4.695   0.847
 4212TIP3    H112558   7.090   4.723   0.884
 4212TIP3    H212559   7.166   4.721   0.754
 4213TIP3   OH212560   7.353   3.765   1.252
 4213TIP3    H112561   7.418   3.835   1.233
 4213TIP3    H212562   7.363   3.755   1.349
 4214TIP3   OH212563   7.629   4.079   2.054
 4214TIP3    H112564   7.653   4.132   2.133
 4214TIP3    H212565   7.682   3.998   2.067
 4215TIP3   OH212566   7.498   3.482   1.350
 4215TIP3    H112567   7.488   3.561   1.406
 4215TIP3    H212568   7.562   3.515   1.283
 4216TIP3   OH212569   6.918   4.756   0.926
 4216TIP3    H112570   6.888   4.828   0.867
 4216TIP3    H212571   6.905   4.800   1.014
 4217TIP3   OH212572   7.014   3.489   1.142
 4217TIP3    H112573   7.013   3.579   1.180
 4217TIP3    H212574   7.110   3.470   1.149
 4218TIP3   OH212575   8.249   3.974   2.032
 4218TIP3    H112576   8.151   3.976   2.034
 4218TIP3    H212577   8.263   3.926   1.949
 4219TIP3   OH212578   7.913   4.176   1.423
 4219TIP3    H112579   7.835   4.118   1.434
 4219TIP3    H212580   7.981   4.128   1.476
 4220TIP3   OH212581   6.634   4.396   0.896
 4220TIP3    H112582   6.709   4.457   0.908
 4220TIP3    H212583   6.674   4.337   0.829
 4221TIP3   OH212584   6.571   3.677   1.033
 4221TIP3    H112585   6.578   3.774   1.026
 4221TIP3    H212586   6.496   3.658   0.977
 4222TIP3   OH212587   7.889   5.135   1.372
 4222TIP3    H112588   7.847   5.183   1.298
 4222TIP3    H212589   7.984   5.150   1.351
 4223TIP3   OH212590   6.964   3.398   1.899
 4223TIP3    H112591   6.934   3.363   1.813
 4223TIP3    H212592   6.954   3.320   1.958
 4224TIP3   OH212593   6.495   4.613   1.278
 4224TIP3    H112594   6.435   4.649   1.345
 4224TIP3    H212595   6.464   4.658   1.196
 4225TIP3   OH212596   6.661   5.163   2.352
 4225TIP3    H112597   6.748   5.158   2.398
 4225TIP3    H212598   6.638   5.068   2.350
 4226TIP3   OH212599   7.142   5.118   2.398
 4226TIP3    H112600   7.235   5.094   2.401
 4226TIP3    H212601   7.109   5.057   2.329
 4227TIP3   OH212602   7.141   4.685   0.560
 4227TIP3    H112603   7.068   4.622   0.576
 4227TIP3    H212604   7.195   4.631   0.500
 4228TIP3   OH212605   7.778   5.032   2.134
 4228TIP3    H112606   7.773   4.961   2.203
 4228TIP3    H212607   7.857   5.082   2.163
 4229TIP3   OH212608   6.768   4.210   0.753
 4229TIP3    H112609   6.826   4.183   0.827
 4229TIP3    H212610   6.836   4.220   0.683
 4230TIP3   OH212611   7.397   4.655   2.328
 4230TIP3    H112612   7.353   4.675   2.243
 4230TIP3    H212613   7.427   4.563   2.317
 4231TIP3   OH212614   7.264   4.411   0.586
 4231TIP3    H112615   7.283   4.424   0.681
 4231TIP3    H212616   7.261   4.313   0.581
 4232TIP3   OH212617   7.888   4.666   1.937
 4232TIP3    H112618   7.965   4.707   1.894
 4232TIP3    H212619   7.819   4.733   1.920
 4233TIP3   OH212620   6.929   4.259   2.528
 4233TIP3    H112621   7.023   4.242   2.535
 4233TIP3    H212622   6.918   4.333   2.591
 4234TIP3   OH212623   6.968   4.122   0.966
 4234TIP3    H112624   6.949   4.079   1.051
 4234TIP3    H212625   7.011   4.049   0.916
 4235TIP3   OH212626   7.250   4.190   2.204
 4235TIP3    H112627   7.167   4.243   2.202
 4235TIP3    H212628   7.297   4.223   2.124
 4236TIP3   OH212629   7.080   3.919   0.811
 4236TIP3    H112630   7.056   3.930   0.717
 4236TIP3    H212631   7.178   3.916   0.805
 4237TIP3   OH212632   7.764   4.587   2.330
 4237TIP3    H112633   7.844   4.559   2.285
 4237TIP3    H212634   7.757   4.523   2.403
 4238TIP3   OH212635   7.372   3.976   2.320
 4238TIP3    H112636   7.369   3.899   2.261
 4238TIP3    H212637   7.327   4.046   2.267
 4239TIP3   OH212638   7.371   3.761   2.131
 4239TIP3    H112639   7.399   3.805   2.048
 4239TIP3    H212640   7.278   3.740   2.112
 4240TIP3   OH212641   7.395   4.294   2.004
 4240TIP3    H112642   7.480   4.311   1.962
 4240TIP3    H212643   7.337   4.359   1.958
 4241TIP3   OH212644   7.983   4.266   2.381
 4241TIP3    H112645   8.033   4.185   2.397
 4241TIP3    H212646   8.053   4.327   2.355
 4242TIP3   OH212647   8.018   4.514   2.119
 4242TIP3    H112648   7.961   4.570   2.062
 4242TIP3    H212649   8.106   4.537   2.081
 4243TIP3   OH212650   7.250   4.077   2.561
 4243TIP3    H112651   7.180   4.010   2.574
 4243TIP3    H212652   7.279   4.058   2.469
 4244TIP3   OH212653   7.496   3.524   2.201
 4244TIP3    H112654   7.444   3.605   2.177
 4244TIP3    H212655   7.429   3.454   2.189
 4245TIP3   OH212656   7.629   4.023   2.417
 4245TIP3    H112657   7.610   4.010   2.512
 4245TIP3    H212658   7.541   4.002   2.380
 4246TIP3   OH212659   7.865   3.970   2.274
 4246TIP3    H112660   7.791   3.978   2.337
 4246TIP3    H212661   7.939   3.942   2.332
 4247TIP3   OH212662   8.093   3.910   2.424
 4247TIP3    H112663   8.151   3.836   2.444
 4247TIP3    H212664   8.091   3.958   2.510
 4248TIP3   OH212665   7.082   3.861   2.613
 4248TIP3    H112666   7.085   3.769   2.580
 4248TIP3    H212667   7.120   3.849   2.703
 4249TIP3   OH212668   7.614   3.537   2.446
 4249TIP3    H112669   7.612   3.443   2.467
 4249TIP3    H212670   7.566   3.539   2.361
 4250TIP3   OH212671   7.665   3.748   2.619
 4250TIP3    H112672   7.648   3.681   2.549
 4250TIP3    H212673   7.587   3.807   2.611
 4251TIP3   OH212674   6.889   4.968   0.759
 4251TIP3    H112675   6.981   4.950   0.731
 4251TIP3    H212676   6.863   5.026   0.685
 4252TIP3   OH212677   6.363   4.360   0.928
 4252TIP3    H112678   6.459   4.381   0.918
 4252TIP3    H212679   6.359   4.270   0.889
 4253TIP3   OH212680   6.282   4.969   1.352
 4253TIP3    H112681   6.219   4.907   1.310
 4253TIP3    H212682   6.326   4.909   1.416
 4254TIP3   OH212683   6.417   4.812   1.537
 4254TIP3    H112684   6.412   4.745   1.607
 4254TIP3    H212685   6.469   4.880   1.584
 4255TIP3   OH212686   8.152   5.208   1.336
 4255TIP3    H112687   8.172   5.248   1.423
 4255TIP3    H212688   8.209   5.259   1.276
 4256TIP3   OH212689   8.172   5.239   1.619
 4256TIP3    H112690   8.125   5.153   1.611
 4256TIP3    H212691   8.238   5.213   1.686
 4257TIP3   OH212692   8.219   4.918   2.188
 4257TIP3    H112693   8.147   4.926   2.254
 4257TIP3    H212694   8.262   5.006   2.195
 4258TIP3   OH212695   8.019   4.421   0.802
 4258TIP3    H112696   8.088   4.482   0.767
 4258TIP3    H212697   8.064   4.391   0.884
 4259TIP3   OH212698   8.145   4.318   1.025
 4259TIP3    H112699   8.075   4.266   1.072
 4259TIP3    H212700   8.177   4.376   1.094
 4260TIP3   OH212701   8.217   4.682   1.434
 4260TIP3    H112702   8.263   4.623   1.373
 4260TIP3    H212703   8.209   4.764   1.380
 4261TIP3   OH212704   8.044   4.993   1.635
 4261TIP3    H112705   7.973   5.033   1.689
 4261TIP3    H212706   7.994   4.947   1.565
 4262TIP3   OH212707   8.102   4.188   0.671
 4262TIP3    H112708   8.056   4.196   0.587
 4262TIP3    H212709   8.077   4.272   0.714
 4263TIP3   OH212710   7.881   3.890   0.599
 4263TIP3    H112711   7.962   3.904   0.547
 4263TIP3    H212712   7.895   3.797   0.626
 4264TIP3   OH212713   7.971   4.157   1.155
 4264TIP3    H112714   7.978   4.061   1.139
 4264TIP3    H212715   7.955   4.162   1.252
 4265TIP3   OH212716   6.598   4.231   1.901
 4265TIP3    H112717   6.601   4.198   1.810
 4265TIP3    H212718   6.695   4.234   1.923
 4266TIP3   OH212719   8.261   4.585   2.011
 4266TIP3    H112720   8.333   4.517   2.020
 4266TIP3    H212721   8.296   4.640   1.940
 4267TIP3   OH212722   8.449   4.405   2.071
 4267TIP3    H112723   8.389   4.333   2.099
 4267TIP3    H212724   8.532   4.359   2.052
 4268TIP3   OH212725   7.913   3.610   0.632
 4268TIP3    H112726   7.967   3.542   0.587
 4268TIP3    H212727   7.824   3.570   0.625
 4269TIP3   OH212728   7.973   3.885   1.049
 4269TIP3    H112729   8.011   3.795   1.066
 4269TIP3    H212730   8.023   3.908   0.967
 4270TIP3   OH212731   8.109   4.039   1.560
 4270TIP3    H112732   8.199   4.061   1.527
 4270TIP3    H212733   8.120   4.070   1.652
 4271TIP3   OH212734   8.200   4.191   1.785
 4271TIP3    H112735   8.124   4.230   1.832
 4271TIP3    H212736   8.231   4.266   1.731
 4272TIP3   OH212737   6.813   3.908   2.569
 4272TIP3    H112738   6.910   3.909   2.577
 4272TIP3    H212739   6.793   3.823   2.613
 4273TIP3   OH212740   8.057   3.635   1.103
 4273TIP3    H112741   8.135   3.610   1.154
 4273TIP3    H212742   8.009   3.550   1.095
 4274TIP3   OH212743   6.780   3.607   1.909
 4274TIP3    H112744   6.842   3.532   1.917
 4274TIP3    H212745   6.843   3.681   1.900
 4275TIP3   OH212746   6.578   3.878   1.981
 4275TIP3    H112747   6.633   3.881   1.900
 4275TIP3    H212748   6.603   3.961   2.025
 4276TIP3   OH212749   8.496   3.973   2.150
 4276TIP3    H112750   8.406   3.959   2.113
 4276TIP3    H212751   8.535   3.885   2.147
 4277TIP3   OH212752   6.568   3.381   1.483
 4277TIP3    H112753   6.476   3.376   1.513
 4277TIP3    H212754   6.561   3.441   1.406
 4278TIP3   OH212755   7.725   5.092   1.003
 4278TIP3    H112756   7.775   5.084   0.919
 4278TIP3    H212757   7.776   5.161   1.050
 4279TIP3   OH212758   6.788   3.462   2.297
 4279TIP3    H112759   6.736   3.459   2.379
 4279TIP3    H212760   6.722   3.501   2.235
 4280TIP3   OH212761   6.825   4.902   2.372
 4280TIP3    H112762   6.744   4.860   2.339
 4280TIP3    H212763   6.834   4.851   2.454
 4281TIP3   OH212764   7.009   4.928   1.923
 4281TIP3    H112765   6.959   5.003   1.885
 4281TIP3    H212766   7.094   4.942   1.877
 4282TIP3   OH212767   7.446   5.168   2.059
 4282TIP3    H112768   7.488   5.167   2.148
 4282TIP3    H212769   7.511   5.221   2.009
 4283TIP3   OH212770   7.625   5.324   1.922
 4283TIP3    H112771   7.695   5.272   1.880
 4283TIP3    H212772   7.679   5.381   1.983
 4284TIP3   OH212773   8.365   3.694   2.032
 4284TIP3    H112774   8.293   3.712   1.969
 4284TIP3    H212775   8.384   3.600   2.014
 4285TIP3   OH212776   6.680   5.184   1.944
 4285TIP3    H112777   6.589   5.216   1.924
 4285TIP3    H212778   6.693   5.220   2.032
 4286TIP3   OH212779   6.918   5.163   1.807
 4286TIP3    H112780   6.830   5.173   1.850
 4286TIP3    H212781   6.898   5.193   1.716
 4287TIP3   OH212782   7.343   5.187   1.603
 4287TIP3    H112783   7.272   5.204   1.539
 4287TIP3    H212784   7.353   5.275   1.645
 4288TIP3   OH212785   7.612   5.126   1.656
 4288TIP3    H112786   7.518   5.143   1.636
 4288TIP3    H212787   7.655   5.200   1.611
 4289TIP3   OH212788   7.817   5.317   1.567
 4289TIP3    H112789   7.803   5.401   1.519
 4289TIP3    H212790   7.843   5.256   1.494
 4290TIP3   OH212791   6.593   4.973   1.690
 4290TIP3    H112792   6.619   4.945   1.780
 4290TIP3    H212793   6.665   4.931   1.639
 4291TIP3   OH212794   6.789   4.848   1.550
 4291TIP3    H112795   6.802   4.763   1.598
 4291TIP3    H212796   6.881   4.883   1.547
 4292TIP3   OH212797   7.056   4.939   1.556
 4292TIP3    H112798   7.085   4.846   1.547
 4292TIP3    H212799   7.105   4.962   1.638
 4293TIP3   OH212800   7.629   3.599   1.645
 4293TIP3    H112801   7.587   3.524   1.691
 4293TIP3    H212802   7.702   3.555   1.596
 4294TIP3   OH212803   8.152   3.459   1.525
 4294TIP3    H112804   8.219   3.529   1.541
 4294TIP3    H212805   8.068   3.510   1.522
 4295TIP3   OH212806   6.875   3.303   1.653
 4295TIP3    H112807   6.783   3.270   1.657
 4295TIP3    H212808   6.924   3.218   1.649
 4296TIP3   OH212809   6.662   3.177   1.305
 4296TIP3    H112810   6.695   3.233   1.232
 4296TIP3    H212811   6.639   3.244   1.372
 4297TIP3   OH212812   7.323   3.337   1.536
 4297TIP3    H112813   7.378   3.382   1.470
 4297TIP3    H212814   7.354   3.377   1.618
 4298TIP3   OH212815   7.855   3.489   1.520
 4298TIP3    H112816   7.859   3.448   1.433
 4298TIP3    H212817   7.849   3.411   1.580
 4299TIP3   OH212818   7.907   3.403   1.091
 4299TIP3    H112819   7.819   3.443   1.090
 4299TIP3    H212820   7.888   3.317   1.135
 4300TIP3   OH212821   6.379   4.755   1.079
 4300TIP3    H112822   6.292   4.724   1.047
 4300TIP3    H212823   6.373   4.848   1.050
 4301TIP3   OH212824   6.785   3.334   1.063
 4301TIP3    H112825   6.832   3.270   1.007
 4301TIP3    H212826   6.859   3.387   1.099
 4302TIP3   OH212827   7.289   3.513   1.166
 4302TIP3    H112828   7.351   3.465   1.223
 4302TIP3    H212829   7.313   3.605   1.190
 4303TIP3   OH212830   7.143   4.940   0.664
 4303TIP3    H112831   7.200   4.993   0.606
 4303TIP3    H212832   7.141   4.855   0.613
 4304TIP3   OH212833   7.868   5.052   0.769
 4304TIP3    H112834   7.874   4.955   0.756
 4304TIP3    H212835   7.829   5.078   0.683
 4305TIP3   OH212836   7.082   3.585   2.546
 4305TIP3    H112837   7.046   3.515   2.602
 4305TIP3    H212838   7.176   3.585   2.575
 4306TIP3   OH212839   7.332   3.582   2.668
 4306TIP3    H112840   7.421   3.556   2.640
 4306TIP3    H212841   7.313   3.515   2.736
 4307TIP3   OH212842   6.461   4.779   0.720
 4307TIP3    H112843   6.463   4.790   0.816
 4307TIP3    H212844   6.546   4.733   0.702
 4308TIP3   OH212845   8.092   5.199   1.943
 4308TIP3    H112846   8.014   5.168   1.894
 4308TIP3    H212847   8.072   5.295   1.951
 4309TIP3   OH212848   8.280   4.077   0.984
 4309TIP3    H112849   8.237   4.164   0.992
 4309TIP3    H212850   8.219   4.032   0.921
 4310TIP3   OH212851   8.231   4.572   0.727
 4310TIP3    H112852   8.239   4.611   0.639
 4310TIP3    H212853   8.289   4.629   0.781
 4311TIP3   OH212854   8.407   4.750   1.629
 4311TIP3    H112855   8.340   4.717   1.566
 4311TIP3    H212856   8.445   4.668   1.667
 4312TIP3   OH212857   8.265   4.928   1.280
 4312TIP3    H112858   8.360   4.942   1.276
 4312TIP3    H212859   8.235   5.010   1.323
 4313TIP3   OH212860   8.491   4.536   1.779
 4313TIP3    H112861   8.555   4.479   1.827
 4313TIP3    H212862   8.424   4.471   1.752
 4314TIP3   OH212863   8.468   5.103   1.412
 4314TIP3    H112864   8.489   5.033   1.474
 4314TIP3    H212865   8.477   5.184   1.464
 4315TIP3   OH212866   8.282   4.871   0.756
 4315TIP3    H112867   8.241   4.902   0.838
 4315TIP3    H212868   8.358   4.930   0.748
 4316TIP3   OH212869   8.451   5.417   1.831
 4316TIP3    H112870   8.509   5.414   1.911
 4316TIP3    H212871   8.425   5.324   1.825
 4317TIP3   OH212872   8.565   4.817   2.050
 4317TIP3    H112873   8.558   4.721   2.056
 4317TIP3    H212874   8.484   4.838   1.999
 4318TIP3   OH212875   8.065   5.228   0.851
 4318TIP3    H112876   8.004   5.172   0.799
 4318TIP3    H212877   8.110   5.160   0.905
 4319TIP3   OH212878   8.209   5.066   1.021
 4319TIP3    H112879   8.192   5.003   1.093
 4319TIP3    H212880   8.268   5.130   1.066
 4320TIP3   OH212881   8.415   4.472   1.380
 4320TIP3    H112882   8.436   4.439   1.290
 4320TIP3    H212883   8.501   4.507   1.404
 4321TIP3   OH212884   8.351   4.150   1.496
 4321TIP3    H112885   8.402   4.140   1.413
 4321TIP3    H212886   8.350   4.246   1.508
 4322TIP3   OH212887   8.610   5.126   1.860
 4322TIP3    H112888   8.512   5.125   1.862
 4322TIP3    H212889   8.627   5.116   1.956
 4323TIP3   OH212890   8.464   5.417   1.429
 4323TIP3    H112891   8.378   5.460   1.407
 4323TIP3    H212892   8.485   5.461   1.512
 4324TIP3   OH212893   8.393   5.230   1.173
 4324TIP3    H112894   8.421   5.208   1.264
 4324TIP3    H212895   8.456   5.172   1.124
 4325TIP3   OH212896   0.016   5.093   2.910
 4325TIP3    H112897  -0.012   5.185   2.891
 4325TIP3    H212898  -0.058   5.045   2.868
 4326TIP3   OH212899   0.025   5.095   3.300
 4326TIP3    H112900   0.065   5.077   3.388
 4326TIP3    H212901  -0.004   5.006   3.275
 4327TIP3   OH212902   0.263   5.408   2.980
 4327TIP3    H112903   0.255   5.335   3.044
 4327TIP3    H212904   0.298   5.480   3.035
 4328TIP3   OH212905  -0.047   5.854   2.989
 4328TIP3    H112906  -0.038   5.788   2.917
 4328TIP3    H212907   0.025   5.825   3.048
 4329TIP3   OH212908  -0.169   5.288   3.333
 4329TIP3    H112909  -0.099   5.224   3.309
 4329TIP3    H212910  -0.113   5.363   3.360
 4330TIP3   OH212911   0.233   4.834   3.371
 4330TIP3    H112912   0.278   4.750   3.394
 4330TIP3    H212913   0.198   4.812   3.283
 4331TIP3   OH212914   0.267   4.583   2.958
 4331TIP3    H112915   0.337   4.567   3.026
 4331TIP3    H212916   0.322   4.615   2.884
 4332TIP3   OH212917  -0.102   5.307   2.792
 4332TIP3    H112918  -0.122   5.301   2.697
 4332TIP3    H212919  -0.141   5.393   2.816
 4333TIP3   OH212920   0.467   4.589   3.140
 4333TIP3    H112921   0.462   4.545   3.226
 4333TIP3    H212922   0.526   4.665   3.160
 4334TIP3   OH212923   0.322   5.654   3.146
 4334TIP3    H112924   0.230   5.642   3.177
 4334TIP3    H212925   0.317   5.740   3.101
 4335TIP3   OH212926   0.630   4.540   3.496
 4335TIP3    H112927   0.548   4.586   3.473
 4335TIP3    H212928   0.699   4.602   3.463
 4336TIP3   OH212929  -0.074   4.182   3.479
 4336TIP3    H112930  -0.085   4.087   3.503
 4336TIP3    H212931  -0.125   4.224   3.550
 4337TIP3   OH212932   0.040   5.680   2.800
 4337TIP3    H112933   0.090   5.597   2.779
 4337TIP3    H212934   0.106   5.747   2.769
 4338TIP3   OH212935   0.179   5.464   2.722
 4338TIP3    H112936   0.176   5.382   2.670
 4338TIP3    H212937   0.213   5.433   2.808
 4339TIP3   OH212938   0.559   5.561   3.484
 4339TIP3    H112939   0.549   5.482   3.427
 4339TIP3    H212940   0.546   5.634   3.420
 4340TIP3   OH212941  -0.161   4.956   2.738
 4340TIP3    H112942  -0.247   4.980   2.700
 4340TIP3    H212943  -0.105   4.951   2.659
 4341TIP3   OH212944  -0.160   4.746   2.456
 4341TIP3    H112945  -0.089   4.798   2.499
 4341TIP3    H212946  -0.106   4.680   2.408
 4342TIP3   OH212947   0.760   5.206   3.349
 4342TIP3    H112948   0.672   5.247   3.342
 4342TIP3    H212949   0.787   5.203   3.255
 4343TIP3   OH212950   0.204   5.042   2.718
 4343TIP3    H112951   0.149   5.059   2.797
 4343TIP3    H212952   0.287   5.012   2.760
 4344TIP3   OH212953   0.427   5.078   3.648
 4344TIP3    H112954   0.426   5.162   3.698
 4344TIP3    H212955   0.350   5.089   3.590
 4345TIP3   OH212956   0.071   5.639   3.256
 4345TIP3    H112957   0.082   5.721   3.308
 4345TIP3    H212958   0.077   5.568   3.324
 4346TIP3   OH212959   0.042   4.906   2.547
 4346TIP3    H112960   0.103   4.964   2.597
 4346TIP3    H212961   0.069   4.926   2.454
 4347TIP3   OH212962  -0.203   5.558   2.833
 4347TIP3    H112963  -0.111   5.592   2.835
 4347TIP3    H212964  -0.249   5.636   2.799
 4348TIP3   OH212965   0.555   4.132   2.592
 4348TIP3    H112966   0.473   4.154   2.641
 4348TIP3    H212967   0.569   4.215   2.541
 4349TIP3   OH212968   0.353   5.504   2.136
 4349TIP3    H112969   0.363   5.600   2.120
 4349TIP3    H212970   0.446   5.473   2.125
 4350TIP3   OH212971   0.795   5.908   3.531
 4350TIP3    H112972   0.798   5.812   3.546
 4350TIP3    H212973   0.713   5.931   3.580
 4351TIP3   OH212974  -0.054   5.750   2.263
 4351TIP3    H112975  -0.041   5.665   2.218
 4351TIP3    H212976  -0.059   5.725   2.357
 4352TIP3   OH212977  -0.058   5.760   2.541
 4352TIP3    H112978  -0.134   5.770   2.601
 4352TIP3    H212979   0.007   5.720   2.602
 4353TIP3   OH212980   0.679   5.036   3.810
 4353TIP3    H112981   0.601   5.040   3.753
 4353TIP3    H212982   0.707   4.943   3.796
 4354TIP3   OH212983   0.225   4.383   3.813
 4354TIP3    H112984   0.298   4.354   3.872
 4354TIP3    H212985   0.145   4.359   3.864
 4355TIP3   OH212986   0.448   4.802   3.720
 4355TIP3    H112987   0.409   4.804   3.810
 4355TIP3    H212988   0.438   4.894   3.690
 4356TIP3   OH212989   0.117   4.942   2.291
 4356TIP3    H112990   0.081   4.914   2.205
 4356TIP3    H212991   0.204   4.978   2.264
 4357TIP3   OH212992  -0.172   4.307   2.585
 4357TIP3    H112993  -0.202   4.302   2.678
 4357TIP3    H212994  -0.207   4.222   2.551
 4358TIP3   OH212995  -0.015   4.757   2.878
 4358TIP3    H112996  -0.064   4.827   2.830
 4358TIP3    H212997   0.043   4.721   2.807
 4359TIP3   OH212998   0.177   5.038   3.970
 4359TIP3    H112999   0.150   4.963   4.027
 4359TIP3    H213000   0.273   5.039   3.989
 4360TIP3   OH213001   0.141   4.779   3.115
 4360TIP3    H113002   0.082   4.804   3.041
 4360TIP3    H213003   0.182   4.700   3.073
 4361TIP3   OH213004  -0.506   4.270   2.545
 4361TIP3    H113005  -0.506   4.245   2.639
 4361TIP3    H213006  -0.587   4.322   2.540
 4362TIP3   OH213007   0.136   5.022   3.539
 4362TIP3    H113008   0.179   4.957   3.478
 4362TIP3    H213009   0.125   4.966   3.618
 4363TIP3   OH213010  -0.146   4.490   3.202
 4363TIP3    H113011  -0.224   4.496   3.262
 4363TIP3    H213012  -0.073   4.474   3.265
 4364TIP3   OH213013  -0.463   4.522   2.874
 4364TIP3    H113014  -0.366   4.532   2.890
 4364TIP3    H213015  -0.478   4.595   2.813
 4365TIP3   OH213016   0.307   4.573   3.418
 4365TIP3    H113017   0.275   4.583   3.510
 4365TIP3    H213018   0.245   4.507   3.383
 4366TIP3   OH213019   0.494   6.254   3.635
 4366TIP3    H113020   0.491   6.279   3.541
 4366TIP3    H213021   0.570   6.305   3.667
 4367TIP3   OH213022  -0.072   4.833   3.328
 4367TIP3    H113023  -0.027   4.790   3.254
 4367TIP3    H213024  -0.061   4.765   3.397
 4368TIP3   OH213025  -0.087   4.700   3.595
 4368TIP3    H113026  -0.174   4.737   3.569
 4368TIP3    H213027  -0.039   4.775   3.636
 4369TIP3   OH213028   0.518   5.346   3.318
 4369TIP3    H113029   0.547   5.394   3.237
 4369TIP3    H213030   0.437   5.301   3.288
 4370TIP3   OH213031   0.078   4.415   2.568
 4370TIP3    H113032  -0.018   4.393   2.570
 4370TIP3    H213033   0.080   4.510   2.588
 4371TIP3   OH213034   0.071   5.441   3.698
 4371TIP3    H113035   0.100   5.389   3.774
 4371TIP3    H213036  -0.026   5.438   3.707
 4372TIP3   OH213037   0.146   4.670   2.666
 4372TIP3    H113038   0.243   4.669   2.680
 4372TIP3    H213039   0.134   4.750   2.611
 4373TIP3   OH213040  -0.239   5.264   2.545
 4373TIP3    H113041  -0.289   5.346   2.554
 4373TIP3    H213042  -0.302   5.199   2.584
 4374TIP3   OH213043  -0.012   5.232   3.916
 4374TIP3    H113044  -0.034   5.197   3.827
 4374TIP3    H213045   0.073   5.187   3.934
 4375TIP3   OH213046   0.190   5.716   3.566
 4375TIP3    H113047   0.095   5.699   3.575
 4375TIP3    H213048   0.213   5.747   3.656
 4376TIP3   OH213049   0.583   4.760   2.496
 4376TIP3    H113050   0.521   4.717   2.432
 4376TIP3    H213051   0.582   4.850   2.456
 4377TIP3   OH213052   0.811   5.625   3.571
 4377TIP3    H113053   0.713   5.612   3.566
 4377TIP3    H213054   0.836   5.588   3.483
 4378TIP3   OH213055   0.297   5.575   2.406
 4378TIP3    H113056   0.265   5.505   2.464
 4378TIP3    H213057   0.305   5.530   2.320
 4379TIP3   OH213058   0.282   5.208   3.232
 4379TIP3    H113059   0.190   5.176   3.241
 4379TIP3    H213060   0.324   5.127   3.194
 4380TIP3   OH213061   0.085   5.414   3.419
 4380TIP3    H113062   0.096   5.417   3.516
 4380TIP3    H213063   0.158   5.357   3.391
 4381TIP3   OH213064   0.062   5.308   2.302
 4381TIP3    H113065   0.095   5.279   2.389
 4381TIP3    H213066  -0.027   5.265   2.298
 4382TIP3   OH213067   0.329   5.941   3.473
 4382TIP3    H113068   0.259   5.872   3.473
 4382TIP3    H213069   0.302   5.999   3.399
 4383TIP3   OH213070   0.386   5.780   2.118
 4383TIP3    H113071   0.429   5.859   2.080
 4383TIP3    H213072   0.305   5.823   2.154
 4384TIP3   OH213073   0.210   5.246   2.535
 4384TIP3    H113074   0.201   5.173   2.599
 4384TIP3    H213075   0.306   5.237   2.514
 4385TIP3   OH213076   0.235   4.628   3.683
 4385TIP3    H113077   0.324   4.666   3.701
 4385TIP3    H213078   0.237   4.544   3.733
 4386TIP3   OH213079   0.122   4.367   2.846
 4386TIP3    H113080   0.110   4.386   2.751
 4386TIP3    H213081   0.165   4.450   2.878
 4387TIP3   OH213082  -0.197   4.555   2.940
 4387TIP3    H113083  -0.132   4.626   2.919
 4387TIP3    H213084  -0.182   4.543   3.036
 4388TIP3   OH213085   0.084   4.868   3.754
 4388TIP3    H113086   0.120   4.912   3.833
 4388TIP3    H213087   0.139   4.786   3.750
 4389TIP3   OH213088  -0.044   4.268   3.043
 4389TIP3    H113089  -0.058   4.348   3.096
 4389TIP3    H213090   0.021   4.301   2.977
 4390TIP3   OH213091  -0.497   4.238   2.833
 4390TIP3    H113092  -0.501   4.317   2.889
 4390TIP3    H213093  -0.400   4.229   2.828
 4391TIP3   OH213094   0.732   4.788   3.715
 4391TIP3    H113095   0.640   4.762   3.699
 4391TIP3    H213096   0.771   4.782   3.624
 4392TIP3   OH213097   0.379   4.963   3.120
 4392TIP3    H113098   0.306   4.900   3.136
 4392TIP3    H213099   0.454   4.918   3.164
 4393TIP3   OH213100   0.338   5.922   3.061
 4393TIP3    H113101   0.298   5.976   2.989
 4393TIP3    H213102   0.433   5.940   3.044
 4394TIP3   OH213103  -0.425   5.489   2.228
 4394TIP3    H113104  -0.468   5.401   2.223
 4394TIP3    H213105  -0.349   5.472   2.169
 4395TIP3   OH213106   0.234   5.815   3.822
 4395TIP3    H113107   0.230   5.749   3.896
 4395TIP3    H213108   0.311   5.869   3.850
 4396TIP3   OH213109   0.016   5.509   2.126
 4396TIP3    H113110   0.039   5.443   2.195
 4396TIP3    H213111   0.100   5.518   2.079
 4397TIP3   OH213112  -0.192   5.211   2.267
 4397TIP3    H113113  -0.220   5.221   2.360
 4397TIP3    H213114  -0.212   5.116   2.252
 4398TIP3   OH213115   0.351   5.438   3.623
 4398TIP3    H113116   0.418   5.494   3.577
 4398TIP3    H213117   0.273   5.496   3.623
 4399TIP3   OH213118  -0.428   4.714   2.498
 4399TIP3    H113119  -0.446   4.655   2.424
 4399TIP3    H213120  -0.331   4.725   2.492
 4400TIP3   OH213121   0.237   5.377   4.026
 4400TIP3    H113122   0.313   5.345   3.975
 4400TIP3    H213123   0.235   5.313   4.100
 4401TIP3   OH213124   0.346   5.031   2.167
 4401TIP3    H113125   0.328   4.985   2.083
 4401TIP3    H213126   0.313   5.121   2.144
 4402TIP3   OH213127  -0.167   4.731   4.011
 4402TIP3    H113128  -0.137   4.669   3.942
 4402TIP3    H213129  -0.202   4.805   3.960
 4403TIP3   OH213130  -0.170   4.538   3.797
 4403TIP3    H113131  -0.119   4.587   3.728
 4403TIP3    H213132  -0.243   4.504   3.743
 4404TIP3   OH213133  -0.113   5.141   3.679
 4404TIP3    H113134  -0.036   5.100   3.635
 4404TIP3    H213135  -0.185   5.109   3.622
 4405TIP3   OH213136   0.442   5.045   4.069
 4405TIP3    H113137   0.484   4.959   4.088
 4405TIP3    H213138   0.514   5.090   4.022
 4406TIP3   OH213139   0.472   5.310   3.823
 4406TIP3    H113140   0.421   5.361   3.756
 4406TIP3    H213141   0.563   5.322   3.786
 4407TIP3   OH213142  -0.036   4.311   3.890
 4407TIP3    H113143  -0.087   4.389   3.861
 4407TIP3    H213144  -0.102   4.240   3.880
 4408TIP3   OH213145   0.083   4.827   4.113
 4408TIP3    H113146   0.089   4.795   4.205
 4408TIP3    H213147  -0.007   4.795   4.091
 4409TIP3   OH213148   0.322   4.773   3.961
 4409TIP3    H113149   0.252   4.767   4.028
 4409TIP3    H213150   0.400   4.739   4.011
 4410TIP3   OH213151   0.541   4.703   4.108
 4410TIP3    H113152   0.561   4.608   4.124
 4410TIP3    H213153   0.546   4.741   4.198
 4411TIP3   OH213154   0.044   4.318   4.151
 4411TIP3    H113155   0.111   4.246   4.149
 4411TIP3    H213156   0.011   4.312   4.059
 4412TIP3   OH213157   0.133   4.526   4.303
 4412TIP3    H113158   0.108   4.451   4.244
 4412TIP3    H213159   0.053   4.582   4.299
 4413TIP3   OH213160   0.593   6.015   3.026
 4413TIP3    H113161   0.624   6.039   3.115
 4413TIP3    H213162   0.666   6.044   2.970
 4414TIP3   OH213163   0.629   6.026   3.308
 4414TIP3    H113164   0.580   5.941   3.302
 4414TIP3    H213165   0.701   5.999   3.368
 4415TIP3   OH213166   0.672   5.708   3.875
 4415TIP3    H113167   0.604   5.716   3.944
 4415TIP3    H213168   0.717   5.795   3.881
 4416TIP3   OH213169   0.486   5.219   2.498
 4416TIP3    H113170   0.553   5.282   2.468
 4416TIP3    H213171   0.530   5.180   2.577
 4417TIP3   OH213172   0.613   5.087   2.703
 4417TIP3    H113173   0.549   5.044   2.764
 4417TIP3    H213174   0.682   5.120   2.765
 4418TIP3   OH213175   0.665   5.481   3.128
 4418TIP3    H113176   0.724   5.411   3.093
 4418TIP3    H213177   0.667   5.548   3.057
 4419TIP3   OH213178   0.501   5.780   3.321
 4419TIP3    H113179   0.431   5.819   3.377
 4419TIP3    H213180   0.448   5.731   3.254
 4420TIP3   OH213181   0.551   4.995   2.347
 4420TIP3    H113182   0.479   4.996   2.281
 4420TIP3    H213183   0.523   5.070   2.403
 4421TIP3   OH213184   0.418   4.668   2.299
 4421TIP3    H113185   0.377   4.696   2.217
 4421TIP3    H213186   0.399   4.571   2.297
 4422TIP3   OH213187   0.425   4.944   2.849
 4422TIP3    H113188   0.437   4.848   2.840
 4422TIP3    H213189   0.415   4.955   2.946
 4423TIP3   OH213190   0.717   5.368   3.709
 4423TIP3    H113191   0.786   5.298   3.701
 4423TIP3    H213192   0.740   5.427   3.636
 4424TIP3   OH213193   0.901   5.171   3.724
 4424TIP3    H113194   0.827   5.115   3.755
 4424TIP3    H213195   0.977   5.111   3.742
 4425TIP3   OH213196   0.365   4.402   2.283
 4425TIP3    H113197   0.436   4.367   2.340
 4425TIP3    H213198   0.289   4.344   2.302
 4426TIP3   OH213199   0.425   4.660   2.736
 4426TIP3    H113200   0.466   4.571   2.752
 4426TIP3    H213201   0.483   4.692   2.666
 4427TIP3   OH213202   0.600   4.823   3.230
 4427TIP3    H113203   0.696   4.807   3.224
 4427TIP3    H213204   0.599   4.872   3.316
 4428TIP3   OH213205   0.606   4.981   3.451
 4428TIP3    H113206   0.557   5.031   3.518
 4428TIP3    H213207   0.688   5.033   3.439
 4429TIP3   OH213208   1.101   4.572   4.020
 4429TIP3    H113209   1.166   4.510   3.981
 4429TIP3    H213210   1.074   4.625   3.942
 4430TIP3   OH213211   0.532   4.411   2.780
 4430TIP3    H113212   0.581   4.395   2.863
 4430TIP3    H213213   0.472   4.333   2.779
 4431TIP3   OH213214   0.974   4.713   3.821
 4431TIP3    H113215   0.886   4.756   3.816
 4431TIP3    H213216   0.955   4.637   3.763
 4432TIP3   OH213217   0.608   4.341   2.414
 4432TIP3    H113218   0.648   4.271   2.358
 4432TIP3    H213219   0.676   4.411   2.412
 4433TIP3   OH213220   0.192   5.873   2.688
 4433TIP3    H113221   0.232   5.863   2.599
 4433TIP3    H213222   0.247   5.942   2.727
 4434TIP3   OH213223   0.116   6.081   3.613
 4434TIP3    H113224   0.190   6.022   3.592
 4434TIP3    H213225   0.160   6.144   3.675
 4435TIP3   OH213226   0.879   4.467   3.714
 4435TIP3    H113227   0.795   4.469   3.665
 4435TIP3    H213228   0.908   4.374   3.700
 4436TIP3   OH213229   0.078   5.907   3.328
 4436TIP3    H113230  -0.013   5.904   3.362
 4436TIP3    H213231   0.100   6.001   3.327
 4437TIP3   OH213232   0.279   6.113   3.257
 4437TIP3    H113233   0.263   6.192   3.201
 4437TIP3    H213234   0.297   6.045   3.188
 4438TIP3   OH213235   0.083   4.384   3.330
 4438TIP3    H113236   0.043   4.305   3.371
 4438TIP3    H213237   0.159   4.345   3.281
 4439TIP3   OH213238   0.599   4.262   3.228
 4439TIP3    H113239   0.637   4.316   3.156
 4439TIP3    H213240   0.505   4.289   3.226
 4440TIP3   OH213241   0.697   4.365   2.995
 4440TIP3    H113242   0.773   4.313   2.961
 4440TIP3    H213243   0.731   4.456   2.979
 4441TIP3   OH213244  -0.211   4.118   3.226
 4441TIP3    H113245  -0.164   4.165   3.155
 4441TIP3    H213246  -0.169   4.155   3.306
 4442TIP3   OH213247   0.309   4.271   3.208
 4442TIP3    H113248   0.322   4.229   3.122
 4442TIP3    H213249   0.302   4.193   3.268
 4443TIP3   OH213250   0.351   4.197   2.772
 4443TIP3    H113251   0.263   4.237   2.786
 4443TIP3    H213252   0.339   4.111   2.817
 4444TIP3   OH213253  -0.234   4.298   2.850
 4444TIP3    H113254  -0.173   4.257   2.914
 4444TIP3    H213255  -0.219   4.393   2.872
 4445TIP3   OH213256   0.323   5.844   2.449
 4445TIP3    H113257   0.317   5.746   2.436
 4445TIP3    H213258   0.279   5.876   2.368
 4446TIP3   OH213259  -0.190   4.340   4.363
 4446TIP3    H113260  -0.135   4.352   4.284
 4446TIP3    H213261  -0.139   4.268   4.406
 4447TIP3   OH213262   0.614   4.437   4.140
 4447TIP3    H113263   0.633   4.404   4.231
 4447TIP3    H213264   0.704   4.432   4.099
 4448TIP3   OH213265   0.551   5.984   3.635
 4448TIP3    H113266   0.474   5.954   3.582
 4448TIP3    H213267   0.531   6.080   3.642
 4449TIP3   OH213268   1.820   5.362   2.394
 4449TIP3    H113269   1.786   5.452   2.372
 4449TIP3    H213270   1.743   5.309   2.366
 4450TIP3   OH213271   1.818   5.359   2.788
 4450TIP3    H113272   1.855   5.335   2.875
 4450TIP3    H213273   1.774   5.276   2.762
 4451TIP3   OH213274   1.110   5.254   3.146
 4451TIP3    H113275   1.131   5.178   3.204
 4451TIP3    H213276   1.195   5.302   3.148
 4452TIP3   OH213277   2.064   5.664   2.466
 4452TIP3    H113278   2.044   5.595   2.530
 4452TIP3    H213279   2.093   5.737   2.522
 4453TIP3   OH213280   1.087   5.666   2.868
 4453TIP3    H113281   1.079   5.568   2.867
 4453TIP3    H213282   1.184   5.675   2.866
 4454TIP3   OH213283   0.796   4.865   2.645
 4454TIP3    H113284   0.748   4.946   2.670
 4454TIP3    H213285   0.722   4.811   2.610
 4455TIP3   OH213286   0.846   5.154   2.832
 4455TIP3    H113287   0.895   5.078   2.871
 4455TIP3    H213288   0.910   5.186   2.768
 4456TIP3   OH213289   1.715   6.124   2.483
 4456TIP3    H113290   1.755   6.053   2.429
 4456TIP3    H213291   1.702   6.079   2.568
 4457TIP3   OH213292   1.613   5.589   2.828
 4457TIP3    H113293   1.652   5.509   2.787
 4457TIP3    H213294   1.697   5.634   2.852
 4458TIP3   OH213295   2.636   4.904   2.829
 4458TIP3    H113296   2.662   4.988   2.872
 4458TIP3    H213297   2.648   4.927   2.735
 4459TIP3   OH213298   2.033   5.086   2.856
 4459TIP3    H113299   2.070   4.998   2.879
 4459TIP3    H213300   1.996   5.067   2.768
 4460TIP3   OH213301   1.371   4.747   2.822
 4460TIP3    H113302   1.345   4.819   2.762
 4460TIP3    H213303   1.318   4.673   2.784
 4461TIP3   OH213304   2.064   4.836   2.445
 4461TIP3    H113305   2.135   4.821   2.512
 4461TIP3    H213306   2.118   4.872   2.372
 4462TIP3   OH213307   1.006   4.960   2.926
 4462TIP3    H113308   1.073   4.935   2.992
 4462TIP3    H213309   1.022   4.892   2.858
 4463TIP3   OH213310   1.438   5.146   2.729
 4463TIP3    H113311   1.531   5.120   2.743
 4463TIP3    H213312   1.398   5.061   2.698
 4464TIP3   OH213313   2.705   5.116   2.995
 4464TIP3    H113314   2.619   5.159   2.977
 4464TIP3    H213315   2.716   5.140   3.089
 4465TIP3   OH213316   1.363   4.728   3.259
 4465TIP3    H113317   1.302   4.766   3.193
 4465TIP3    H213318   1.311   4.745   3.341
 4466TIP3   OH213319   1.707   5.581   2.264
 4466TIP3    H113320   1.662   5.564   2.180
 4466TIP3    H213321   1.660   5.662   2.293
 4467TIP3   OH213322   1.470   5.507   3.050
 4467TIP3    H113323   1.408   5.573   3.088
 4467TIP3    H213324   1.510   5.556   2.976
 4468TIP3   OH213325   2.266   4.841   2.628
 4468TIP3    H113326   2.236   4.805   2.713
 4468TIP3    H213327   2.315   4.921   2.656
 4469TIP3   OH213328   1.238   4.852   3.048
 4469TIP3    H113329   1.304   4.921   3.067
 4469TIP3    H213330   1.280   4.806   2.972
 4470TIP3   OH213331   1.298   5.703   3.153
 4470TIP3    H113332   1.270   5.790   3.119
 4470TIP3    H213333   1.220   5.680   3.208
 4471TIP3   OH213334   0.686   5.391   2.388
 4471TIP3    H113335   0.646   5.420   2.304
 4471TIP3    H213336   0.720   5.475   2.424
 4472TIP3   OH213337   2.129   5.908   2.628
 4472TIP3    H113338   2.039   5.898   2.668
 4472TIP3    H213339   2.119   5.994   2.583
 4473TIP3   OH213340   2.423   4.804   2.993
 4473TIP3    H113341   2.334   4.829   2.962
 4473TIP3    H213342   2.481   4.838   2.921
 4474TIP3   OH213343   1.715   4.445   2.979
 4474TIP3    H113344   1.697   4.351   2.998
 4474TIP3    H213345   1.639   4.486   3.026
 4475TIP3   OH213346   1.827   5.951   2.297
 4475TIP3    H113347   1.877   5.868   2.281
 4475TIP3    H213348   1.890   6.016   2.259
 4476TIP3   OH213349   1.973   5.735   2.215
 4476TIP3    H113350   1.927   5.656   2.184
 4476TIP3    H213351   2.014   5.703   2.299
 4477TIP3   OH213352   2.355   5.816   2.972
 4477TIP3    H113353   2.341   5.738   2.914
 4477TIP3    H213354   2.337   5.890   2.910
 4478TIP3   OH213355   1.647   5.211   2.233
 4478TIP3    H113356   1.567   5.262   2.213
 4478TIP3    H213357   1.691   5.208   2.147
 4479TIP3   OH213358   1.604   5.000   1.941
 4479TIP3    H113359   1.671   5.051   1.991
 4479TIP3    H213360   1.662   4.936   1.895
 4480TIP3   OH213361   2.550   5.457   2.820
 4480TIP3    H113362   2.465   5.507   2.824
 4480TIP3    H213363   2.580   5.481   2.730
 4481TIP3   OH213364   1.997   5.295   2.198
 4481TIP3    H113365   1.941   5.319   2.276
 4481TIP3    H213366   2.081   5.270   2.243
 4482TIP3   OH213367   2.228   5.331   3.117
 4482TIP3    H113368   2.224   5.414   3.169
 4482TIP3    H213369   2.141   5.333   3.073
 4483TIP3   OH213370   1.229   5.290   2.617
 4483TIP3    H113371   1.188   5.230   2.551
 4483TIP3    H213372   1.304   5.236   2.651
 4484TIP3   OH213373   1.360   5.708   2.763
 4484TIP3    H113374   1.337   5.667   2.679
 4484TIP3    H213375   1.448   5.669   2.782
 4485TIP3   OH213376   1.364   5.261   2.976
 4485TIP3    H113377   1.394   5.236   2.886
 4485TIP3    H213378   1.406   5.348   2.990
 4486TIP3   OH213379   1.889   5.901   2.752
 4486TIP3    H113380   1.877   5.978   2.809
 4486TIP3    H213381   1.873   5.825   2.812
 4487TIP3   OH213382   1.502   5.820   3.297
 4487TIP3    H113383   1.440   5.879   3.344
 4487TIP3    H213384   1.438   5.765   3.247
 4488TIP3   OH213385   1.833   5.152   2.028
 4488TIP3    H113386   1.892   5.213   2.078
 4488TIP3    H213387   1.860   5.172   1.936
 4489TIP3   OH213388   1.258   5.379   3.397
 4489TIP3    H113389   1.259   5.463   3.446
 4489TIP3    H213390   1.165   5.351   3.414
 4490TIP3   OH213391   1.582   5.827   2.303
 4490TIP3    H113392   1.664   5.879   2.310
 4490TIP3    H213393   1.521   5.888   2.261
 4491TIP3   OH213394   1.294   5.985   3.386
 4491TIP3    H113395   1.259   5.986   3.294
 4491TIP3    H213396   1.213   5.964   3.438
 4492TIP3   OH213397   2.351   4.388   2.080
 4492TIP3    H113398   2.269   4.410   2.128
 4492TIP3    H213399   2.365   4.471   2.029
 4493TIP3   OH213400   1.097   5.134   2.418
 4493TIP3    H113401   1.023   5.172   2.367
 4493TIP3    H213402   1.063   5.047   2.441
 4494TIP3   OH213403   2.151   5.757   1.627
 4494TIP3    H113404   2.159   5.854   1.612
 4494TIP3    H213405   2.244   5.728   1.614
 4495TIP3   OH213406   0.876   5.516   3.331
 4495TIP3    H113407   0.811   5.489   3.263
 4495TIP3    H213408   0.915   5.430   3.358
 4496TIP3   OH213409   0.731   5.712   2.956
 4496TIP3    H113410   0.825   5.695   2.948
 4496TIP3    H213411   0.729   5.783   3.022
 4497TIP3   OH213412   2.591   6.165   3.021
 4497TIP3    H113413   2.591   6.069   3.037
 4497TIP3    H213414   2.508   6.190   3.068
 4498TIP3   OH213415   1.695   5.949   3.153
 4498TIP3    H113416   1.692   6.041   3.187
 4498TIP3    H213417   1.624   5.907   3.207
 4499TIP3   OH213418   1.464   6.074   2.106
 4499TIP3    H113419   1.414   6.056   2.025
 4499TIP3    H213420   1.428   6.161   2.134
 4500TIP3   OH213421   0.899   5.922   2.493
 4500TIP3    H113422   0.944   5.914   2.580
 4500TIP3    H213423   0.851   5.837   2.489
 4501TIP3   OH213424   1.661   5.977   1.746
 4501TIP3    H113425   1.719   5.907   1.710
 4501TIP3    H213426   1.696   5.988   1.837
 4502TIP3   OH213427   1.714   6.027   2.014
 4502TIP3    H113428   1.625   6.036   2.055
 4502TIP3    H213429   1.764   5.986   2.087
 4503TIP3   OH213430   2.482   5.292   3.295
 4503TIP3    H113431   2.396   5.300   3.251
 4503TIP3    H213432   2.498   5.195   3.288
 4504TIP3   OH213433   1.077   5.703   3.316
 4504TIP3    H113434   1.128   5.683   3.398
 4504TIP3    H213435   1.005   5.637   3.322
 4505TIP3   OH213436   1.481   4.527   3.107
 4505TIP3    H113437   1.393   4.493   3.078
 4505TIP3    H213438   1.451   4.605   3.157
 4506TIP3   OH213439   2.011   4.636   3.303
 4506TIP3    H113440   2.078   4.614   3.371
 4506TIP3    H213441   1.927   4.622   3.352
 4507TIP3   OH213442   2.253   5.073   3.223
 4507TIP3    H113443   2.199   5.066   3.304
 4507TIP3    H213444   2.223   5.156   3.184
 4508TIP3   OH213445   1.913   5.192   1.774
 4508TIP3    H113446   1.875   5.172   1.686
 4508TIP3    H213447   1.996   5.236   1.749
 4509TIP3   OH213448   1.625   4.569   2.077
 4509TIP3    H113449   1.589   4.566   2.168
 4509TIP3    H213450   1.582   4.488   2.041
 4510TIP3   OH213451   1.419   5.044   3.128
 4510TIP3    H113452   1.362   5.058   3.207
 4510TIP3    H213453   1.398   5.124   3.076
 4511TIP3   OH213454   1.293   4.929   2.635
 4511TIP3    H113455   1.202   4.901   2.658
 4511TIP3    H213456   1.303   4.884   2.548
 4512TIP3   OH213457   1.785   5.012   2.369
 4512TIP3    H113458   1.733   5.082   2.324
 4512TIP3    H213459   1.838   4.976   2.295
 4513TIP3   OH213460   1.957   5.287   3.451
 4513TIP3    H113461   1.933   5.214   3.513
 4513TIP3    H213462   2.051   5.298   3.474
 4514TIP3   OH213463   1.943   5.036   2.601
 4514TIP3    H113464   1.876   5.062   2.534
 4514TIP3    H213465   1.977   4.956   2.556
 4515TIP3   OH213466   1.231   5.066   3.329
 4515TIP3    H113467   1.260   5.118   3.404
 4515TIP3    H213468   1.208   4.981   3.372
 4516TIP3   OH213469   1.281   4.548   2.041
 4516TIP3    H113470   1.270   4.546   2.138
 4516TIP3    H213471   1.202   4.599   2.015
 4517TIP3   OH213472   0.813   4.588   2.898
 4517TIP3    H113473   0.887   4.618   2.956
 4517TIP3    H213474   0.861   4.552   2.822
 4518TIP3   OH213475   0.785   4.568   2.430
 4518TIP3    H113476   0.832   4.606   2.353
 4518TIP3    H213477   0.725   4.643   2.451
 4519TIP3   OH213478   1.955   5.283   3.022
 4519TIP3    H113479   1.988   5.212   2.963
 4519TIP3    H213480   1.924   5.229   3.098
 4520TIP3   OH213481   1.627   4.744   2.697
 4520TIP3    H113482   1.543   4.745   2.748
 4520TIP3    H213483   1.693   4.739   2.768
 4521TIP3   OH213484   1.059   4.807   2.699
 4521TIP3    H113485   0.963   4.814   2.676
 4521TIP3    H213486   1.077   4.712   2.686
 4522TIP3   OH213487   1.319   4.797   2.397
 4522TIP3    H113488   1.413   4.813   2.373
 4522TIP3    H213489   1.271   4.819   2.314
 4523TIP3   OH213490   2.113   4.821   2.896
 4523TIP3    H113491   2.087   4.834   2.990
 4523TIP3    H213492   2.041   4.762   2.867
 4524TIP3   OH213493   1.171   4.836   2.172
 4524TIP3    H113494   1.099   4.789   2.125
 4524TIP3    H213495   1.222   4.872   2.096
 4525TIP3   OH213496   2.288   6.513   3.122
 4525TIP3    H113497   2.286   6.535   3.027
 4525TIP3    H213498   2.369   6.558   3.151
 4526TIP3   OH213499   1.239   5.629   3.539
 4526TIP3    H113500   1.320   5.652   3.589
 4526TIP3    H213501   1.176   5.617   3.612
 4527TIP3   OH213502   1.701   5.080   2.800
 4527TIP3    H113503   1.772   5.030   2.758
 4527TIP3    H213504   1.698   5.039   2.889
 4528TIP3   OH213505   1.221   4.560   2.683
 4528TIP3    H113506   1.182   4.487   2.735
 4528TIP3    H213507   1.266   4.511   2.613
 4529TIP3   OH213508   1.681   4.987   3.068
 4529TIP3    H113509   1.590   5.012   3.094
 4529TIP3    H213510   1.736   5.041   3.129
 4530TIP3   OH213511   1.416   5.362   2.179
 4530TIP3    H113512   1.344   5.296   2.167
 4530TIP3    H213513   1.395   5.396   2.269
 4531TIP3   OH213514   2.314   5.599   2.805
 4531TIP3    H113515   2.337   5.650   2.725
 4531TIP3    H213516   2.230   5.556   2.780
 4532TIP3   OH213517   1.873   4.673   2.046
 4532TIP3    H113518   1.777   4.651   2.056
 4532TIP3    H213519   1.878   4.767   2.073
 4533TIP3   OH213520   1.823   5.687   3.175
 4533TIP3    H113521   1.842   5.656   3.264
 4533TIP3    H213522   1.777   5.771   3.190
 4534TIP3   OH213523   1.941   4.924   2.150
 4534TIP3    H113524   2.037   4.930   2.165
 4534TIP3    H213525   1.921   5.004   2.099
 4535TIP3   OH213526   1.112   5.393   2.852
 4535TIP3    H113527   1.152   5.356   2.771
 4535TIP3    H213528   1.143   5.331   2.920
 4536TIP3   OH213529   1.562   5.512   2.004
 4536TIP3    H113530   1.513   5.597   2.008
 4536TIP3    H213531   1.507   5.456   2.064
 4537TIP3   OH213532   0.994   5.307   3.470
 4537TIP3    H113533   1.009   5.285   3.564
 4537TIP3    H213534   0.925   5.242   3.446
 4538TIP3   OH213535   1.715   5.424   3.487
 4538TIP3    H113536   1.649   5.360   3.454
 4538TIP3    H213537   1.799   5.383   3.456
 4539TIP3   OH213538   1.974   5.953   3.069
 4539TIP3    H113539   1.879   5.941   3.085
 4539TIP3    H213540   2.001   6.000   3.151
 4540TIP3   OH213541   2.383   5.017   1.981
 4540TIP3    H113542   2.322   4.973   1.917
 4540TIP3    H213543   2.379   5.107   1.942
 4541TIP3   OH213544   2.605   5.877   3.060
 4541TIP3    H113545   2.508   5.868   3.053
 4541TIP3    H213546   2.631   5.845   2.971
 4542TIP3   OH213547   2.090   5.833   1.893
 4542TIP3    H113548   2.058   5.765   1.955
 4542TIP3    H213549   2.099   5.785   1.810
 4543TIP3   OH213550   2.081   5.463   2.720
 4543TIP3    H113551   1.988   5.438   2.736
 4543TIP3    H213552   2.115   5.381   2.677
 4544TIP3   OH213553   1.212   5.692   2.481
 4544TIP3    H113554   1.205   5.772   2.426
 4544TIP3    H213555   1.119   5.670   2.495
 4545TIP3   OH213556   0.776   4.993   2.188
 4545TIP3    H113557   0.821   5.076   2.211
 4545TIP3    H213558   0.699   4.996   2.249
 4546TIP3   OH213559   1.343   5.454   2.421
 4546TIP3    H113560   1.309   5.543   2.443
 4546TIP3    H213561   1.309   5.401   2.496
 4547TIP3   OH213562   1.482   6.032   2.949
 4547TIP3    H113563   1.526   6.104   2.899
 4547TIP3    H213564   1.558   5.993   2.996
 4548TIP3   OH213565   1.126   5.931   2.331
 4548TIP3    H113566   1.042   5.938   2.380
 4548TIP3    H213567   1.158   6.024   2.335
 4549TIP3   OH213568   1.866   5.668   2.908
 4549TIP3    H113569   1.855   5.669   3.006
 4549TIP3    H213570   1.942   5.609   2.898
 4550TIP3   OH213571   1.845   5.565   1.792
 4550TIP3    H113572   1.899   5.539   1.871
 4550TIP3    H213573   1.758   5.533   1.819
 4551TIP3   OH213574   2.116   6.198   2.961
 4551TIP3    H113575   2.039   6.139   2.960
 4551TIP3    H213576   2.095   6.259   2.887
 4552TIP3   OH213577   2.181   6.033   1.609
 4552TIP3    H113578   2.217   6.108   1.558
 4552TIP3    H213579   2.101   6.076   1.646
 4553TIP3   OH213580   1.194   4.810   3.461
 4553TIP3    H113581   1.097   4.795   3.454
 4553TIP3    H213582   1.214   4.766   3.545
 4554TIP3   OH213583   2.007   5.493   2.003
 4554TIP3    H113584   1.995   5.428   2.076
 4554TIP3    H213585   2.104   5.489   1.993
 4555TIP3   OH213586   0.917   5.892   3.108
 4555TIP3    H113587   0.970   5.817   3.140
 4555TIP3    H213588   0.945   5.962   3.168
 4556TIP3   OH213589   1.206   5.541   1.793
 4556TIP3    H113590   1.218   5.448   1.766
 4556TIP3    H213591   1.185   5.531   1.888
 4557TIP3   OH213592   1.149   5.547   2.065
 4557TIP3    H113593   1.223   5.517   2.119
 4557TIP3    H213594   1.155   5.644   2.074
 4558TIP3   OH213595   0.883   5.236   2.270
 4558TIP3    H113596   0.817   5.281   2.326
 4558TIP3    H213597   0.897   5.305   2.201
 4559TIP3   OH213598   2.049   4.867   3.157
 4559TIP3    H113599   2.120   4.908   3.209
 4559TIP3    H213600   2.028   4.788   3.211
 4560TIP3   OH213601   1.926   4.620   2.329
 4560TIP3    H113602   1.908   4.643   2.236
 4560TIP3    H213603   1.963   4.704   2.365
 4561TIP3   OH213604   1.420   5.742   2.011
 4561TIP3    H113605   1.333   5.766   2.049
 4561TIP3    H213606   1.434   5.817   1.952
 4562TIP3   OH213607   1.606   4.808   2.428
 4562TIP3    H113608   1.669   4.882   2.414
 4562TIP3    H213609   1.610   4.798   2.526
 4563TIP3   OH213610   1.882   5.125   3.230
 4563TIP3    H113611   1.898   5.177   3.311
 4563TIP3    H213612   1.926   5.041   3.250
 4564TIP3   OH213613   1.749   4.528   2.529
 4564TIP3    H113614   1.737   4.607   2.585
 4564TIP3    H213615   1.812   4.561   2.462
 4565TIP3   OH213616   1.167   5.819   2.083
 4565TIP3    H113617   1.136   5.890   2.022
 4565TIP3    H213618   1.150   5.861   2.170
 4566TIP3   OH213619   1.264   4.532   2.316
 4566TIP3    H113620   1.259   4.620   2.358
 4566TIP3    H213621   1.360   4.516   2.325
 4567TIP3   OH213622   2.516   5.022   3.213
 4567TIP3    H113623   2.419   5.026   3.226
 4567TIP3    H213624   2.519   4.972   3.130
 4568TIP3   OH213625   2.168   5.217   2.602
 4568TIP3    H113626   2.090   5.161   2.615
 4568TIP3    H213627   2.237   5.169   2.653
 4569TIP3   OH213628   0.883   5.442   2.071
 4569TIP3    H113629   0.957   5.505   2.081
 4569TIP3    H213630   0.924   5.382   2.005
 4570TIP3   OH213631   0.824   4.722   2.206
 4570TIP3    H113632   0.823   4.820   2.205
 4570TIP3    H213633   0.743   4.700   2.158
 4571TIP3   OH213634   2.137   6.180   2.550
 4571TIP3    H113635   2.094   6.227   2.475
 4571TIP3    H213636   2.231   6.198   2.529
 4572TIP3   OH213637   1.223   4.438   3.075
 4572TIP3    H113638   1.185   4.405   2.990
 4572TIP3    H213639   1.207   4.362   3.135
 4573TIP3   OH213640   0.750   5.666   2.456
 4573TIP3    H113641   0.686   5.692   2.524
 4573TIP3    H213642   0.711   5.708   2.375
 4574TIP3   OH213643   0.911   6.210   3.531
 4574TIP3    H113644   0.999   6.207   3.576
 4574TIP3    H213645   0.890   6.115   3.528
 4575TIP3   OH213646   1.388   6.165   3.573
 4575TIP3    H113647   1.481   6.140   3.581
 4575TIP3    H213648   1.359   6.103   3.503
 4576TIP3   OH213649   1.370   5.742   1.701
 4576TIP3    H113650   1.314   5.670   1.740
 4576TIP3    H213651   1.446   5.690   1.669
 4577TIP3   OH213652   2.026   6.077   3.311
 4577TIP3    H113653   2.020   6.006   3.379
 4577TIP3    H213654   2.104   6.126   3.340
 4578TIP3   OH213655   1.806   5.780   1.618
 4578TIP3    H113656   1.843   5.713   1.679
 4578TIP3    H213657   1.865   5.775   1.540
 4579TIP3   OH213658   1.038   5.612   3.732
 4579TIP3    H113659   1.057   5.517   3.740
 4579TIP3    H213660   0.953   5.612   3.685
 4580TIP3   OH213661   1.018   5.256   1.928
 4580TIP3    H113662   1.075   5.225   2.002
 4580TIP3    H213663   1.086   5.262   1.857
 4581TIP3   OH213664   1.645   5.699   3.505
 4581TIP3    H113665   1.602   5.716   3.420
 4581TIP3    H213666   1.675   5.606   3.496
 4582TIP3   OH213667   1.536   5.461   1.735
 4582TIP3    H113668   1.535   5.471   1.832
 4582TIP3    H213669   1.536   5.363   1.727
 4583TIP3   OH213670   2.140   5.709   3.115
 4583TIP3    H113671   2.213   5.755   3.070
 4583TIP3    H213672   2.066   5.770   3.098
 4584TIP3   OH213673   1.167   5.353   3.709
 4584TIP3    H113674   1.240   5.294   3.685
 4584TIP3    H213675   1.194   5.379   3.800
 4585TIP3   OH213676   1.220   5.168   2.144
 4585TIP3    H113677   1.193   5.130   2.230
 4585TIP3    H213678   1.258   5.090   2.098
 4586TIP3   OH213679   1.500   5.238   3.380
 4586TIP3    H113680   1.417   5.290   3.377
 4586TIP3    H213681   1.546   5.269   3.299
 4587TIP3   OH213682   1.327   4.963   1.985
 4587TIP3    H113683   1.302   4.970   1.890
 4587TIP3    H213684   1.425   4.965   1.978
 4588TIP3   OH213685   2.015   5.634   3.508
 4588TIP3    H113686   2.087   5.594   3.459
 4588TIP3    H213687   2.003   5.570   3.581
 4589TIP3   OH213688   2.145   5.288   1.655
 4589TIP3    H113689   2.125   5.244   1.569
 4589TIP3    H213690   2.111   5.378   1.634
 4590TIP3   OH213691   1.627   5.026   3.504
 4590TIP3    H113692   1.618   4.944   3.452
 4590TIP3    H213693   1.575   5.091   3.451
 4591TIP3   OH213694   1.619   4.808   3.306
 4591TIP3    H113695   1.644   4.844   3.219
 4591TIP3    H213696   1.525   4.783   3.291
 4592TIP3   OH213697   1.646   5.341   3.179
 4592TIP3    H113698   1.729   5.351   3.132
 4592TIP3    H213699   1.587   5.405   3.132
 4593TIP3   OH213700   2.224   5.303   3.559
 4593TIP3    H113701   2.269   5.220   3.579
 4593TIP3    H213702   2.295   5.357   3.523
 4594TIP3   OH213703   2.269   5.561   3.300
 4594TIP3    H113704   2.211   5.616   3.241
 4594TIP3    H213705   2.356   5.581   3.260
 4595TIP3   OH213706   1.463   5.149   3.720
 4595TIP3    H113707   1.420   5.066   3.750
 4595TIP3    H213708   1.526   5.113   3.655
 4596TIP3   OH213709   1.746   4.563   3.368
 4596TIP3    H113710   1.696   4.645   3.352
 4596TIP3    H213711   1.674   4.495   3.365
 4597TIP3   OH213712   1.883   5.068   3.594
 4597TIP3    H113713   1.878   5.052   3.690
 4597TIP3    H213714   1.791   5.045   3.567
 4598TIP3   OH213715   2.115   5.018   3.446
 4598TIP3    H113716   2.039   5.020   3.508
 4598TIP3    H213717   2.188   4.988   3.504
 4599TIP3   OH213718   2.352   4.965   3.595
 4599TIP3    H113719   2.362   4.869   3.611
 4599TIP3    H213720   2.344   5.001   3.686
 4600TIP3   OH213721   1.352   4.905   3.786
 4600TIP3    H113722   1.349   4.816   3.747
 4600TIP3    H213723   1.427   4.886   3.847
 4601TIP3   OH213724   1.904   4.598   3.594
 4601TIP3    H113725   1.934   4.507   3.608
 4601TIP3    H213726   1.825   4.585   3.539
 4602TIP3   OH213727   1.137   6.025   1.897
 4602TIP3    H113728   1.231   6.012   1.875
 4602TIP3    H213729   1.108   6.073   1.818
 4603TIP3   OH213730   0.612   5.406   2.105
 4603TIP3    H113731   0.707   5.426   2.092
 4603TIP3    H213732   0.607   5.316   2.066
 4604TIP3   OH213733   0.528   6.013   2.531
 4604TIP3    H113734   0.464   5.952   2.489
 4604TIP3    H213735   0.573   5.952   2.593
 4605TIP3   OH213736   0.663   5.858   2.714
 4605TIP3    H113737   0.654   5.788   2.782
 4605TIP3    H213738   0.716   5.922   2.764
 4606TIP3   OH213739   2.393   6.265   2.513
 4606TIP3    H113740   2.420   6.294   2.602
 4606TIP3    H213741   2.461   6.305   2.456
 4607TIP3   OH213742   2.421   6.284   2.795
 4607TIP3    H113743   2.373   6.199   2.790
 4607TIP3    H213744   2.494   6.258   2.853
 4608TIP3   OH213745   2.466   5.963   3.366
 4608TIP3    H113746   2.395   5.973   3.433
 4608TIP3    H213747   2.509   6.051   3.372
 4609TIP3   OH213748   2.285   5.474   1.985
 4609TIP3    H113749   2.351   5.540   1.955
 4609TIP3    H213750   2.330   5.436   2.064
 4610TIP3   OH213751   2.412   5.341   2.190
 4610TIP3    H113752   2.344   5.300   2.247
 4610TIP3    H213753   2.476   5.378   2.254
 4611TIP3   OH213754   2.470   5.738   2.621
 4611TIP3    H113755   2.521   5.669   2.576
 4611TIP3    H213756   2.463   5.808   2.553
 4612TIP3   OH213757   2.293   6.037   2.813
 4612TIP3    H113758   2.221   6.076   2.866
 4612TIP3    H213759   2.244   5.990   2.742
 4613TIP3   OH213760   2.348   5.251   1.834
 4613TIP3    H113761   2.276   5.252   1.767
 4613TIP3    H213762   2.320   5.327   1.889
 4614TIP3   OH213763   2.221   4.921   1.785
 4614TIP3    H113764   2.171   4.956   1.710
 4614TIP3    H213765   2.199   4.826   1.778
 4615TIP3   OH213766   2.223   5.201   2.334
 4615TIP3    H113767   2.228   5.105   2.325
 4615TIP3    H213768   2.208   5.213   2.430
 4616TIP3   OH213769   0.847   5.287   3.078
 4616TIP3    H113770   0.844   5.244   2.990
 4616TIP3    H213771   0.943   5.280   3.099
 4617TIP3   OH213772   2.516   5.626   3.193
 4617TIP3    H113773   2.585   5.558   3.181
 4617TIP3    H213774   2.540   5.692   3.127
 4618TIP3   OH213775   2.697   5.424   3.196
 4618TIP3    H113776   2.622   5.376   3.237
 4618TIP3    H213777   2.770   5.361   3.215
 4619TIP3   OH213778   2.162   4.655   1.769
 4619TIP3    H113779   2.230   4.622   1.830
 4619TIP3    H213780   2.084   4.600   1.789
 4620TIP3   OH213781   2.222   4.918   2.225
 4620TIP3    H113782   2.262   4.829   2.240
 4620TIP3    H213783   2.279   4.950   2.153
 4621TIP3   OH213784   2.380   5.082   2.725
 4621TIP3    H113785   2.465   5.108   2.683
 4621TIP3    H213786   2.393   5.122   2.813
 4622TIP3   OH213787   2.452   5.233   2.952
 4622TIP3    H113788   2.376   5.265   3.004
 4622TIP3    H213789   2.484   5.316   2.910
 4623TIP3   OH213790   1.087   4.979   3.788
 4623TIP3    H113791   1.182   4.955   3.785
 4623TIP3    H213792   1.048   4.890   3.797
 4624TIP3   OH213793   2.903   4.830   3.509
 4624TIP3    H113794   2.964   4.765   3.467
 4624TIP3    H213795   2.871   4.881   3.431
 4625TIP3   OH213796   2.330   4.667   2.265
 4625TIP3    H113797   2.376   4.651   2.350
 4625TIP3    H213798   2.267   4.592   2.263
 4626TIP3   OH213799   1.029   4.640   3.051
 4626TIP3    H113800   1.100   4.577   3.074
 4626TIP3    H213801   1.051   4.716   3.105
 4627TIP3   OH213802   2.771   4.962   3.312
 4627TIP3    H113803   2.688   5.007   3.339
 4627TIP3    H213804   2.735   4.891   3.256
 4628TIP3   OH213805   2.407   4.596   1.904
 4628TIP3    H113806   2.445   4.528   1.844
 4628TIP3    H213807   2.472   4.668   1.898
 4629TIP3   OH213808   0.816   4.419   2.654
 4629TIP3    H113809   0.725   4.419   2.689
 4629TIP3    H213810   0.809   4.482   2.579
 4630TIP3   OH213811   1.975   6.136   2.166
 4630TIP3    H113812   2.026   6.124   2.084
 4630TIP3    H213813   2.029   6.199   2.215
 4631TIP3   OH213814   1.042   4.488   3.472
 4631TIP3    H113815   0.990   4.490   3.554
 4631TIP3    H213816   1.002   4.567   3.428
 4632TIP3   OH213817   1.073   5.946   3.550
 4632TIP3    H113818   0.982   5.915   3.532
 4632TIP3    H213819   1.089   5.910   3.638
 4633TIP3   OH213820   1.255   5.975   3.100
 4633TIP3    H113821   1.209   6.051   3.061
 4633TIP3    H213822   1.341   5.986   3.055
 4634TIP3   OH213823   1.694   6.215   3.238
 4634TIP3    H113824   1.737   6.212   3.326
 4634TIP3    H213825   1.760   6.266   3.187
 4635TIP3   OH213826   1.874   6.369   3.099
 4635TIP3    H113827   1.942   6.316   3.055
 4635TIP3    H213828   1.929   6.424   3.158
 4636TIP3   OH213829   2.674   4.725   3.192
 4636TIP3    H113830   2.581   4.717   3.162
 4636TIP3    H213831   2.704   4.632   3.185
 4637TIP3   OH213832   0.929   6.230   3.120
 4637TIP3    H113833   0.839   6.263   3.100
 4637TIP3    H213834   0.941   6.266   3.209
 4638TIP3   OH213835   1.167   6.209   2.983
 4638TIP3    H113836   1.079   6.220   3.026
 4638TIP3    H213837   1.148   6.237   2.892
 4639TIP3   OH213838   1.591   6.232   2.780
 4639TIP3    H113839   1.520   6.248   2.715
 4639TIP3    H213840   1.601   6.320   2.821
 4640TIP3   OH213841   1.860   6.173   2.834
 4640TIP3    H113842   1.766   6.189   2.812
 4640TIP3    H213843   1.904   6.245   2.786
 4641TIP3   OH213844   2.066   6.363   2.744
 4641TIP3    H113845   2.053   6.446   2.694
 4641TIP3    H213846   2.093   6.301   2.672
 4642TIP3   OH213847   0.839   6.018   2.869
 4642TIP3    H113848   0.867   5.989   2.959
 4642TIP3    H213849   0.911   5.976   2.817
 4643TIP3   OH213850   1.036   5.894   2.728
 4643TIP3    H113851   1.050   5.809   2.777
 4643TIP3    H213852   1.128   5.927   2.724
 4644TIP3   OH213853   1.306   5.984   2.732
 4644TIP3    H113854   1.333   5.890   2.723
 4644TIP3    H213855   1.355   6.005   2.814
 4645TIP3   OH213856   1.879   4.641   2.821
 4645TIP3    H113857   1.833   4.572   2.874
 4645TIP3    H213858   1.949   4.590   2.778
 4646TIP3   OH213859   2.399   4.521   2.716
 4646TIP3    H113860   2.431   4.575   2.641
 4646TIP3    H213861   2.303   4.540   2.714
 4647TIP3   OH213862   2.495   4.619   2.481
 4647TIP3    H113863   2.569   4.569   2.442
 4647TIP3    H213864   2.527   4.712   2.467
 4648TIP3   OH213865   1.124   4.347   2.827
 4648TIP3    H113866   1.032   4.315   2.834
 4648TIP3    H213867   1.173   4.262   2.825
 4649TIP3   OH213868   0.914   4.221   2.480
 4649TIP3    H113869   0.942   4.279   2.408
 4649TIP3    H213870   0.885   4.285   2.548
 4650TIP3   OH213871   1.573   4.379   2.711
 4650TIP3    H113872   1.630   4.430   2.652
 4650TIP3    H213873   1.590   4.419   2.797
 4651TIP3   OH213874   2.119   4.530   2.693
 4651TIP3    H113875   2.109   4.489   2.606
 4651TIP3    H213876   2.106   4.452   2.753
 4652TIP3   OH213877   2.147   4.456   2.260
 4652TIP3    H113878   2.062   4.500   2.278
 4652TIP3    H213879   2.131   4.369   2.303
 4653TIP3   OH213880   0.627   5.795   2.254
 4653TIP3    H113881   0.541   5.760   2.222
 4653TIP3    H213882   0.617   5.888   2.226
 4654TIP3   OH213883   1.033   4.380   2.239
 4654TIP3    H113884   1.080   4.316   2.183
 4654TIP3    H213885   1.107   4.432   2.276
 4655TIP3   OH213886   1.541   4.558   2.340
 4655TIP3    H113887   1.597   4.510   2.403
 4655TIP3    H213888   1.562   4.650   2.366
 4656TIP3   OH213889   1.401   5.976   1.839
 4656TIP3    H113890   1.490   5.998   1.804
 4656TIP3    H213891   1.379   5.900   1.779
 4657TIP3   OH213892   2.123   6.100   1.935
 4657TIP3    H113893   2.116   6.003   1.925
 4657TIP3    H213894   2.075   6.130   1.855
 4658TIP3   OH213895   1.365   4.622   3.727
 4658TIP3    H113896   1.332   4.557   3.790
 4658TIP3    H213897   1.447   4.650   3.772
 4659TIP3   OH213898   0.706   5.813   1.897
 4659TIP3    H113899   0.708   5.829   1.992
 4659TIP3    H213900   0.792   5.766   1.881
 4660TIP3   OH213901   2.411   4.694   3.628
 4660TIP3    H113902   2.426   4.663   3.720
 4660TIP3    H213903   2.500   4.686   3.589
 4661TIP3   OH213904   2.344   6.242   3.121
 4661TIP3    H113905   2.265   6.211   3.070
 4661TIP3    H213906   2.323   6.337   3.129
 4662TIP3   OH213907   3.615   5.617   1.881
 4662TIP3    H113908   3.584   5.708   1.861
 4662TIP3    H213909   3.538   5.565   1.852
 4663TIP3   OH213910   3.613   5.616   2.274
 4663TIP3    H113911   3.650   5.595   2.362
 4663TIP3    H213912   3.571   5.532   2.250
 4664TIP3   OH213913   2.909   5.506   2.633
 4664TIP3    H113914   2.937   5.437   2.695
 4664TIP3    H213915   2.986   5.564   2.634
 4665TIP3   OH213916   3.859   5.921   1.953
 4665TIP3    H113917   3.843   5.853   2.020
 4665TIP3    H213918   3.889   5.996   2.007
 4666TIP3   OH213919   2.885   5.921   2.353
 4666TIP3    H113920   2.876   5.823   2.354
 4666TIP3    H213921   2.981   5.930   2.350
 4667TIP3   OH213922   2.591   5.121   2.136
 4667TIP3    H113923   2.542   5.203   2.157
 4667TIP3    H213924   2.519   5.070   2.093
 4668TIP3   OH213925   2.647   5.410   2.320
 4668TIP3    H113926   2.697   5.332   2.353
 4668TIP3    H213927   2.707   5.446   2.254
 4669TIP3   OH213928   3.510   6.380   1.969
 4669TIP3    H113929   3.551   6.308   1.917
 4669TIP3    H213930   3.499   6.338   2.055
 4670TIP3   OH213931   3.410   5.843   2.316
 4670TIP3    H113932   3.452   5.765   2.275
 4670TIP3    H213933   3.492   5.890   2.342
 4671TIP3   OH213934   4.426   5.162   2.316
 4671TIP3    H113935   4.456   5.244   2.361
 4671TIP3    H213936   4.448   5.183   2.223
 4672TIP3   OH213937   3.822   5.341   2.344
 4672TIP3    H113938   3.865   5.257   2.368
 4672TIP3    H213939   3.791   5.322   2.254
 4673TIP3   OH213940   3.167   5.001   2.311
 4673TIP3    H113941   3.146   5.074   2.250
 4673TIP3    H213942   3.117   4.928   2.268
 4674TIP3   OH213943   3.860   5.093   1.932
 4674TIP3    H113944   3.930   5.079   2.000
 4674TIP3    H213945   3.913   5.128   1.859
 4675TIP3   OH213946   2.795   5.204   2.420
 4675TIP3    H113947   2.878   5.185   2.469
 4675TIP3    H213948   2.809   5.148   2.341
 4676TIP3   OH213949   3.235   5.401   2.215
 4676TIP3    H113950   3.329   5.376   2.227
 4676TIP3    H213951   3.196   5.316   2.183
 4677TIP3   OH213952   4.499   5.371   2.483
 4677TIP3    H113953   4.413   5.416   2.468
 4677TIP3    H213954   4.518   5.399   2.574
 4678TIP3   OH213955   3.157   4.985   2.747
 4678TIP3    H113956   3.099   5.023   2.680
 4678TIP3    H213957   3.104   5.002   2.828
 4679TIP3   OH213958   3.504   5.838   1.750
 4679TIP3    H113959   3.459   5.822   1.666
 4679TIP3    H213960   3.458   5.919   1.781
 4680TIP3   OH213961   3.264   5.762   2.537
 4680TIP3    H113962   3.205   5.831   2.574
 4680TIP3    H213963   3.308   5.810   2.464
 4681TIP3   OH213964   4.061   5.099   2.116
 4681TIP3    H113965   4.036   5.066   2.203
 4681TIP3    H213966   4.113   5.179   2.139
 4682TIP3   OH213967   3.031   5.101   2.530
 4682TIP3    H113968   3.092   5.174   2.555
 4682TIP3    H213969   3.082   5.062   2.455
 4683TIP3   OH213970   3.094   5.959   2.639
 4683TIP3    H113971   3.069   6.047   2.604
 4683TIP3    H213972   3.015   5.940   2.694
 4684TIP3   OH213973   2.484   5.648   1.875
 4684TIP3    H113974   2.442   5.675   1.791
 4684TIP3    H213975   2.516   5.733   1.910
 4685TIP3   OH213976   3.923   6.164   2.113
 4685TIP3    H113977   3.834   6.155   2.153
 4685TIP3    H213978   3.915   6.251   2.069
 4686TIP3   OH213979   4.221   5.055   2.478
 4686TIP3    H113980   4.135   5.089   2.448
 4686TIP3    H213981   4.282   5.090   2.410
 4687TIP3   OH213982   3.517   4.729   2.451
 4687TIP3    H113983   3.513   4.633   2.460
 4687TIP3    H213984   3.438   4.757   2.504
 4688TIP3   OH213985   3.623   6.206   1.784
 4688TIP3    H113986   3.675   6.123   1.767
 4688TIP3    H213987   3.686   6.271   1.746
 4689TIP3   OH213988   3.770   5.990   1.701
 4689TIP3    H113989   3.719   5.912   1.675
 4689TIP3    H213990   3.811   5.959   1.785
 4690TIP3   OH213991   4.150   6.072   2.459
 4690TIP3    H113992   4.138   5.995   2.400
 4690TIP3    H213993   4.133   6.147   2.398
 4691TIP3   OH213994   3.443   5.466   1.720
 4691TIP3    H113995   3.363   5.519   1.700
 4691TIP3    H213996   3.488   5.465   1.634
 4692TIP3   OH213997   3.400   5.257   1.428
 4692TIP3    H113998   3.467   5.308   1.478
 4692TIP3    H213999   3.458   5.194   1.381
 4693TIP3   OH214000   4.345   5.712   2.305
 4693TIP3    H114001   4.262   5.763   2.310
 4693TIP3    H214002   4.376   5.737   2.216
 4694TIP3   OH214003   3.793   5.550   1.686
 4694TIP3    H114004   3.738   5.574   1.764
 4694TIP3    H214005   3.877   5.527   1.730
 4695TIP3   OH214006   4.025   5.587   2.610
 4695TIP3    H114007   4.025   5.668   2.664
 4695TIP3    H214008   3.940   5.595   2.563
 4696TIP3   OH214009   3.024   5.545   2.106
 4696TIP3    H114010   2.984   5.487   2.038
 4696TIP3    H214011   3.100   5.492   2.137
 4697TIP3   OH214012   3.155   5.962   2.252
 4697TIP3    H114013   3.135   5.924   2.164
 4697TIP3    H214014   3.243   5.924   2.270
 4698TIP3   OH214015   3.160   5.518   2.460
 4698TIP3    H114016   3.193   5.494   2.371
 4698TIP3    H214017   3.203   5.604   2.477
 4699TIP3   OH214018   3.685   6.156   2.238
 4699TIP3    H114019   3.672   6.236   2.292
 4699TIP3    H214020   3.668   6.084   2.301
 4700TIP3   OH214021   3.299   6.076   2.784
 4700TIP3    H114022   3.237   6.136   2.831
 4700TIP3    H214023   3.235   6.022   2.733
 4701TIP3   OH214024   3.629   5.409   1.515
 4701TIP3    H114025   3.689   5.469   1.565
 4701TIP3    H214026   3.656   5.429   1.422
 4702TIP3   OH214027   3.053   5.628   2.889
 4702TIP3    H114028   3.058   5.717   2.930
 4702TIP3    H214029   2.959   5.607   2.905
 4703TIP3   OH214030   3.378   6.083   1.789
 4703TIP3    H114031   3.460   6.135   1.796
 4703TIP3    H214032   3.317   6.146   1.749
 4704TIP3   OH214033   3.091   6.239   2.873
 4704TIP3    H114034   3.056   6.243   2.781
 4704TIP3    H214035   3.010   6.219   2.925
 4705TIP3   OH214036   4.146   4.645   1.565
 4705TIP3    H114037   4.064   4.668   1.615
 4705TIP3    H214038   4.161   4.728   1.516
 4706TIP3   OH214039   2.892   5.390   1.906
 4706TIP3    H114040   2.821   5.434   1.854
 4706TIP3    H214041   2.853   5.303   1.922
 4707TIP3   OH214042   3.946   6.013   1.111
 4707TIP3    H114043   3.954   6.110   1.099
 4707TIP3    H214044   4.040   5.985   1.099
 4708TIP3   OH214045   2.671   5.775   2.819
 4708TIP3    H114046   2.602   5.754   2.752
 4708TIP3    H214047   2.707   5.686   2.839
 4709TIP3   OH214048   2.525   5.969   2.445
 4709TIP3    H114049   2.622   5.962   2.440
 4709TIP3    H214050   2.514   6.044   2.505
 4710TIP3   OH214051   4.388   6.421   2.509
 4710TIP3    H114052   4.388   6.324   2.526
 4710TIP3    H214053   4.305   6.446   2.555
 4711TIP3   OH214054   3.493   6.204   2.641
 4711TIP3    H114055   3.489   6.297   2.674
 4711TIP3    H214056   3.423   6.162   2.695
 4712TIP3   OH214057   3.260   6.331   1.594
 4712TIP3    H114058   3.210   6.315   1.512
 4712TIP3    H214059   3.226   6.418   1.623
 4713TIP3   OH214060   2.695   6.179   1.980
 4713TIP3    H114061   2.741   6.171   2.066
 4713TIP3    H214062   2.645   6.096   1.977
 4714TIP3   OH214063   3.456   6.235   1.231
 4714TIP3    H114064   3.515   6.164   1.196
 4714TIP3    H214065   3.491   6.246   1.322
 4715TIP3   OH214066   3.510   6.283   1.500
 4715TIP3    H114067   3.421   6.293   1.541
 4715TIP3    H214068   3.561   6.247   1.574
 4716TIP3   OH214069   4.281   5.548   2.784
 4716TIP3    H114070   4.194   5.555   2.744
 4716TIP3    H214071   4.297   5.452   2.778
 4717TIP3   OH214072   2.875   5.957   2.802
 4717TIP3    H114073   2.924   5.941   2.885
 4717TIP3    H214074   2.800   5.894   2.810
 4718TIP3   OH214075   3.278   4.776   2.599
 4718TIP3    H114076   3.189   4.752   2.566
 4718TIP3    H214077   3.255   4.859   2.644
 4719TIP3   OH214078   3.816   4.889   2.788
 4719TIP3    H114079   3.888   4.868   2.851
 4719TIP3    H214080   3.735   4.878   2.842
 4720TIP3   OH214081   4.041   5.323   2.702
 4720TIP3    H114082   3.994   5.319   2.789
 4720TIP3    H214083   4.021   5.413   2.672
 4721TIP3   OH214084   3.706   5.446   1.258
 4721TIP3    H114085   3.672   5.427   1.168
 4721TIP3    H214086   3.789   5.492   1.236
 4722TIP3   OH214087   3.420   4.825   1.564
 4722TIP3    H114088   3.384   4.823   1.655
 4722TIP3    H214089   3.378   4.745   1.528
 4723TIP3   OH214090   3.206   5.297   2.611
 4723TIP3    H114091   3.156   5.318   2.692
 4723TIP3    H214092   3.191   5.378   2.558
 4724TIP3   OH214093   3.090   5.181   2.125
 4724TIP3    H114094   2.997   5.156   2.144
 4724TIP3    H214095   3.101   5.140   2.036
 4725TIP3   OH214096   3.580   5.266   1.854
 4725TIP3    H114097   3.530   5.338   1.810
 4725TIP3    H214098   3.635   5.233   1.781
 4726TIP3   OH214099   3.755   5.542   2.932
 4726TIP3    H114100   3.735   5.470   2.996
 4726TIP3    H214101   3.849   5.558   2.955
 4727TIP3   OH214102   3.735   5.291   2.089
 4727TIP3    H114103   3.672   5.319   2.020
 4727TIP3    H214104   3.771   5.212   2.044
 4728TIP3   OH214105   3.025   5.323   2.818
 4728TIP3    H114106   3.054   5.387   2.884
 4728TIP3    H214107   3.012   5.242   2.871
 4729TIP3   OH214108   3.078   4.804   1.529
 4729TIP3    H114109   3.065   4.803   1.626
 4729TIP3    H214110   2.999   4.855   1.501
 4730TIP3   OH214111   2.618   4.843   2.400
 4730TIP3    H114112   2.693   4.877   2.453
 4730TIP3    H214113   2.660   4.817   2.317
 4731TIP3   OH214114   2.582   4.825   1.919
 4731TIP3    H114115   2.627   4.863   1.840
 4731TIP3    H214116   2.521   4.899   1.938
 4732TIP3   OH214117   3.742   5.539   2.510
 4732TIP3    H114118   3.778   5.468   2.451
 4732TIP3    H214119   3.715   5.485   2.587
 4733TIP3   OH214120   3.422   4.996   2.182
 4733TIP3    H114121   3.341   5.001   2.237
 4733TIP3    H214122   3.492   5.001   2.249
 4734TIP3   OH214123   2.851   5.063   2.190
 4734TIP3    H114124   2.757   5.072   2.162
 4734TIP3    H214125   2.871   4.970   2.168
 4735TIP3   OH214126   3.115   5.053   1.884
 4735TIP3    H114127   3.209   5.071   1.862
 4735TIP3    H214128   3.067   5.076   1.801
 4736TIP3   OH214129   3.909   5.079   2.381
 4736TIP3    H114130   3.885   5.092   2.476
 4736TIP3    H214131   3.836   5.023   2.352
 4737TIP3   OH214132   2.968   5.090   1.659
 4737TIP3    H114133   2.897   5.045   1.611
 4737TIP3    H214134   3.019   5.127   1.584
 4738TIP3   OH214135   4.084   6.769   2.609
 4738TIP3    H114136   4.082   6.793   2.515
 4738TIP3    H214137   4.165   6.815   2.639
 4739TIP3   OH214138   3.038   5.880   3.025
 4739TIP3    H114139   3.117   5.907   3.074
 4739TIP3    H214140   2.973   5.876   3.098
 4740TIP3   OH214141   3.499   5.332   2.281
 4740TIP3    H114142   3.576   5.297   2.235
 4740TIP3    H214143   3.506   5.291   2.369
 4741TIP3   OH214144   3.019   4.819   2.166
 4741TIP3    H114145   2.981   4.743   2.214
 4741TIP3    H214146   3.054   4.776   2.086
 4742TIP3   OH214147   3.476   5.234   2.573
 4742TIP3    H114148   3.387   5.271   2.588
 4742TIP3    H214149   3.534   5.295   2.623
 4743TIP3   OH214150   3.213   5.618   1.666
 4743TIP3    H114151   3.141   5.553   1.654
 4743TIP3    H214152   3.192   5.652   1.756
 4744TIP3   OH214153   4.111   5.856   2.292
 4744TIP3    H114154   4.135   5.908   2.212
 4744TIP3    H214155   4.027   5.814   2.265
 4745TIP3   OH214156   3.670   4.929   1.534
 4745TIP3    H114157   3.574   4.908   1.543
 4745TIP3    H214158   3.676   5.023   1.560
 4746TIP3   OH214159   3.609   5.937   2.665
 4746TIP3    H114160   3.648   5.920   2.752
 4746TIP3    H214161   3.573   6.027   2.674
 4747TIP3   OH214162   3.737   5.180   1.637
 4747TIP3    H114163   3.834   5.186   1.652
 4747TIP3    H214164   3.718   5.261   1.586
 4748TIP3   OH214165   2.908   5.645   2.340
 4748TIP3    H114166   2.946   5.614   2.256
 4748TIP3    H214167   2.950   5.586   2.405
 4749TIP3   OH214168   3.357   5.769   1.489
 4749TIP3    H114169   3.308   5.854   1.492
 4749TIP3    H214170   3.303   5.714   1.550
 4750TIP3   OH214171   2.790   5.560   2.955
 4750TIP3    H114172   2.804   5.545   3.051
 4750TIP3    H214173   2.719   5.496   2.937
 4751TIP3   OH214174   3.518   5.680   2.974
 4751TIP3    H114175   3.457   5.618   2.932
 4751TIP3    H214176   3.605   5.644   2.947
 4752TIP3   OH214177   3.769   6.200   2.561
 4752TIP3    H114178   3.673   6.198   2.575
 4752TIP3    H214179   3.798   6.252   2.640
 4753TIP3   OH214180   4.178   5.273   1.469
 4753TIP3    H114181   4.117   5.229   1.405
 4753TIP3    H214182   4.175   5.363   1.430
 4754TIP3   OH214183   4.401   6.132   2.548
 4754TIP3    H114184   4.303   6.124   2.541
 4754TIP3    H214185   4.427   6.101   2.458
 4755TIP3   OH214186   3.885   6.090   1.380
 4755TIP3    H114187   3.854   6.024   1.444
 4755TIP3    H214188   3.894   6.039   1.297
 4756TIP3   OH214189   3.877   5.721   2.205
 4756TIP3    H114190   3.784   5.696   2.222
 4756TIP3    H214191   3.910   5.639   2.163
 4757TIP3   OH214192   3.008   5.948   1.967
 4757TIP3    H114193   3.003   6.029   1.912
 4757TIP3    H214194   2.915   5.930   1.983
 4758TIP3   OH214195   2.574   5.249   1.677
 4758TIP3    H114196   2.617   5.335   1.698
 4758TIP3    H214197   2.495   5.252   1.736
 4759TIP3   OH214198   3.137   5.710   1.908
 4759TIP3    H114199   3.104   5.800   1.928
 4759TIP3    H214200   3.104   5.659   1.984
 4760TIP3   OH214201   3.279   6.289   2.435
 4760TIP3    H114202   3.322   6.361   2.385
 4760TIP3    H214203   3.355   6.251   2.483
 4761TIP3   OH214204   2.924   6.186   1.819
 4761TIP3    H114205   2.839   6.195   1.866
 4761TIP3    H214206   2.957   6.279   1.822
 4762TIP3   OH214207   3.661   5.925   2.397
 4762TIP3    H114208   3.648   5.923   2.495
 4762TIP3    H214209   3.742   5.873   2.388
 4763TIP3   OH214210   3.643   5.820   1.278
 4763TIP3    H114211   3.696   5.793   1.356
 4763TIP3    H214212   3.555   5.791   1.307
 4764TIP3   OH214213   3.911   6.454   2.446
 4764TIP3    H114214   3.831   6.398   2.441
 4764TIP3    H214215   3.894   6.518   2.373
 4765TIP3   OH214216   3.977   6.289   1.097
 4765TIP3    H114217   4.011   6.364   1.045
 4765TIP3    H214218   3.897   6.332   1.134
 4766TIP3   OH214219   2.994   5.065   2.960
 4766TIP3    H114220   2.898   5.073   2.974
 4766TIP3    H214221   3.022   5.016   3.039
 4767TIP3   OH214222   3.803   5.745   1.487
 4767TIP3    H114223   3.792   5.683   1.563
 4767TIP3    H214224   3.901   5.745   1.480
 4768TIP3   OH214225   2.715   6.150   2.593
 4768TIP3    H114226   2.769   6.078   2.631
 4768TIP3    H214227   2.740   6.224   2.650
 4769TIP3   OH214228   3.004   5.796   1.279
 4769TIP3    H114229   3.015   5.703   1.254
 4769TIP3    H214230   2.983   5.788   1.374
 4770TIP3   OH214231   2.947   5.803   1.550
 4770TIP3    H114232   3.019   5.775   1.608
 4770TIP3    H214233   2.950   5.901   1.559
 4771TIP3   OH214234   2.681   5.495   1.757
 4771TIP3    H114235   2.614   5.539   1.813
 4771TIP3    H214236   2.693   5.562   1.687
 4772TIP3   OH214237   3.844   5.124   2.642
 4772TIP3    H114238   3.916   5.173   2.685
 4772TIP3    H214239   3.833   5.047   2.701
 4773TIP3   OH214240   3.721   4.877   1.817
 4773TIP3    H114241   3.705   4.901   1.724
 4773TIP3    H214242   3.759   4.959   1.853
 4774TIP3   OH214243   3.216   5.999   1.497
 4774TIP3    H114244   3.129   6.021   1.535
 4774TIP3    H214245   3.231   6.079   1.443
 4775TIP3   OH214246   3.400   5.065   1.915
 4775TIP3    H114247   3.464   5.138   1.899
 4775TIP3    H214248   3.407   5.054   2.012
 4776TIP3   OH214249   3.677   5.378   2.721
 4776TIP3    H114250   3.699   5.435   2.797
 4776TIP3    H214251   3.730   5.299   2.739
 4777TIP3   OH214252   3.544   4.781   2.013
 4777TIP3    H114253   3.535   4.858   2.071
 4777TIP3    H214254   3.608   4.815   1.947
 4778TIP3   OH214255   2.963   6.075   1.570
 4778TIP3    H114256   2.932   6.145   1.508
 4778TIP3    H214257   2.946   6.117   1.657
 4779TIP3   OH214258   3.060   4.789   1.806
 4779TIP3    H114259   3.056   4.880   1.842
 4779TIP3    H214260   3.156   4.773   1.812
 4780TIP3   OH214261   4.308   5.281   2.701
 4780TIP3    H114262   4.210   5.279   2.711
 4780TIP3    H214263   4.318   5.234   2.617
 4781TIP3   OH214264   3.963   5.474   2.089
 4781TIP3    H114265   3.887   5.416   2.104
 4781TIP3    H214266   4.034   5.428   2.138
 4782TIP3   OH214267   2.679   5.698   1.559
 4782TIP3    H114268   2.750   5.764   1.568
 4782TIP3    H214269   2.722   5.639   1.492
 4783TIP3   OH214270   2.618   4.978   1.693
 4783TIP3    H114271   2.619   5.076   1.693
 4783TIP3    H214272   2.537   4.959   1.645
 4784TIP3   OH214273   3.933   6.435   2.036
 4784TIP3    H114274   3.891   6.481   1.961
 4784TIP3    H214275   4.028   6.453   2.016
 4785TIP3   OH214276   3.014   4.701   2.559
 4785TIP3    H114277   2.979   4.669   2.474
 4785TIP3    H214278   3.004   4.622   2.616
 4786TIP3   OH214279   2.543   5.918   1.942
 4786TIP3    H114280   2.482   5.947   2.011
 4786TIP3    H214281   2.506   5.963   1.862
 4787TIP3   OH214282   2.708   6.468   3.018
 4787TIP3    H114283   2.795   6.468   3.065
 4787TIP3    H214284   2.688   6.373   3.016
 4788TIP3   OH214285   3.183   6.421   3.062
 4788TIP3    H114286   3.277   6.400   3.069
 4788TIP3    H214287   3.157   6.359   2.990
 4789TIP3   OH214288   3.165   5.997   1.186
 4789TIP3    H114289   3.108   5.928   1.226
 4789TIP3    H214290   3.242   5.944   1.161
 4790TIP3   OH214291   3.823   6.332   2.797
 4790TIP3    H114292   3.817   6.261   2.866
 4790TIP3    H214293   3.901   6.382   2.827
 4791TIP3   OH214294   3.602   6.036   1.105
 4791TIP3    H114295   3.640   5.970   1.166
 4791TIP3    H214296   3.663   6.032   1.029
 4792TIP3   OH214297   2.835   5.870   3.217
 4792TIP3    H114298   2.851   5.774   3.227
 4792TIP3    H214299   2.748   5.872   3.172
 4793TIP3   OH214300   2.815   5.513   1.414
 4793TIP3    H114301   2.872   5.484   1.488
 4793TIP3    H214302   2.882   5.519   1.343
 4794TIP3   OH214303   3.441   5.956   2.993
 4794TIP3    H114304   3.402   5.975   2.906
 4794TIP3    H214305   3.475   5.864   2.982
 4795TIP3   OH214306   3.332   5.718   1.220
 4795TIP3    H114307   3.331   5.730   1.317
 4795TIP3    H214308   3.331   5.620   1.213
 4796TIP3   OH214309   3.933   5.968   2.597
 4796TIP3    H114310   4.011   6.009   2.555
 4796TIP3    H214311   3.865   6.037   2.581
 4797TIP3   OH214312   2.958   5.607   3.202
 4797TIP3    H114313   3.033   5.553   3.177
 4797TIP3    H214314   2.985   5.638   3.291
 4798TIP3   OH214315   3.017   5.424   1.631
 4798TIP3    H114316   2.989   5.386   1.716
 4798TIP3    H214317   3.055   5.347   1.584
 4799TIP3   OH214318   3.290   5.485   2.861
 4799TIP3    H114319   3.212   5.545   2.862
 4799TIP3    H214320   3.341   5.519   2.784
 4800TIP3   OH214321   3.123   5.219   1.473
 4800TIP3    H114322   3.098   5.227   1.378
 4800TIP3    H214323   3.221   5.221   1.465
 4801TIP3   OH214324   3.809   5.886   2.994
 4801TIP3    H114325   3.888   5.853   2.950
 4801TIP3    H214326   3.802   5.825   3.070
 4802TIP3   OH214327   3.940   5.544   1.141
 4802TIP3    H114328   3.919   5.500   1.056
 4802TIP3    H214329   3.907   5.635   1.121
 4803TIP3   OH214330   3.412   5.276   2.988
 4803TIP3    H114331   3.414   5.199   2.929
 4803TIP3    H214332   3.369   5.344   2.931
 4804TIP3   OH214333   3.417   5.060   2.793
 4804TIP3    H114334   3.445   5.106   2.711
 4804TIP3    H214335   3.323   5.042   2.775
 4805TIP3   OH214336   3.439   5.593   2.665
 4805TIP3    H114337   3.526   5.611   2.629
 4805TIP3    H214338   3.383   5.660   2.620
 4806TIP3   OH214339   4.011   5.565   3.040
 4806TIP3    H114340   4.045   5.503   3.110
 4806TIP3    H214341   4.093   5.604   3.009
 4807TIP3   OH214342   4.064   5.817   2.780
 4807TIP3    H114343   4.007   5.873   2.723
 4807TIP3    H214344   4.152   5.839   2.742
 4808TIP3   OH214345   3.291   5.382   3.221
 4808TIP3    H114346   3.223   5.313   3.238
 4808TIP3    H214347   3.325   5.354   3.133
 4809TIP3   OH214348   3.548   4.827   2.866
 4809TIP3    H114349   3.503   4.911   2.842
 4809TIP3    H214350   3.480   4.761   2.847
 4810TIP3   OH214351   3.676   5.327   3.081
 4810TIP3    H114352   3.670   5.312   3.177
 4810TIP3    H214353   3.585   5.304   3.054
 4811TIP3   OH214354   3.906   5.266   2.928
 4811TIP3    H114355   3.838   5.276   2.997
 4811TIP3    H214356   3.986   5.245   2.982
 4812TIP3   OH214357   4.134   5.213   3.073
 4812TIP3    H114358   4.154   5.123   3.106
 4812TIP3    H214359   4.128   5.266   3.155
 4813TIP3   OH214360   3.131   5.159   3.275
 4813TIP3    H114361   3.138   5.067   3.244
 4813TIP3    H214362   3.170   5.151   3.365
 4814TIP3   OH214363   3.638   4.831   3.126
 4814TIP3    H114364   3.708   4.763   3.119
 4814TIP3    H214365   3.602   4.829   3.035
 4815TIP3   OH214366   3.705   5.047   3.283
 4815TIP3    H114367   3.683   4.976   3.219
 4815TIP3    H214368   3.627   5.106   3.276
 4816TIP3   OH214369   2.932   6.278   1.382
 4816TIP3    H114370   3.027   6.268   1.361
 4816TIP3    H214371   2.904   6.330   1.304
 4817TIP3   OH214372   2.409   5.661   1.592
 4817TIP3    H114373   2.504   5.680   1.579
 4817TIP3    H214374   2.402   5.572   1.552
 4818TIP3   OH214375   2.327   6.271   2.014
 4818TIP3    H114376   2.261   6.210   1.973
 4818TIP3    H214377   2.371   6.210   2.077
 4819TIP3   OH214378   2.460   6.115   2.199
 4819TIP3    H114379   2.448   6.046   2.267
 4819TIP3    H214380   2.513   6.179   2.249
 4820TIP3   OH214381   4.190   6.520   2.000
 4820TIP3    H114382   4.214   6.550   2.089
 4820TIP3    H214383   4.255   6.565   1.944
 4821TIP3   OH214384   4.216   6.540   2.281
 4821TIP3    H114385   4.171   6.454   2.278
 4821TIP3    H214386   4.290   6.517   2.340
 4822TIP3   OH214387   4.261   6.220   2.852
 4822TIP3    H114388   4.191   6.229   2.920
 4822TIP3    H214389   4.305   6.307   2.858
 4823TIP3   OH214390   4.082   5.730   1.471
 4823TIP3    H114391   4.148   5.797   1.443
 4823TIP3    H214392   4.126   5.693   1.551
 4824TIP3   OH214393   4.208   5.598   1.676
 4824TIP3    H114394   4.141   5.557   1.735
 4824TIP3    H214395   4.274   5.634   1.739
 4825TIP3   OH214396   4.264   5.994   2.106
 4825TIP3    H114397   4.318   5.926   2.062
 4825TIP3    H214398   4.260   6.065   2.039
 4826TIP3   OH214399   4.089   6.292   2.300
 4826TIP3    H114400   4.018   6.333   2.352
 4826TIP3    H214401   4.039   6.246   2.229
 4827TIP3   OH214402   4.144   5.507   1.321
 4827TIP3    H114403   4.071   5.509   1.255
 4827TIP3    H214404   4.117   5.583   1.377
 4828TIP3   OH214405   4.015   5.178   1.272
 4828TIP3    H114406   3.967   5.213   1.196
 4828TIP3    H214407   3.994   5.082   1.264
 4829TIP3   OH214408   4.019   5.459   1.821
 4829TIP3    H114409   4.026   5.362   1.814
 4829TIP3    H214410   4.003   5.472   1.917
 4830TIP3   OH214411   2.644   5.530   2.570
 4830TIP3    H114412   2.640   5.495   2.478
 4830TIP3    H214413   2.741   5.530   2.585
 4831TIP3   OH214414   4.312   5.883   2.678
 4831TIP3    H114415   4.382   5.814   2.667
 4831TIP3    H214416   4.340   5.951   2.615
 4832TIP3   OH214417   4.494   5.682   2.680
 4832TIP3    H114418   4.420   5.634   2.724
 4832TIP3    H214419   4.567   5.619   2.700
 4833TIP3   OH214420   3.959   4.911   1.252
 4833TIP3    H114421   4.028   4.880   1.314
 4833TIP3    H214422   3.882   4.857   1.276
 4834TIP3   OH214423   4.017   5.174   1.712
 4834TIP3    H114424   4.058   5.085   1.726
 4834TIP3    H214425   4.075   5.207   1.641
 4835TIP3   OH214426   4.174   5.341   2.210
 4835TIP3    H114427   4.260   5.366   2.168
 4835TIP3    H214428   4.189   5.380   2.298
 4836TIP3   OH214429   4.246   5.489   2.438
 4836TIP3    H114430   4.173   5.523   2.492
 4836TIP3    H214431   4.280   5.572   2.396
 4837TIP3   OH214432   2.866   5.214   3.242
 4837TIP3    H114433   2.963   5.209   3.250
 4837TIP3    H214434   2.841   5.128   3.281
 4838TIP3   OH214435   4.702   5.085   2.996
 4838TIP3    H114436   4.762   5.021   2.953
 4838TIP3    H214437   4.669   5.137   2.919
 4839TIP3   OH214438   4.127   4.924   1.751
 4839TIP3    H114439   4.174   4.908   1.836
 4839TIP3    H214440   4.065   4.848   1.751
 4840TIP3   OH214441   2.828   4.908   2.568
 4840TIP3    H114442   2.891   4.835   2.578
 4840TIP3    H214443   2.888   4.985   2.563
 4841TIP3   OH214444   2.625   5.178   2.646
 4841TIP3    H114445   2.675   5.180   2.562
 4841TIP3    H214446   2.651   5.262   2.685
 4842TIP3   OH214447   4.568   5.221   2.803
 4842TIP3    H114448   4.489   5.263   2.843
 4842TIP3    H214449   4.526   5.154   2.746
 4843TIP3   OH214450   4.200   4.854   1.389
 4843TIP3    H114451   4.241   4.786   1.331
 4843TIP3    H214452   4.266   4.926   1.387
 4844TIP3   OH214453   2.613   4.683   2.147
 4844TIP3    H114454   2.520   4.677   2.177
 4844TIP3    H214455   2.605   4.742   2.069
 4845TIP3   OH214456   3.770   6.390   1.652
 4845TIP3    H114457   3.824   6.382   1.571
 4845TIP3    H214458   3.820   6.456   1.704
 4846TIP3   OH214459   2.832   4.749   2.952
 4846TIP3    H114460   2.786   4.754   3.038
 4846TIP3    H214461   2.769   4.800   2.897
 4847TIP3   OH214462   2.869   6.198   3.036
 4847TIP3    H114463   2.777   6.172   3.022
 4847TIP3    H214464   2.883   6.173   3.128
 4848TIP3   OH214465   3.052   6.230   2.586
 4848TIP3    H114466   3.005   6.306   2.547
 4848TIP3    H214467   3.138   6.243   2.541
 4849TIP3   OH214468   3.490   6.471   2.723
 4849TIP3    H114469   3.533   6.468   2.812
 4849TIP3    H214470   3.556   6.522   2.673
 4850TIP3   OH214471   3.671   6.625   2.586
 4850TIP3    H114472   3.741   6.573   2.544
 4850TIP3    H214473   3.724   6.682   2.646
 4851TIP3   OH214474   4.468   4.983   2.681
 4851TIP3    H114475   4.377   4.972   2.648
 4851TIP3    H214476   4.503   4.891   2.673
 4852TIP3   OH214477   2.725   6.484   2.610
 4852TIP3    H114478   2.634   6.516   2.589
 4852TIP3    H214479   2.739   6.529   2.695
 4853TIP3   OH214480   2.962   6.463   2.470
 4853TIP3    H114481   2.874   6.474   2.513
 4853TIP3    H214482   2.943   6.494   2.379
 4854TIP3   OH214483   3.387   6.488   2.267
 4854TIP3    H114484   3.316   6.506   2.202
 4854TIP3    H214485   3.399   6.576   2.309
 4855TIP3   OH214486   3.657   6.427   2.319
 4855TIP3    H114487   3.563   6.445   2.299
 4855TIP3    H214488   3.701   6.500   2.275
 4856TIP3   OH214489   3.860   6.617   2.230
 4856TIP3    H114490   3.848   6.702   2.182
 4856TIP3    H214491   3.888   6.557   2.158
 4857TIP3   OH214492   2.637   6.275   2.354
 4857TIP3    H114493   2.664   6.246   2.444
 4857TIP3    H214494   2.709   6.233   2.302
 4858TIP3   OH214495   2.833   6.150   2.214
 4858TIP3    H114496   2.847   6.065   2.264
 4858TIP3    H214497   2.925   6.185   2.211
 4859TIP3   OH214498   3.101   6.240   2.220
 4859TIP3    H114499   3.130   6.146   2.211
 4859TIP3    H214500   3.150   6.263   2.301
 4860TIP3   OH214501   3.679   4.907   2.298
 4860TIP3    H114502   3.632   4.838   2.348
 4860TIP3    H214503   3.752   4.857   2.256
 4861TIP3   OH214504   4.190   4.773   2.200
 4861TIP3    H114505   4.228   4.829   2.128
 4861TIP3    H214506   4.097   4.803   2.201
 4862TIP3   OH214507   4.290   4.877   1.967
 4862TIP3    H114508   4.366   4.826   1.932
 4862TIP3    H214509   4.324   4.969   1.954
 4863TIP3   OH214510   2.919   4.607   2.315
 4863TIP3    H114511   2.826   4.576   2.319
 4863TIP3    H214512   2.965   4.520   2.310
 4864TIP3   OH214513   2.719   4.479   1.972
 4864TIP3    H114514   2.742   4.535   1.895
 4864TIP3    H214515   2.685   4.545   2.036
 4865TIP3   OH214516   3.375   4.636   2.202
 4865TIP3    H114517   3.424   4.680   2.130
 4865TIP3    H214518   3.392   4.696   2.276
 4866TIP3   OH214519   3.903   4.783   2.183
 4866TIP3    H114520   3.913   4.742   2.096
 4866TIP3    H214521   3.894   4.704   2.241
 4867TIP3   OH214522   3.942   4.712   1.745
 4867TIP3    H114523   3.858   4.757   1.765
 4867TIP3    H214524   3.928   4.626   1.790
 4868TIP3   OH214525   2.424   6.054   1.740
 4868TIP3    H114526   2.338   6.020   1.709
 4868TIP3    H214527   2.416   6.147   1.714
 4869TIP3   OH214528   2.829   4.634   1.729
 4869TIP3    H114529   2.876   4.571   1.670
 4869TIP3    H214530   2.903   4.687   1.763
 4870TIP3   OH214531   3.336   4.815   1.827
 4870TIP3    H114532   3.399   4.770   1.887
 4870TIP3    H214533   3.356   4.908   1.852
 4871TIP3   OH214534   3.198   6.230   1.328
 4871TIP3    H114535   3.286   6.254   1.291
 4871TIP3    H214536   3.176   6.156   1.267
 4872TIP3   OH214537   3.920   6.358   1.422
 4872TIP3    H114538   3.911   6.260   1.411
 4872TIP3    H214539   3.871   6.388   1.342
 4873TIP3   OH214540   3.130   4.881   3.203
 4873TIP3    H114541   3.092   4.815   3.263
 4873TIP3    H214542   3.223   4.883   3.235
 4874TIP3   OH214543   3.377   4.883   3.326
 4874TIP3    H114544   3.467   4.862   3.294
 4874TIP3    H214545   3.365   4.814   3.395
 4875TIP3   OH214546   2.500   6.071   1.381
 4875TIP3    H114547   2.503   6.089   1.476
 4875TIP3    H214548   2.588   6.028   1.366
 4876TIP3   OH214549   4.205   4.943   3.115
 4876TIP3    H114550   4.222   4.917   3.209
 4876TIP3    H214551   4.295   4.943   3.078
 4877TIP3   OH214552   4.140   6.499   2.607
 4877TIP3    H114553   4.061   6.469   2.557
 4877TIP3    H214554   4.120   6.594   2.615
 4878TIP3   OH214555   5.403   5.864   1.360
 4878TIP3    H114556   5.411   5.960   1.365
 4878TIP3    H214557   5.308   5.853   1.375
 4879TIP3   OH214558   5.405   5.867   1.760
 4879TIP3    H114559   5.446   5.855   1.848
 4879TIP3    H214560   5.364   5.779   1.748
 4880TIP3   OH214561   4.705   5.762   2.120
 4880TIP3    H114562   4.732   5.692   2.182
 4880TIP3    H214563   4.780   5.823   2.128
 4881TIP3   OH214564   5.647   6.174   1.444
 4881TIP3    H114565   5.648   6.109   1.516
 4881TIP3    H214566   5.680   6.254   1.491
 4882TIP3   OH214567   4.679   6.176   1.837
 4882TIP3    H114568   4.671   6.078   1.839
 4882TIP3    H214569   4.776   6.186   1.843
 4883TIP3   OH214570   4.387   5.377   1.622
 4883TIP3    H114571   4.341   5.459   1.644
 4883TIP3    H214572   4.315   5.326   1.581
 4884TIP3   OH214573   4.442   5.666   1.806
 4884TIP3    H114574   4.492   5.588   1.840
 4884TIP3    H214575   4.507   5.706   1.747
 4885TIP3   OH214576   5.304   6.635   1.453
 4885TIP3    H114577   5.349   6.561   1.408
 4885TIP3    H214578   5.294   6.602   1.543
 4886TIP3   OH214579   5.207   6.099   1.800
 4886TIP3    H114580   5.250   6.018   1.767
 4886TIP3    H214581   5.288   6.147   1.828
 4887TIP3   OH214582   6.222   5.419   1.801
 4887TIP3    H114583   6.252   5.501   1.845
 4887TIP3    H214584   6.246   5.437   1.709
 4888TIP3   OH214585   5.621   5.600   1.831
 4888TIP3    H114586   5.663   5.515   1.856
 4888TIP3    H214587   5.588   5.578   1.742
 4889TIP3   OH214588   4.962   5.259   1.797
 4889TIP3    H114589   4.941   5.331   1.734
 4889TIP3    H214590   4.911   5.185   1.756
 4890TIP3   OH214591   5.657   5.351   1.418
 4890TIP3    H114592   5.727   5.335   1.485
 4890TIP3    H214593   5.712   5.384   1.344
 4891TIP3   OH214594   4.592   5.461   1.907
 4891TIP3    H114595   4.674   5.442   1.956
 4891TIP3    H214596   4.607   5.404   1.828
 4892TIP3   OH214597   5.033   5.658   1.697
 4892TIP3    H114598   5.126   5.632   1.715
 4892TIP3    H214599   4.993   5.573   1.669
 4893TIP3   OH214600   6.295   5.629   1.969
 4893TIP3    H114601   6.209   5.672   1.952
 4893TIP3    H214602   6.310   5.654   2.061
 4894TIP3   OH214603   4.954   5.241   2.234
 4894TIP3    H114604   4.894   5.279   2.168
 4894TIP3    H214605   4.903   5.257   2.316
 4895TIP3   OH214606   5.258   6.090   1.223
 4895TIP3    H114607   5.190   6.075   1.290
 4895TIP3    H214608   5.269   6.187   1.235
 4896TIP3   OH214609   5.060   6.019   2.023
 4896TIP3    H114610   5.000   6.087   2.062
 4896TIP3    H214611   5.104   6.069   1.952
 4897TIP3   OH214612   5.856   5.357   1.602
 4897TIP3    H114613   5.832   5.321   1.689
 4897TIP3    H214614   5.910   5.435   1.626
 4898TIP3   OH214615   4.826   5.357   2.017
 4898TIP3    H114616   4.888   5.430   2.042
 4898TIP3    H214617   4.878   5.317   1.943
 4899TIP3   OH214618   4.889   6.215   2.123
 4899TIP3    H114619   4.865   6.305   2.092
 4899TIP3    H214620   4.811   6.197   2.180
 4900TIP3   OH214621   4.280   5.904   1.362
 4900TIP3    H114622   4.237   5.934   1.280
 4900TIP3    H214623   4.312   5.989   1.399
 4901TIP3   OH214624   5.718   6.419   1.595
 4901TIP3    H114625   5.630   6.411   1.639
 4901TIP3    H214626   5.711   6.508   1.556
 4902TIP3   OH214627   6.016   5.314   1.965
 4902TIP3    H114628   5.930   5.346   1.934
 4902TIP3    H214629   6.077   5.349   1.896
 4903TIP3   OH214630   5.303   4.956   1.948
 4903TIP3    H114631   5.290   4.862   1.971
 4903TIP3    H214632   5.227   4.996   1.997
 4904TIP3   OH214633   5.422   6.460   1.270
 4904TIP3    H114634   5.476   6.380   1.252
 4904TIP3    H214635   5.483   6.529   1.235
 4905TIP3   OH214636   5.567   6.244   1.189
 4905TIP3    H114637   5.532   6.161   1.153
 4905TIP3    H214638   5.609   6.214   1.273
 4906TIP3   OH214639   5.947   6.329   1.947
 4906TIP3    H114640   5.935   6.251   1.888
 4906TIP3    H214641   5.929   6.404   1.886
 4907TIP3   OH214642   5.188   5.775   1.122
 4907TIP3    H114643   5.142   5.699   1.161
 4907TIP3    H214644   5.268   5.732   1.086
 4908TIP3   OH214645   5.201   5.498   0.959
 4908TIP3    H114646   5.284   5.546   0.975
 4908TIP3    H214647   5.221   5.462   0.871
 4909TIP3   OH214648   6.143   5.970   1.793
 4909TIP3    H114649   6.058   6.020   1.798
 4909TIP3    H214650   6.172   5.994   1.703
 4910TIP3   OH214651   5.594   5.808   1.171
 4910TIP3    H114652   5.536   5.824   1.250
 4910TIP3    H214653   5.677   5.780   1.215
 4911TIP3   OH214654   5.820   5.843   2.096
 4911TIP3    H114655   5.820   5.924   2.151
 4911TIP3    H214656   5.734   5.852   2.050
 4912TIP3   OH214657   4.825   5.805   1.588
 4912TIP3    H114658   4.782   5.746   1.523
 4912TIP3    H214659   4.898   5.750   1.621
 4913TIP3   OH214660   4.955   6.219   1.736
 4913TIP3    H114661   4.934   6.173   1.654
 4913TIP3    H214662   5.043   6.182   1.758
 4914TIP3   OH214663   4.955   5.775   1.944
 4914TIP3    H114664   4.991   5.753   1.856
 4914TIP3    H214665   4.999   5.861   1.965
 4915TIP3   OH214666   5.481   6.412   1.723
 4915TIP3    H114667   5.468   6.494   1.775
 4915TIP3    H214668   5.464   6.341   1.789
 4916TIP3   OH214669   5.095   6.331   2.270
 4916TIP3    H114670   5.035   6.392   2.318
 4916TIP3    H214671   5.030   6.278   2.220
 4917TIP3   OH214672   5.421   5.672   1.009
 4917TIP3    H114673   5.488   5.725   1.056
 4917TIP3    H214674   5.446   5.692   0.915
 4918TIP3   OH214675   4.848   5.888   2.372
 4918TIP3    H114676   4.854   5.975   2.416
 4918TIP3    H214677   4.755   5.865   2.392
 4919TIP3   OH214678   5.175   6.345   1.274
 4919TIP3    H114679   5.255   6.400   1.286
 4919TIP3    H214680   5.110   6.409   1.245
 4920TIP3   OH214681   4.887   6.494   2.359
 4920TIP3    H114682   4.851   6.499   2.269
 4920TIP3    H214683   4.807   6.475   2.412
 4921TIP3   OH214684   5.944   4.903   1.055
 4921TIP3    H114685   5.861   4.926   1.102
 4921TIP3    H214686   5.959   4.984   1.002
 4922TIP3   OH214687   4.690   5.648   1.390
 4922TIP3    H114688   4.617   5.688   1.339
 4922TIP3    H214689   4.655   5.561   1.410
 4923TIP3   OH214690   5.737   6.274   0.602
 4923TIP3    H114691   5.750   6.370   0.622
 4923TIP3    H214692   5.830   6.241   0.613
 4924TIP3   OH214693   4.466   6.031   2.306
 4924TIP3    H114694   4.399   6.009   2.239
 4924TIP3    H214695   4.504   5.944   2.329
 4925TIP3   OH214696   4.322   6.225   1.933
 4925TIP3    H114697   4.418   6.220   1.930
 4925TIP3    H214698   4.308   6.301   1.992
 4926TIP3   OH214699   6.185   6.678   1.996
 4926TIP3    H114700   6.184   6.582   2.012
 4926TIP3    H214701   6.102   6.704   2.041
 4927TIP3   OH214702   5.289   6.461   2.126
 4927TIP3    H114703   5.286   6.553   2.160
 4927TIP3    H214704   5.219   6.419   2.181
 4928TIP3   OH214705   5.056   6.586   1.084
 4928TIP3    H114706   5.009   6.572   0.999
 4928TIP3    H214707   5.022   6.673   1.113
 4929TIP3   OH214708   4.492   6.436   1.466
 4929TIP3    H114709   4.539   6.429   1.553
 4929TIP3    H214710   4.437   6.356   1.469
 4930TIP3   OH214711   5.255   6.463   0.745
 4930TIP3    H114712   5.321   6.402   0.708
 4930TIP3    H214713   5.292   6.483   0.834
 4931TIP3   OH214714   5.309   6.539   1.001
 4931TIP3    H114715   5.220   6.551   1.041
 4931TIP3    H214716   5.361   6.514   1.079
 4932TIP3   OH214717   6.079   5.805   2.268
 4932TIP3    H114718   5.989   5.814   2.235
 4932TIP3    H214719   6.093   5.709   2.260
 4933TIP3   OH214720   4.671   6.213   2.288
 4933TIP3    H114721   4.720   6.199   2.371
 4933TIP3    H214722   4.597   6.150   2.297
 4934TIP3   OH214723   5.069   5.037   2.081
 4934TIP3    H114724   4.980   5.007   2.052
 4934TIP3    H214725   5.043   5.116   2.132
 4935TIP3   OH214726   5.607   5.148   2.274
 4935TIP3    H114727   5.677   5.123   2.338
 4935TIP3    H214728   5.525   5.131   2.324
 4936TIP3   OH214729   5.839   5.581   2.195
 4936TIP3    H114730   5.791   5.577   2.280
 4936TIP3    H214731   5.816   5.670   2.162
 4937TIP3   OH214732   5.496   5.732   0.757
 4937TIP3    H114733   5.463   5.692   0.674
 4937TIP3    H214734   5.586   5.758   0.731
 4938TIP3   OH214735   5.179   5.033   1.046
 4938TIP3    H114736   5.158   5.068   1.136
 4938TIP3    H214737   5.270   5.002   1.060
 4939TIP3   OH214738   5.002   5.554   2.096
 4939TIP3    H114739   4.954   5.574   2.179
 4939TIP3    H214740   4.985   5.636   2.044
 4940TIP3   OH214741   4.885   5.439   1.609
 4940TIP3    H114742   4.793   5.413   1.631
 4940TIP3    H214743   4.895   5.396   1.522
 4941TIP3   OH214744   5.380   5.523   1.335
 4941TIP3    H114745   5.363   5.609   1.295
 4941TIP3    H214746   5.438   5.481   1.268
 4942TIP3   OH214747   5.553   5.802   2.418
 4942TIP3    H114748   5.529   5.729   2.480
 4942TIP3    H214749   5.646   5.817   2.445
 4943TIP3   OH214750   5.534   5.546   1.576
 4943TIP3    H114751   5.469   5.571   1.507
 4943TIP3    H214752   5.572   5.467   1.533
 4944TIP3   OH214753   4.821   5.579   2.305
 4944TIP3    H114754   4.855   5.640   2.371
 4944TIP3    H214755   4.810   5.497   2.357
 4945TIP3   OH214756   4.417   5.099   1.884
 4945TIP3    H114757   4.487   5.134   1.943
 4945TIP3    H214758   4.466   5.071   1.806
 4946TIP3   OH214759   4.377   5.081   1.404
 4946TIP3    H114760   4.422   5.119   1.326
 4946TIP3    H214761   4.317   5.155   1.425
 4947TIP3   OH214762   5.538   5.797   1.994
 4947TIP3    H114763   5.574   5.725   1.937
 4947TIP3    H214764   5.511   5.744   2.072
 4948TIP3   OH214765   5.217   5.264   1.670
 4948TIP3    H114766   5.138   5.260   1.727
 4948TIP3    H214767   5.289   5.250   1.735
 4949TIP3   OH214768   4.649   5.319   1.677
 4949TIP3    H114769   4.554   5.326   1.649
 4949TIP3    H214770   4.671   5.226   1.656
 4950TIP3   OH214771   4.909   5.307   1.369
 4950TIP3    H114772   5.003   5.323   1.349
 4950TIP3    H214773   4.863   5.329   1.285
 4951TIP3   OH214774   5.706   5.337   1.869
 4951TIP3    H114775   5.681   5.349   1.964
 4951TIP3    H214776   5.636   5.276   1.840
 4952TIP3   OH214777   4.765   5.340   1.140
 4952TIP3    H114778   4.690   5.300   1.093
 4952TIP3    H214779   4.815   5.379   1.065
 4953TIP3   OH214780   5.880   7.025   2.096
 4953TIP3    H114781   5.877   7.052   2.003
 4953TIP3    H214782   5.958   7.074   2.128
 4954TIP3   OH214783   4.834   6.137   2.512
 4954TIP3    H114784   4.914   6.164   2.561
 4954TIP3    H214785   4.769   6.133   2.585
 4955TIP3   OH214786   5.296   5.594   1.772
 4955TIP3    H114787   5.370   5.548   1.729
 4955TIP3    H214788   5.294   5.551   1.860
 4956TIP3   OH214789   4.812   5.075   1.655
 4956TIP3    H114790   4.775   4.999   1.706
 4956TIP3    H214791   4.865   5.030   1.588
 4957TIP3   OH214792   5.273   5.498   2.049
 4957TIP3    H114793   5.182   5.528   2.072
 4957TIP3    H214794   5.329   5.554   2.106
 4958TIP3   OH214795   5.908   6.114   1.778
 4958TIP3    H114796   5.933   6.165   1.698
 4958TIP3    H214797   5.823   6.072   1.750
 4959TIP3   OH214798   5.448   5.183   1.036
 4959TIP3    H114799   5.358   5.201   1.008
 4959TIP3    H214800   5.486   5.273   1.035
 4960TIP3   OH214801   5.405   6.194   2.152
 4960TIP3    H114802   5.443   6.175   2.238
 4960TIP3    H214803   5.369   6.283   2.162
 4961TIP3   OH214804   5.541   5.437   1.123
 4961TIP3    H114805   5.638   5.441   1.139
 4961TIP3    H214806   5.528   5.506   1.056
 4962TIP3   OH214807   4.703   5.898   1.826
 4962TIP3    H114808   4.744   5.868   1.743
 4962TIP3    H214809   4.748   5.843   1.892
 4963TIP3   OH214810   4.586   5.819   2.443
 4963TIP3    H114811   4.604   5.806   2.538
 4963TIP3    H214812   4.517   5.752   2.428
 4964TIP3   OH214813   5.314   5.938   2.459
 4964TIP3    H114814   5.254   5.872   2.421
 4964TIP3    H214815   5.401   5.902   2.433
 4965TIP3   OH214816   5.565   6.455   2.047
 4965TIP3    H114817   5.468   6.455   2.062
 4965TIP3    H214818   5.595   6.506   2.125
 4966TIP3   OH214819   5.974   5.528   0.957
 4966TIP3    H114820   5.910   5.487   0.893
 4966TIP3    H214821   5.971   5.619   0.920
 4967TIP3   OH214822   6.198   6.389   2.035
 4967TIP3    H114823   6.100   6.382   2.028
 4967TIP3    H214824   6.223   6.358   1.945
 4968TIP3   OH214825   5.671   6.345   0.875
 4968TIP3    H114826   5.652   6.286   0.949
 4968TIP3    H214827   5.683   6.284   0.800
 4969TIP3   OH214828   5.673   5.979   1.684
 4969TIP3    H114829   5.582   5.952   1.709
 4969TIP3    H214830   5.708   5.895   1.649
 4970TIP3   OH214831   4.799   6.200   1.440
 4970TIP3    H114832   4.792   6.285   1.394
 4970TIP3    H214833   4.710   6.190   1.476
 4971TIP3   OH214834   4.366   5.506   1.158
 4971TIP3    H114835   4.412   5.590   1.182
 4971TIP3    H214836   4.290   5.508   1.220
 4972TIP3   OH214837   4.964   5.980   1.402
 4972TIP3    H114838   4.910   6.060   1.414
 4972TIP3    H214839   4.920   5.919   1.464
 4973TIP3   OH214840   5.075   6.545   1.922
 4973TIP3    H114841   5.118   6.618   1.873
 4973TIP3    H214842   5.150   6.509   1.972
 4974TIP3   OH214843   4.720   6.442   1.304
 4974TIP3    H114844   4.635   6.452   1.351
 4974TIP3    H214845   4.753   6.535   1.308
 4975TIP3   OH214846   5.457   6.179   1.885
 4975TIP3    H114847   5.442   6.180   1.982
 4975TIP3    H214848   5.542   6.134   1.880
 4976TIP3   OH214849   5.442   6.078   0.759
 4976TIP3    H114850   5.495   6.053   0.839
 4976TIP3    H214851   5.366   6.019   0.769
 4977TIP3   OH214852   5.708   6.708   1.931
 4977TIP3    H114853   5.628   6.653   1.928
 4977TIP3    H214854   5.690   6.773   1.860
 4978TIP3   OH214855   5.764   6.541   0.619
 4978TIP3    H114856   5.795   6.569   0.530
 4978TIP3    H214857   5.695   6.609   0.638
 4979TIP3   OH214858   4.793   5.323   2.447
 4979TIP3    H114859   4.697   5.327   2.463
 4979TIP3    H214860   4.824   5.272   2.524
 4980TIP3   OH214861   5.594   6.004   0.977
 4980TIP3    H114862   5.586   5.936   1.047
 4980TIP3    H214863   5.692   6.003   0.965
 4981TIP3   OH214864   4.512   6.406   2.080
 4981TIP3    H114865   4.566   6.337   2.123
 4981TIP3    H214866   4.533   6.483   2.135
 4982TIP3   OH214867   4.851   6.029   0.773
 4982TIP3    H114868   4.819   5.941   0.743
 4982TIP3    H214869   4.809   6.035   0.861
 4983TIP3   OH214870   4.751   6.058   1.028
 4983TIP3    H114871   4.778   6.027   1.116
 4983TIP3    H214872   4.752   6.156   1.040
 4984TIP3   OH214873   4.476   5.749   1.244
 4984TIP3    H114874   4.409   5.794   1.300
 4984TIP3    H214875   4.487   5.817   1.174
 4985TIP3   OH214876   5.641   5.381   2.129
 4985TIP3    H114877   5.712   5.427   2.176
 4985TIP3    H214878   5.625   5.303   2.187
 4986TIP3   OH214879   5.513   5.135   1.307
 4986TIP3    H114880   5.495   5.159   1.214
 4986TIP3    H214881   5.555   5.217   1.341
 4987TIP3   OH214882   5.023   6.215   0.989
 4987TIP3    H114883   4.939   6.250   1.024
 4987TIP3    H214884   5.052   6.292   0.938
 4988TIP3   OH214885   5.194   5.324   1.402
 4988TIP3    H114886   5.262   5.393   1.386
 4988TIP3    H214887   5.201   5.312   1.500
 4989TIP3   OH214888   5.474   5.637   2.205
 4989TIP3    H114889   5.494   5.692   2.284
 4989TIP3    H214890   5.522   5.555   2.226
 4990TIP3   OH214891   5.339   5.039   1.502
 4990TIP3    H114892   5.342   5.112   1.566
 4990TIP3    H214893   5.403   5.072   1.435
 4991TIP3   OH214894   4.767   6.327   1.056
 4991TIP3    H114895   4.734   6.397   0.994
 4991TIP3    H214896   4.747   6.370   1.143
 4992TIP3   OH214897   4.856   5.036   1.279
 4992TIP3    H114898   4.848   5.127   1.313
 4992TIP3    H214899   4.952   5.022   1.291
 4993TIP3   OH214900   6.105   5.537   2.187
 4993TIP3    H114901   6.008   5.537   2.197
 4993TIP3    H214902   6.114   5.485   2.106
 4994TIP3   OH214903   5.759   5.731   1.576
 4994TIP3    H114904   5.684   5.671   1.594
 4994TIP3    H214905   5.832   5.686   1.625
 4995TIP3   OH214906   4.474   5.953   1.045
 4995TIP3    H114907   4.533   6.030   1.047
 4995TIP3    H214908   4.523   5.896   0.982
 4996TIP3   OH214909   4.412   5.235   1.181
 4996TIP3    H114910   4.417   5.332   1.177
 4996TIP3    H214911   4.330   5.217   1.134
 4997TIP3   OH214912   5.729   6.689   1.521
 4997TIP3    H114913   5.688   6.737   1.446
 4997TIP3    H214914   5.824   6.709   1.503
 4998TIP3   OH214915   4.805   4.956   2.050
 4998TIP3    H114916   4.775   4.919   1.964
 4998TIP3    H214917   4.795   4.878   2.109
 4999TIP3   OH214918   4.337   6.171   1.429
 4999TIP3    H114919   4.279   6.202   1.500
 4999TIP3    H214920   4.300   6.217   1.350
 5000TIP3   OH214921   4.505   6.725   2.505
 5000TIP3    H114922   4.591   6.727   2.553
 5000TIP3    H214923   4.487   6.630   2.504
 5001TIP3   OH214924   4.977   6.677   2.549
 5001TIP3    H114925   5.071   6.661   2.559
 5001TIP3    H214926   4.954   6.614   2.478
 5002TIP3   OH214927   4.967   6.261   0.686
 5002TIP3    H114928   4.928   6.179   0.724
 5002TIP3    H214929   5.044   6.224   0.637
 5003TIP3   OH214930   5.623   6.585   2.280
 5003TIP3    H114931   5.614   6.517   2.351
 5003TIP3    H214932   5.698   6.639   2.313
 5004TIP3   OH214933   5.405   6.291   0.580
 5004TIP3    H114934   5.437   6.226   0.645
 5004TIP3    H214935   5.480   6.297   0.518
 5005TIP3   OH214936   4.632   6.127   2.704
 5005TIP3    H114937   4.648   6.031   2.715
 5005TIP3    H214938   4.544   6.128   2.659
 5006TIP3   OH214939   4.615   5.769   0.901
 5006TIP3    H114940   4.671   5.737   0.975
 5006TIP3    H214941   4.682   5.769   0.829
 5007TIP3   OH214942   5.238   6.213   2.479
 5007TIP3    H114943   5.198   6.231   2.392
 5007TIP3    H214944   5.271   6.121   2.469
 5008TIP3   OH214945   5.111   5.942   0.796
 5008TIP3    H114946   5.024   5.978   0.768
 5008TIP3    H214947   5.121   5.869   0.732
 5009TIP3   OH214948   5.728   6.224   2.081
 5009TIP3    H114949   5.806   6.267   2.042
 5009TIP3    H214950   5.661   6.294   2.069
 5010TIP3   OH214951   4.755   5.863   2.687
 5010TIP3    H114952   4.831   5.807   2.665
 5010TIP3    H214953   4.781   5.894   2.776
 5011TIP3   OH214954   4.801   5.676   1.098
 5011TIP3    H114955   4.791   5.651   1.191
 5011TIP3    H214956   4.846   5.599   1.060
 5012TIP3   OH214957   5.083   5.740   2.346
 5012TIP3    H114958   5.007   5.802   2.348
 5012TIP3    H214959   5.136   5.775   2.270
 5013TIP3   OH214960   4.928   5.464   0.957
 5013TIP3    H114961   4.922   5.478   0.859
 5013TIP3    H214962   5.025   5.474   0.968
 5014TIP3   OH214963   5.604   6.143   2.483
 5014TIP3    H114964   5.685   6.110   2.442
 5014TIP3    H214965   5.596   6.082   2.559
 5015TIP3   OH214966   5.737   5.825   0.652
 5015TIP3    H114967   5.731   5.776   0.568
 5015TIP3    H214968   5.699   5.910   0.622
 5016TIP3   OH214969   5.202   5.531   2.477
 5016TIP3    H114970   5.210   5.454   2.418
 5016TIP3    H214971   5.162   5.599   2.418
 5017TIP3   OH214972   5.214   5.320   2.280
 5017TIP3    H114973   5.240   5.360   2.195
 5017TIP3    H214974   5.120   5.297   2.263
 5018TIP3   OH214975   5.234   5.848   2.151
 5018TIP3    H114976   5.322   5.867   2.117
 5018TIP3    H214977   5.179   5.916   2.106
 5019TIP3   OH214978   5.812   5.814   2.530
 5019TIP3    H114979   5.860   5.738   2.566
 5019TIP3    H214980   5.882   5.879   2.519
 5020TIP3   OH214981   5.861   6.073   2.264
 5020TIP3    H114982   5.802   6.129   2.208
 5020TIP3    H214983   5.949   6.096   2.227
 5021TIP3   OH214984   5.084   5.640   2.706
 5021TIP3    H114985   5.018   5.570   2.726
 5021TIP3    H214986   5.120   5.609   2.621
 5022TIP3   OH214987   5.343   5.078   2.348
 5022TIP3    H114988   5.293   5.161   2.328
 5022TIP3    H214989   5.273   5.011   2.340
 5023TIP3   OH214990   5.475   5.585   2.558
 5023TIP3    H114991   5.501   5.565   2.651
 5023TIP3    H214992   5.381   5.557   2.558
 5024TIP3   OH214993   5.710   5.524   2.423
 5024TIP3    H114994   5.630   5.534   2.480
 5024TIP3    H214995   5.779   5.508   2.490
 5025TIP3   OH214996   5.938   5.495   2.606
 5025TIP3    H114997   5.951   5.397   2.604
 5025TIP3    H214998   5.904   5.508   2.696
 5026TIP3   OH214999   4.927   5.417   2.763
 5026TIP3    H115000   4.932   5.325   2.732
 5026TIP3    H215001   4.966   5.408   2.853
 5027TIP3   OH215002   5.435   5.087   2.607
 5027TIP3    H115003   5.503   5.016   2.601
 5027TIP3    H215004   5.397   5.081   2.517
 5028TIP3   OH215005   5.491   5.293   2.779
 5028TIP3    H115006   5.473   5.226   2.710
 5028TIP3    H215007   5.417   5.356   2.767
 5029TIP3   OH215008   4.725   6.524   0.864
 5029TIP3    H115009   4.822   6.525   0.850
 5029TIP3    H215010   4.698   6.583   0.790
 5030TIP3   OH215011   4.204   5.918   1.077
 5030TIP3    H115012   4.300   5.937   1.066
 5030TIP3    H215013   4.199   5.828   1.037
 5031TIP3   OH215014   4.125   6.526   1.500
 5031TIP3    H115015   4.058   6.467   1.460
 5031TIP3    H215016   4.168   6.465   1.564
 5032TIP3   OH215017   4.259   6.369   1.684
 5032TIP3    H115018   4.246   6.303   1.754
 5032TIP3    H215019   4.310   6.435   1.735
 5033TIP3   OH215020   5.985   6.776   1.486
 5033TIP3    H115021   6.009   6.807   1.576
 5033TIP3    H215022   6.051   6.822   1.431
 5034TIP3   OH215023   6.012   6.796   1.767
 5034TIP3    H115024   5.967   6.709   1.764
 5034TIP3    H215025   6.086   6.775   1.826
 5035TIP3   OH215026   6.058   6.475   2.340
 5035TIP3    H115027   5.987   6.485   2.407
 5035TIP3    H215028   6.101   6.563   2.345
 5036TIP3   OH215029   5.873   5.994   0.965
 5036TIP3    H115030   5.944   6.056   0.939
 5036TIP3    H215031   5.915   5.953   1.044
 5037TIP3   OH215032   6.002   5.856   1.163
 5037TIP3    H115033   5.938   5.813   1.224
 5037TIP3    H215034   6.070   5.890   1.224
 5038TIP3   OH215035   6.059   6.250   1.592
 5038TIP3    H115036   6.115   6.182   1.548
 5038TIP3    H215037   6.058   6.322   1.526
 5039TIP3   OH215038   5.885   6.547   1.786
 5039TIP3    H115039   5.814   6.590   1.839
 5039TIP3    H215040   5.834   6.503   1.715
 5040TIP3   OH215041   5.945   5.768   0.823
 5040TIP3    H115042   5.873   5.772   0.757
 5040TIP3    H215043   5.917   5.844   0.879
 5041TIP3   OH215044   5.805   5.444   0.763
 5041TIP3    H115045   5.778   5.464   0.673
 5041TIP3    H215046   5.781   5.348   0.767
 5042TIP3   OH215047   5.814   5.713   1.308
 5042TIP3    H115048   5.826   5.617   1.300
 5042TIP3    H215049   5.801   5.724   1.405
 5043TIP3   OH215050   4.441   5.788   2.056
 5043TIP3    H115051   4.437   5.752   1.965
 5043TIP3    H215052   4.538   5.787   2.072
 5044TIP3   OH215053   6.109   6.140   2.164
 5044TIP3    H115054   6.179   6.072   2.153
 5044TIP3    H215055   6.136   6.208   2.102
 5045TIP3   OH215056   6.292   5.939   2.167
 5045TIP3    H115057   6.217   5.892   2.210
 5045TIP3    H215058   6.364   5.876   2.188
 5046TIP3   OH215059   5.748   5.180   0.765
 5046TIP3    H115060   5.829   5.140   0.804
 5046TIP3    H215061   5.684   5.107   0.765
 5047TIP3   OH215062   5.815   5.431   1.196
 5047TIP3    H115063   5.855   5.342   1.212
 5047TIP3    H215064   5.873   5.462   1.125
 5048TIP3   OH215065   5.971   5.599   1.696
 5048TIP3    H115066   6.057   5.623   1.655
 5048TIP3    H215067   5.985   5.637   1.785
 5049TIP3   OH215068   6.043   5.746   1.924
 5049TIP3    H115069   5.970   5.779   1.980
 5049TIP3    H215070   6.076   5.829   1.884
 5050TIP3   OH215071   4.661   5.470   2.724
 5050TIP3    H115072   4.759   5.466   2.734
 5050TIP3    H215073   4.636   5.385   2.765
 5051TIP3   OH215074   6.502   5.346   2.482
 5051TIP3    H115075   6.559   5.277   2.440
 5051TIP3    H215076   6.468   5.394   2.404
 5052TIP3   OH215077   5.919   5.182   1.239
 5052TIP3    H115078   5.969   5.165   1.322
 5052TIP3    H215079   5.859   5.104   1.239
 5053TIP3   OH215080   4.621   5.165   2.057
 5053TIP3    H115081   4.682   5.090   2.068
 5053TIP3    H215082   4.684   5.239   2.051
 5054TIP3   OH215083   4.419   5.436   2.129
 5054TIP3    H115084   4.472   5.438   2.047
 5054TIP3    H215085   4.448   5.516   2.174
 5055TIP3   OH215086   6.364   5.476   2.288
 5055TIP3    H115087   6.281   5.518   2.319
 5055TIP3    H215088   6.326   5.406   2.231
 5056TIP3   OH215089   5.998   5.110   0.877
 5056TIP3    H115090   6.034   5.040   0.817
 5056TIP3    H215091   6.065   5.180   0.868
 5057TIP3   OH215092   4.406   4.932   1.629
 5057TIP3    H115093   4.315   4.934   1.665
 5057TIP3    H215094   4.400   4.996   1.555
 5058TIP3   OH215095   5.564   6.646   1.143
 5058TIP3    H115096   5.620   6.640   1.063
 5058TIP3    H215097   5.611   6.713   1.196
 5059TIP3   OH215098   4.627   5.018   2.445
 5059TIP3    H115099   4.579   5.017   2.530
 5059TIP3    H215100   4.560   5.058   2.386
 5060TIP3   OH215101   4.666   6.453   2.521
 5060TIP3    H115102   4.572   6.428   2.509
 5060TIP3    H215103   4.681   6.431   2.614
 5061TIP3   OH215104   4.848   6.485   2.071
 5061TIP3    H115105   4.801   6.562   2.033
 5061TIP3    H215106   4.934   6.499   2.026
 5062TIP3   OH215107   5.286   6.726   2.208
 5062TIP3    H115108   5.327   6.724   2.297
 5062TIP3    H215109   5.352   6.779   2.158
 5063TIP3   OH215110   5.468   6.881   2.072
 5063TIP3    H115111   5.540   6.830   2.033
 5063TIP3    H215112   5.517   6.939   2.133
 5064TIP3   OH215113   6.266   5.236   2.169
 5064TIP3    H115114   6.176   5.220   2.137
 5064TIP3    H215115   6.304   5.145   2.162
 5065TIP3   OH215116   4.521   6.739   2.099
 5065TIP3    H115117   4.430   6.770   2.078
 5065TIP3    H215118   4.538   6.790   2.179
 5066TIP3   OH215119   4.757   6.718   1.956
 5066TIP3    H115120   4.669   6.730   2.000
 5066TIP3    H215121   4.738   6.751   1.866
 5067TIP3   OH215122   5.184   6.744   1.752
 5067TIP3    H115123   5.111   6.765   1.690
 5067TIP3    H215124   5.196   6.831   1.796
 5068TIP3   OH215125   5.453   6.681   1.802
 5068TIP3    H115126   5.359   6.702   1.785
 5068TIP3    H215127   5.498   6.759   1.764
 5069TIP3   OH215128   5.656   6.873   1.717
 5069TIP3    H115129   5.644   6.958   1.671
 5069TIP3    H215130   5.684   6.814   1.644
 5070TIP3   OH215131   4.434   6.532   1.839
 5070TIP3    H115132   4.459   6.503   1.929
 5070TIP3    H215133   4.507   6.489   1.789
 5071TIP3   OH215134   4.631   6.405   1.699
 5071TIP3    H115135   4.644   6.322   1.750
 5071TIP3    H215136   4.722   6.441   1.699
 5072TIP3   OH215137   4.898   6.494   1.708
 5072TIP3    H115138   4.926   6.401   1.702
 5072TIP3    H215139   4.946   6.521   1.788
 5073TIP3   OH215140   5.460   5.149   1.781
 5073TIP3    H115141   5.424   5.080   1.839
 5073TIP3    H215142   5.541   5.107   1.746
 5074TIP3   OH215143   5.986   5.030   1.685
 5074TIP3    H115144   6.023   5.085   1.613
 5074TIP3    H215145   5.893   5.059   1.686
 5075TIP3   OH215146   6.085   5.135   1.453
 5075TIP3    H115147   6.161   5.082   1.419
 5075TIP3    H215148   6.120   5.226   1.440
 5076TIP3   OH215149   4.717   4.861   1.801
 5076TIP3    H115150   4.625   4.827   1.808
 5076TIP3    H215151   4.766   4.776   1.800
 5077TIP3   OH215152   4.504   4.737   1.457
 5077TIP3    H115153   4.522   4.802   1.387
 5077TIP3    H215154   4.473   4.796   1.529
 5078TIP3   OH215155   5.161   4.898   1.687
 5078TIP3    H115156   5.220   4.944   1.625
 5078TIP3    H215157   5.193   4.932   1.772
 5079TIP3   OH215158   5.700   5.045   1.670
 5079TIP3    H115159   5.701   5.003   1.583
 5079TIP3    H215160   5.692   4.967   1.729
 5080TIP3   OH215161   5.737   4.968   1.235
 5080TIP3    H115162   5.651   5.011   1.253
 5080TIP3    H215163   5.724   4.881   1.276
 5081TIP3   OH215164   4.222   6.310   1.227
 5081TIP3    H115165   4.135   6.278   1.196
 5081TIP3    H215166   4.214   6.404   1.203
 5082TIP3   OH215167   4.624   4.896   1.218
 5082TIP3    H115168   4.669   4.811   1.220
 5082TIP3    H215169   4.696   4.957   1.243
 5083TIP3   OH215170   5.136   5.075   1.311
 5083TIP3    H115171   5.191   5.027   1.376
 5083TIP3    H215172   5.154   5.167   1.341
 5084TIP3   OH215173   4.993   6.497   0.820
 5084TIP3    H115174   5.085   6.513   0.790
 5084TIP3    H215175   4.974   6.418   0.766
 5085TIP3   OH215176   5.713   6.615   0.915
 5085TIP3    H115177   5.704   6.517   0.901
 5085TIP3    H215178   5.663   6.648   0.837
 5086TIP3   OH215179   4.925   5.142   2.691
 5086TIP3    H115180   4.887   5.074   2.750
 5086TIP3    H215181   5.018   5.142   2.722
 5087TIP3   OH215182   5.173   5.140   2.813
 5087TIP3    H115183   5.261   5.119   2.779
 5087TIP3    H215184   5.161   5.070   2.881
 5088TIP3   OH215185   4.292   6.326   0.869
 5088TIP3    H115186   4.293   6.351   0.963
 5088TIP3    H215187   4.381   6.286   0.857
 5089TIP3   OH215188   5.999   5.216   2.601
 5089TIP3    H115189   6.017   5.180   2.691
 5089TIP3    H215190   6.088   5.209   2.560
 5090TIP3   OH215191   5.937   6.755   2.092
 5090TIP3    H115192   5.857   6.725   2.044
 5090TIP3    H215193   5.917   6.850   2.102
 5091TIP3   OH215194   7.177   6.109   0.910
 5091TIP3    H115195   7.233   6.187   0.916
 5091TIP3    H215196   7.153   6.110   0.815
 5092TIP3   OH215197   7.210   6.140   1.244
 5092TIP3    H115198   7.236   6.098   1.329
 5092TIP3    H215199   7.170   6.067   1.195
 5093TIP3   OH215200   6.500   6.019   1.609
 5093TIP3    H115201   6.529   5.950   1.670
 5093TIP3    H215202   6.579   6.074   1.604
 5094TIP3   OH215203   7.440   6.426   0.947
 5094TIP3    H115204   7.446   6.358   1.016
 5094TIP3    H215205   7.474   6.504   0.991
 5095TIP3   OH215206   6.477   6.433   1.325
 5095TIP3    H115207   6.468   6.336   1.328
 5095TIP3    H215208   6.574   6.443   1.319
 5096TIP3   OH215209   6.183   5.634   1.107
 5096TIP3    H115210   6.136   5.716   1.129
 5096TIP3    H215211   6.110   5.582   1.068
 5097TIP3   OH215212   6.237   5.921   1.291
 5097TIP3    H115213   6.288   5.844   1.326
 5097TIP3    H215214   6.303   5.965   1.236
 5098TIP3   OH215215   7.092   6.869   0.936
 5098TIP3    H115216   7.172   6.815   0.932
 5098TIP3    H215217   7.075   6.875   1.030
 5099TIP3   OH215218   7.002   6.357   1.290
 5099TIP3    H115219   7.042   6.279   1.248
 5099TIP3    H215220   7.084   6.404   1.315
 5100TIP3   OH215221   8.018   5.673   1.290
 5100TIP3    H115222   8.047   5.755   1.335
 5100TIP3    H215223   8.038   5.693   1.197
 5101TIP3   OH215224   7.415   5.854   1.319
 5101TIP3    H115225   7.458   5.769   1.340
 5101TIP3    H215226   7.385   5.837   1.228
 5102TIP3   OH215227   6.758   5.515   1.285
 5102TIP3    H115228   6.738   5.587   1.222
 5102TIP3    H215229   6.709   5.441   1.242
 5103TIP3   OH215230   7.447   5.605   0.907
 5103TIP3    H115231   7.511   5.584   0.978
 5103TIP3    H215232   7.509   5.623   0.835
 5104TIP3   OH215233   6.388   5.717   1.393
 5104TIP3    H115234   6.471   5.698   1.442
 5104TIP3    H215235   6.403   5.661   1.314
 5105TIP3   OH215236   6.826   5.914   1.192
 5105TIP3    H115237   6.921   5.892   1.203
 5105TIP3    H215238   6.790   5.829   1.159
 5106TIP3   OH215239   8.090   5.882   1.458
 5106TIP3    H115240   8.004   5.928   1.443
 5106TIP3    H215241   8.115   5.920   1.545
 5107TIP3   OH215242   6.751   5.499   1.721
 5107TIP3    H115243   6.691   5.536   1.654
 5107TIP3    H215244   6.698   5.514   1.802
 5108TIP3   OH215245   6.857   6.275   1.511
 5108TIP3    H115246   6.798   6.344   1.547
 5108TIP3    H215247   6.900   6.323   1.437
 5109TIP3   OH215248   7.652   5.617   1.088
 5109TIP3    H115249   7.636   5.571   1.172
 5109TIP3    H215250   7.700   5.696   1.118
 5110TIP3   OH215251   6.623   5.614   1.503
 5110TIP3    H115252   6.685   5.686   1.528
 5110TIP3    H215253   6.674   5.573   1.429
 5111TIP3   OH215254   6.688   6.472   1.612
 5111TIP3    H115255   6.662   6.560   1.577
 5111TIP3    H215256   6.608   6.454   1.667
 5112TIP3   OH215257   6.085   6.156   0.873
 5112TIP3    H115258   6.035   6.173   0.790
 5112TIP3    H215259   6.112   6.247   0.900
 5113TIP3   OH215260   7.519   6.676   1.088
 5113TIP3    H115261   7.432   6.658   1.132
 5113TIP3    H215262   7.501   6.762   1.048
 5114TIP3   OH215263   7.810   5.571   1.453
 5114TIP3    H115264   7.723   5.599   1.421
 5114TIP3    H215265   7.871   5.604   1.384
 5115TIP3   OH215266   7.101   5.212   1.437
 5115TIP3    H115267   7.086   5.118   1.457
 5115TIP3    H215268   7.025   5.253   1.484
 5116TIP3   OH215269   7.741   6.588   1.435
 5116TIP3    H115270   7.729   6.509   1.378
 5116TIP3    H215271   7.729   6.662   1.371
 5117TIP3   OH215272   7.930   6.215   1.272
 5117TIP3    H115273   7.850   6.271   1.282
 5117TIP3    H215274   7.964   6.246   1.186
 5118TIP3   OH215275   7.617   6.099   1.581
 5118TIP3    H115276   7.616   6.183   1.631
 5118TIP3    H215277   7.530   6.103   1.537
 5119TIP3   OH215278   6.610   6.052   1.085
 5119TIP3    H115279   6.577   5.994   1.013
 5119TIP3    H215280   6.689   6.002   1.116
 5120TIP3   OH215281   6.745   6.473   1.225
 5120TIP3    H115282   6.725   6.441   1.135
 5120TIP3    H215283   6.833   6.434   1.242
 5121TIP3   OH215284   6.747   6.033   1.434
 5121TIP3    H115285   6.783   6.005   1.347
 5121TIP3    H215286   6.794   6.118   1.451
 5122TIP3   OH215287   7.282   6.668   1.209
 5122TIP3    H115288   7.263   6.749   1.261
 5122TIP3    H215289   7.262   6.596   1.272
 5123TIP3   OH215290   6.891   6.588   1.759
 5123TIP3    H115291   6.829   6.648   1.805
 5123TIP3    H215292   6.828   6.534   1.707
 5124TIP3   OH215293   6.646   6.141   1.864
 5124TIP3    H115294   6.650   6.230   1.904
 5124TIP3    H215295   6.551   6.121   1.878
 5125TIP3   OH215296   6.954   6.681   0.780
 5125TIP3    H115297   6.986   6.759   0.828
 5125TIP3    H215298   6.899   6.721   0.709
 5126TIP3   OH215299   6.684   6.752   1.846
 5126TIP3    H115300   6.648   6.756   1.756
 5126TIP3    H215301   6.603   6.731   1.899
 5127TIP3   OH215302   6.488   5.897   0.876
 5127TIP3    H115303   6.416   5.944   0.829
 5127TIP3    H215304   6.443   5.816   0.905
 5128TIP3   OH215305   6.262   6.287   1.793
 5128TIP3    H115306   6.195   6.265   1.725
 5128TIP3    H215307   6.301   6.200   1.815
 5129TIP3   OH215308   6.118   6.481   1.420
 5129TIP3    H115309   6.214   6.476   1.415
 5129TIP3    H215310   6.106   6.558   1.479
 5130TIP3   OH215311   7.962   6.930   1.472
 5130TIP3    H115312   7.989   6.840   1.497
 5130TIP3    H215313   7.888   6.947   1.533
 5131TIP3   OH215314   7.086   6.716   1.616
 5131TIP3    H115315   7.083   6.809   1.648
 5131TIP3    H215316   7.015   6.676   1.670
 5132TIP3   OH215317   6.279   6.694   0.961
 5132TIP3    H115318   6.331   6.686   1.044
 5132TIP3    H215319   6.229   6.611   0.963
 5133TIP3   OH215320   7.868   6.060   1.758
 5133TIP3    H115321   7.786   6.070   1.708
 5133TIP3    H215322   7.885   5.964   1.748
 5134TIP3   OH215323   6.467   6.470   1.774
 5134TIP3    H115324   6.516   6.455   1.858
 5134TIP3    H215325   6.392   6.407   1.783
 5135TIP3   OH215326   6.866   5.293   1.568
 5135TIP3    H115327   6.777   5.263   1.538
 5135TIP3    H215328   6.839   5.373   1.618
 5136TIP3   OH215329   7.403   5.407   1.761
 5136TIP3    H115330   7.472   5.379   1.825
 5136TIP3    H215331   7.319   5.387   1.809
 5137TIP3   OH215332   7.636   5.837   1.678
 5137TIP3    H115333   7.585   5.835   1.762
 5137TIP3    H215334   7.614   5.925   1.642
 5138TIP3   OH215335   6.986   5.365   0.540
 5138TIP3    H115336   6.968   5.364   0.636
 5138TIP3    H215337   6.967   5.271   0.521
 5139TIP3   OH215338   6.799   5.811   1.584
 5139TIP3    H115339   6.748   5.830   1.665
 5139TIP3    H215340   6.781   5.892   1.531
 5140TIP3   OH215341   6.681   5.696   1.098
 5140TIP3    H115342   6.589   5.668   1.118
 5140TIP3    H215343   6.693   5.655   1.009
 5141TIP3   OH215344   7.161   5.792   0.822
 5141TIP3    H115345   7.102   5.864   0.794
 5141TIP3    H215346   7.215   5.780   0.742
 5142TIP3   OH215347   7.347   6.055   1.910
 5142TIP3    H115348   7.325   5.982   1.972
 5142TIP3    H215349   7.441   6.069   1.932
 5143TIP3   OH215350   7.327   5.810   1.062
 5143TIP3    H115351   7.266   5.847   0.995
 5143TIP3    H215352   7.357   5.731   1.013
 5144TIP3   OH215353   6.618   5.836   1.791
 5144TIP3    H115354   6.645   5.899   1.859
 5144TIP3    H215355   6.606   5.754   1.844
 5145TIP3   OH215356   6.644   5.298   0.530
 5145TIP3    H115357   6.656   5.309   0.627
 5145TIP3    H215358   6.549   5.275   0.525
 5146TIP3   OH215359   6.211   5.359   1.372
 5146TIP3    H115360   6.285   5.391   1.428
 5146TIP3    H215361   6.255   5.327   1.292
 5147TIP3   OH215362   6.174   5.339   0.889
 5147TIP3    H115363   6.229   5.381   0.820
 5147TIP3    H215364   6.112   5.412   0.909
 5148TIP3   OH215365   7.343   6.051   1.487
 5148TIP3    H115366   7.374   5.980   1.426
 5148TIP3    H215367   7.310   5.997   1.561
 5149TIP3   OH215368   7.015   5.516   1.157
 5149TIP3    H115369   6.935   5.514   1.213
 5149TIP3    H215370   7.086   5.509   1.223
 5150TIP3   OH215371   6.444   5.575   1.163
 5150TIP3    H115372   6.349   5.581   1.136
 5150TIP3    H215373   6.467   5.482   1.144
 5151TIP3   OH215374   6.710   5.571   0.855
 5151TIP3    H115375   6.806   5.584   0.842
 5151TIP3    H215376   6.672   5.593   0.767
 5152TIP3   OH215377   7.503   5.592   1.362
 5152TIP3    H115378   7.472   5.606   1.454
 5152TIP3    H215379   7.434   5.533   1.328
 5153TIP3   OH215380   6.553   5.599   0.627
 5153TIP3    H115381   6.463   5.574   0.652
 5153TIP3    H215382   6.552   5.584   0.531
 5154TIP3   OH215383   7.661   7.275   1.571
 5154TIP3    H115384   7.659   7.296   1.475
 5154TIP3    H215385   7.708   7.353   1.604
 5155TIP3   OH215386   6.629   6.393   1.998
 5155TIP3    H115387   6.709   6.421   2.047
 5155TIP3    H215388   6.564   6.389   2.071
 5156TIP3   OH215389   7.088   5.843   1.258
 5156TIP3    H115390   7.165   5.810   1.210
 5156TIP3    H215391   7.095   5.799   1.345
 5157TIP3   OH215392   6.609   5.332   1.140
 5157TIP3    H115393   6.572   5.256   1.192
 5157TIP3    H215394   6.656   5.285   1.070
 5158TIP3   OH215395   7.068   5.747   1.543
 5158TIP3    H115396   6.978   5.782   1.559
 5158TIP3    H215397   7.124   5.809   1.595
 5159TIP3   OH215398   6.796   6.118   0.667
 5159TIP3    H115399   6.734   6.044   0.681
 5159TIP3    H215400   6.807   6.151   0.759
 5160TIP3   OH215401   7.700   6.368   1.273
 5160TIP3    H115402   7.727   6.414   1.191
 5160TIP3    H215403   7.617   6.324   1.245
 5161TIP3   OH215404   7.203   6.453   1.637
 5161TIP3    H115405   7.236   6.435   1.726
 5161TIP3    H215406   7.164   6.541   1.645
 5162TIP3   OH215407   6.496   6.154   1.315
 5162TIP3    H115408   6.534   6.124   1.231
 5162TIP3    H215409   6.545   6.100   1.379
 5163TIP3   OH215410   6.382   6.074   1.929
 5163TIP3    H115411   6.395   6.059   2.024
 5163TIP3    H215412   6.312   6.009   1.910
 5164TIP3   OH215413   7.107   6.192   1.949
 5164TIP3    H115414   7.045   6.132   1.906
 5164TIP3    H215415   7.193   6.155   1.920
 5165TIP3   OH215416   7.362   6.718   1.532
 5165TIP3    H115417   7.266   6.713   1.547
 5165TIP3    H215418   7.390   6.766   1.613
 5166TIP3   OH215419   7.993   6.645   1.524
 5166TIP3    H115420   7.895   6.641   1.518
 5166TIP3    H215421   8.017   6.617   1.433
 5167TIP3   OH215422   7.470   6.236   1.176
 5167TIP3    H115423   7.378   6.211   1.199
 5167TIP3    H215424   7.502   6.153   1.136
 5168TIP3   OH215425   6.604   6.457   0.954
 5168TIP3    H115426   6.598   6.539   0.899
 5168TIP3    H215427   6.511   6.432   0.957
 5169TIP3   OH215428   6.181   5.766   0.690
 5169TIP3    H115429   6.221   5.856   0.700
 5169TIP3    H215430   6.101   5.775   0.746
 5170TIP3   OH215431   6.749   6.225   0.914
 5170TIP3    H115432   6.705   6.313   0.920
 5170TIP3    H215433   6.701   6.175   0.982
 5171TIP3   OH215434   6.871   6.802   1.408
 5171TIP3    H115435   6.913   6.876   1.360
 5171TIP3    H215436   6.947   6.765   1.456
 5172TIP3   OH215437   6.520   6.688   0.818
 5172TIP3    H115438   6.435   6.707   0.863
 5172TIP3    H215439   6.563   6.777   0.821
 5173TIP3   OH215440   7.253   6.440   1.370
 5173TIP3    H115441   7.241   6.438   1.467
 5173TIP3    H215442   7.328   6.380   1.359
 5174TIP3   OH215443   7.504   6.959   1.421
 5174TIP3    H115444   7.427   6.899   1.425
 5174TIP3    H215445   7.477   7.022   1.351
 5175TIP3   OH215446   6.587   5.581   1.934
 5175TIP3    H115447   6.491   5.583   1.947
 5175TIP3    H215448   6.615   5.524   2.008
 5176TIP3   OH215449   6.307   6.663   1.566
 5176TIP3    H115450   6.363   6.594   1.606
 5176TIP3    H215451   6.329   6.739   1.621
 5177TIP3   OH215452   6.282   6.019   0.737
 5177TIP3    H115453   6.217   6.069   0.791
 5177TIP3    H215454   6.314   6.087   0.676
 5178TIP3   OH215455   7.431   5.643   1.622
 5178TIP3    H115456   7.511   5.683   1.660
 5178TIP3    H215457   7.418   5.563   1.676
 5179TIP3   OH215458   7.296   5.393   0.777
 5179TIP3    H115459   7.291   5.404   0.680
 5179TIP3    H215460   7.340   5.475   0.806
 5180TIP3   OH215461   6.991   5.582   0.890
 5180TIP3    H115462   7.053   5.656   0.871
 5180TIP3    H215463   7.002   5.571   0.987
 5181TIP3   OH215464   7.266   5.891   1.693
 5181TIP3    H115465   7.291   5.943   1.772
 5181TIP3    H215466   7.318   5.809   1.703
 5182TIP3   OH215467   7.138   5.297   0.987
 5182TIP3    H115468   7.135   5.373   1.048
 5182TIP3    H215469   7.196   5.333   0.916
 5183TIP3   OH215470   6.656   5.301   0.806
 5183TIP3    H115471   6.653   5.393   0.839
 5183TIP3    H215472   6.752   5.285   0.812
 5184TIP3   OH215473   7.903   5.793   1.680
 5184TIP3    H115474   7.804   5.791   1.685
 5184TIP3    H215475   7.916   5.752   1.593
 5185TIP3   OH215476   7.555   5.993   1.060
 5185TIP3    H115477   7.481   5.931   1.067
 5185TIP3    H215478   7.627   5.944   1.105
 5186TIP3   OH215479   6.253   5.503   0.678
 5186TIP3    H115480   6.219   5.595   0.685
 5186TIP3    H215481   6.188   5.459   0.621
 5187TIP3   OH215482   7.529   6.952   1.005
 5187TIP3    H115483   7.502   6.960   0.913
 5187TIP3    H215484   7.626   6.954   0.999
 5188TIP3   OH215485   6.601   5.213   1.537
 5188TIP3    H115486   6.571   5.177   1.451
 5188TIP3    H215487   6.592   5.135   1.596
 5189TIP3   OH215488   6.135   6.423   0.923
 5189TIP3    H115489   6.075   6.457   0.990
 5189TIP3    H215490   6.099   6.466   0.841
 5190TIP3   OH215491   6.300   6.981   1.991
 5190TIP3    H115492   6.387   6.982   2.038
 5190TIP3    H215493   6.281   6.886   1.990
 5191TIP3   OH215494   6.775   6.932   2.038
 5191TIP3    H115495   6.870   6.916   2.041
 5191TIP3    H215496   6.749   6.871   1.966
 5192TIP3   OH215497   7.416   6.844   1.770
 5192TIP3    H115498   7.410   6.775   1.840
 5192TIP3    H215499   7.492   6.897   1.800
 5193TIP3   OH215500   6.428   6.383   2.191
 5193TIP3    H115501   6.444   6.287   2.199
 5193TIP3    H215502   6.341   6.385   2.147
 5194TIP3   OH215503   7.034   6.469   1.966
 5194TIP3    H115504   6.993   6.490   1.880
 5194TIP3    H215505   7.065   6.377   1.954
 5195TIP3   OH215506   7.526   6.481   1.575
 5195TIP3    H115507   7.603   6.523   1.532
 5195TIP3    H215508   7.457   6.547   1.557
 5196TIP3   OH215509   6.549   6.123   2.176
 5196TIP3    H115510   6.622   6.066   2.150
 5196TIP3    H215511   6.578   6.152   2.265
 5197TIP3   OH215512   6.593   5.927   0.612
 5197TIP3    H115513   6.567   5.891   0.699
 5197TIP3    H215514   6.668   5.870   0.588
 5198TIP3   OH215515   6.883   6.000   1.837
 5198TIP3    H115516   6.804   6.058   1.837
 5198TIP3    H215517   6.933   6.034   1.760
 5199TIP3   OH215518   7.400   6.402   1.968
 5199TIP3    H115519   7.477   6.369   1.920
 5199TIP3    H215520   7.393   6.337   2.041
 5200TIP3   OH215521   7.008   5.790   1.959
 5200TIP3    H115522   7.007   5.711   1.901
 5200TIP3    H215523   6.963   5.857   1.903
 5201TIP3   OH215524   7.009   5.577   1.770
 5201TIP3    H115525   7.037   5.617   1.685
 5201TIP3    H215526   6.916   5.553   1.751
 5202TIP3   OH215527   7.031   6.109   1.642
 5202TIP3    H115528   7.117   6.124   1.601
 5202TIP3    H215529   6.975   6.175   1.595
 5203TIP3   OH215530   7.614   6.075   2.020
 5203TIP3    H115531   7.662   5.991   2.030
 5203TIP3    H215532   7.683   6.132   1.983
 5204TIP3   OH215533   7.658   6.330   1.757
 5204TIP3    H115534   7.601   6.386   1.699
 5204TIP3    H215535   7.746   6.352   1.718
 5205TIP3   OH215536   6.888   5.892   2.197
 5205TIP3    H115537   6.818   5.825   2.212
 5205TIP3    H215538   6.918   5.869   2.107
 5206TIP3   OH215539   7.140   5.337   1.840
 5206TIP3    H115540   7.090   5.418   1.817
 5206TIP3    H215541   7.072   5.267   1.829
 5207TIP3   OH215542   7.266   5.838   2.054
 5207TIP3    H115543   7.249   5.822   2.149
 5207TIP3    H215544   7.177   5.816   2.018
 5208TIP3   OH215545   7.504   5.792   1.909
 5208TIP3    H115546   7.430   5.791   1.972
 5208TIP3    H215547   7.579   5.761   1.965
 5209TIP3   OH215548   7.734   5.734   2.058
 5209TIP3    H115549   7.748   5.638   2.072
 5209TIP3    H215550   7.730   5.769   2.150
 5210TIP3   OH215551   6.724   5.674   2.249
 5210TIP3    H115552   6.725   5.582   2.217
 5210TIP3    H215553   6.761   5.662   2.339
 5211TIP3   OH215554   7.234   5.348   2.097
 5211TIP3    H115555   7.299   5.275   2.091
 5211TIP3    H215556   7.194   5.343   2.008
 5212TIP3   OH215557   7.301   5.561   2.256
 5212TIP3    H115558   7.280   5.489   2.192
 5212TIP3    H215559   7.222   5.618   2.249
 5213TIP3   OH215560   5.976   6.147   0.622
 5213TIP3    H115561   6.055   6.176   0.571
 5213TIP3    H215562   5.953   6.066   0.573
 5214TIP3   OH215563   5.922   6.784   0.981
 5214TIP3    H115564   5.851   6.722   0.949
 5214TIP3    H215565   5.965   6.727   1.047
 5215TIP3   OH215566   6.052   6.628   1.170
 5215TIP3    H115567   6.041   6.561   1.240
 5215TIP3    H215568   6.106   6.693   1.220
 5216TIP3   OH215569   7.835   7.041   1.258
 5216TIP3    H115570   7.781   6.961   1.243
 5216TIP3    H215571   7.881   7.011   1.340
 5217TIP3   OH215572   7.851   6.728   1.826
 5217TIP3    H115573   7.781   6.740   1.893
 5217TIP3    H215574   7.896   6.815   1.828
 5218TIP3   OH215575   7.846   6.491   1.080
 5218TIP3    H115576   7.908   6.431   1.033
 5218TIP3    H215577   7.816   6.550   1.010
 5219TIP3   OH215578   7.682   6.806   1.270
 5219TIP3    H115579   7.615   6.848   1.328
 5219TIP3    H215580   7.626   6.754   1.208
 5220TIP3   OH215581   7.647   5.976   0.779
 5220TIP3    H115582   7.662   5.884   0.804
 5220TIP3    H215583   7.606   6.011   0.860
 5221TIP3   OH215584   6.236   6.045   1.542
 5221TIP3    H115585   6.234   6.009   1.451
 5221TIP3    H215586   6.333   6.044   1.559
 5222TIP3   OH215587   7.906   6.396   1.652
 5222TIP3    H115588   7.979   6.330   1.642
 5222TIP3    H215589   7.935   6.466   1.592
 5223TIP3   OH215590   8.087   6.195   1.674
 5223TIP3    H115591   8.009   6.148   1.709
 5223TIP3    H215592   8.156   6.126   1.685
 5224TIP3   OH215593   7.768   5.856   1.183
 5224TIP3    H115594   7.853   5.883   1.142
 5224TIP3    H215595   7.781   5.893   1.273
 5225TIP3   OH215596   7.839   6.000   1.416
 5225TIP3    H115597   7.763   6.036   1.465
 5225TIP3    H215598   7.871   6.080   1.367
 5226TIP3   OH215599   6.458   5.728   2.216
 5226TIP3    H115600   6.556   5.721   2.222
 5226TIP3    H215601   6.432   5.641   2.253
 5227TIP3   OH215602   8.296   5.599   1.970
 5227TIP3    H115603   8.352   5.536   1.921
 5227TIP3    H215604   8.260   5.652   1.895
 5228TIP3   OH215605   7.668   5.465   0.746
 5228TIP3    H115606   7.738   5.450   0.812
 5228TIP3    H215607   7.640   5.373   0.730
 5229TIP3   OH215608   6.417   5.422   1.545
 5229TIP3    H115609   6.478   5.346   1.555
 5229TIP3    H215610   6.481   5.496   1.538
 5230TIP3   OH215611   6.215   5.693   1.616
 5230TIP3    H115612   6.268   5.693   1.534
 5230TIP3    H215613   6.246   5.774   1.659
 5231TIP3   OH215614   8.157   5.730   1.777
 5231TIP3    H115615   8.072   5.775   1.795
 5231TIP3    H215616   8.125   5.659   1.719
 5232TIP3   OH215617   6.204   5.197   1.118
 5232TIP3    H115618   6.112   5.191   1.148
 5232TIP3    H215619   6.197   5.256   1.040
 5233TIP3   OH215620   6.425   5.280   1.934
 5233TIP3    H115621   6.374   5.272   2.017
 5233TIP3    H215622   6.357   5.317   1.874
 5234TIP3   OH215623   6.463   6.708   2.009
 5234TIP3    H115624   6.369   6.685   1.994
 5234TIP3    H215625   6.474   6.688   2.103
 5235TIP3   OH215626   6.645   6.743   1.559
 5235TIP3    H115627   6.597   6.819   1.521
 5235TIP3    H215628   6.731   6.756   1.514
 5236TIP3   OH215629   7.083   6.983   1.695
 5236TIP3    H115630   7.125   6.983   1.784
 5236TIP3    H215631   7.149   7.036   1.645
 5237TIP3   OH215632   7.265   7.137   1.560
 5237TIP3    H115633   7.339   7.087   1.523
 5237TIP3    H215634   7.313   7.199   1.620
 5238TIP3   OH215635   8.059   5.494   1.656
 5238TIP3    H115636   7.969   5.483   1.622
 5238TIP3    H215637   8.094   5.402   1.647
 5239TIP3   OH215638   6.317   6.995   1.586
 5239TIP3    H115639   6.226   7.026   1.563
 5239TIP3    H215640   6.333   7.045   1.667
 5240TIP3   OH215641   6.554   6.975   1.444
 5240TIP3    H115642   6.466   6.987   1.487
 5240TIP3    H215643   6.536   7.008   1.354
 5241TIP3   OH215644   6.979   7.004   1.234
 5241TIP3    H115645   6.905   7.023   1.173
 5241TIP3    H215646   6.991   7.090   1.278
 5242TIP3   OH215647   7.242   6.933   1.290
 5242TIP3    H115648   7.149   6.958   1.272
 5242TIP3    H215649   7.290   7.012   1.260
 5243TIP3   OH215650   7.432   7.117   1.205
 5243TIP3    H115651   7.409   7.201   1.157
 5243TIP3    H215652   7.462   7.060   1.130
 5244TIP3   OH215653   6.229   6.788   1.325
 5244TIP3    H115654   6.254   6.760   1.415
 5244TIP3    H215655   6.303   6.746   1.275
 5245TIP3   OH215656   6.426   6.663   1.187
 5245TIP3    H115657   6.441   6.578   1.235
 5245TIP3    H215658   6.518   6.698   1.183
 5246TIP3   OH215659   6.693   6.754   1.193
 5246TIP3    H115660   6.722   6.661   1.182
 5246TIP3    H215661   6.742   6.776   1.276
 5247TIP3   OH215662   7.264   5.409   1.275
 5247TIP3    H115663   7.223   5.338   1.327
 5247TIP3    H215664   7.339   5.364   1.232
 5248TIP3   OH215665   7.786   5.299   1.180
 5248TIP3    H115666   7.818   5.352   1.104
 5248TIP3    H215667   7.690   5.315   1.176
 5249TIP3   OH215668   7.874   5.403   0.941
 5249TIP3    H115669   7.943   5.341   0.907
 5249TIP3    H215670   7.916   5.488   0.918
 5250TIP3   OH215671   6.512   5.119   1.289
 5250TIP3    H115672   6.420   5.085   1.294
 5250TIP3    H215673   6.562   5.034   1.286
 5251TIP3   OH215674   6.309   4.993   0.946
 5251TIP3    H115675   6.332   5.049   0.870
 5251TIP3    H215676   6.278   5.058   1.011
 5252TIP3   OH215677   6.958   5.154   1.174
 5252TIP3    H115678   7.016   5.198   1.109
 5252TIP3    H215679   6.991   5.189   1.258
 5253TIP3   OH215680   7.501   5.300   1.155
 5253TIP3    H115681   7.507   5.258   1.068
 5253TIP3    H215682   7.491   5.221   1.213
 5254TIP3   OH215683   7.532   5.212   0.721
 5254TIP3    H115684   7.442   5.243   0.741
 5254TIP3    H215685   7.534   5.127   0.770
 5255TIP3   OH215686   6.013   6.560   0.730
 5255TIP3    H115687   5.923   6.545   0.695
 5255TIP3    H215688   6.021   6.656   0.721
 5256TIP3   OH215689   6.428   5.154   0.710
 5256TIP3    H115690   6.475   5.087   0.657
 5256TIP3    H215691   6.501   5.197   0.759
 5257TIP3   OH215692   6.928   5.330   0.809
 5257TIP3    H115693   6.991   5.280   0.864
 5257TIP3    H215694   6.951   5.421   0.836
 5258TIP3   OH215695   6.720   5.402   2.185
 5258TIP3    H115696   6.684   5.330   2.239
 5258TIP3    H215697   6.814   5.400   2.213
 5259TIP3   OH215698   6.972   5.401   2.302
 5259TIP3    H115699   7.056   5.370   2.263
 5259TIP3    H215700   6.957   5.331   2.370
 5260TIP3   OH215701   7.798   5.463   2.088
 5260TIP3    H115702   7.815   5.431   2.180
 5260TIP3    H215703   7.888   5.457   2.048
 5261TIP3   OH215704   7.724   7.008   1.592
 5261TIP3    H115705   7.649   6.979   1.537
 5261TIP3    H215706   7.710   7.105   1.588
 5262TIP3   OH215707   8.304   6.267   1.091
 5262TIP3    H115708   8.325   6.203   1.163
 5262TIP3    H215709   8.392   6.307   1.080
 5263TIP3   OH215710   8.048   6.545   1.276
 5263TIP3    H115711   7.976   6.517   1.216
 5263TIP3    H215712   8.078   6.460   1.317
 5264TIP3   OH215713   8.319   6.607   1.232
 5264TIP3    H115714   8.333   6.641   1.321
 5264TIP3    H215715   8.223   6.588   1.234
 5265TIP3   OH215716   8.386   6.099   1.291
 5265TIP3    H115717   8.430   6.149   1.361
 5265TIP3    H215718   8.390   6.008   1.328
 5266TIP3   OH215719   8.023   5.613   0.844
 5266TIP3    H115720   8.079   5.652   0.914
 5266TIP3    H215721   8.090   5.584   0.781
 5267TIP3   OH215722   8.149   6.346   1.428
 5267TIP3    H115723   8.202   6.336   1.509
 5267TIP3    H215724   8.111   6.258   1.417
 5268TIP3   OH215725   8.376   5.857   1.418
 5268TIP3    H115726   8.280   5.851   1.432
 5268TIP3    H215727   8.410   5.787   1.476
 5269TIP3   OH215728   8.381   5.486   1.063
 5269TIP3    H115729   8.365   5.450   0.973
 5269TIP3    H215730   8.391   5.402   1.113
 5270TIP3   OH215731   8.203   6.641   1.703
 5270TIP3    H115732   8.258   6.574   1.660
 5270TIP3    H215733   8.126   6.644   1.642
 5271TIP3   OH215734   8.356   6.373   1.651
 5271TIP3    H115735   8.396   6.286   1.662
 5271TIP3    H215736   8.369   6.412   1.740
 5272TIP3   OH215737   8.513   5.926   1.732
 5272TIP3    H115738   8.522   5.832   1.709
 5272TIP3    H215739   8.550   5.928   1.822
 5273TIP3   OH215740   8.042   6.300   1.025
 5273TIP3    H115741   8.053   6.268   0.935
 5273TIP3    H215742   8.137   6.300   1.055
 5274TIP3   OH215743   8.250   5.981   1.699
 5274TIP3    H115744   8.348   5.975   1.699
 5274TIP3    H215745   8.228   5.895   1.741
 5275TIP3   OH215746   8.210   5.695   1.033
 5275TIP3    H115747   8.262   5.613   1.047
 5275TIP3    H215748   8.278   5.760   1.050
 5276TIP3   OH215749   8.015   5.944   1.102
 5276TIP3    H115750   8.071   5.927   1.025
 5276TIP3    H215751   8.052   6.025   1.139
 5277TIP3   OH215752   8.219   5.536   1.424
 5277TIP3    H115753   8.168   5.532   1.506
 5277TIP3    H215754   8.154   5.574   1.362
 5278TIP3   OH215755   8.293   5.371   0.829
 5278TIP3    H115756   8.201   5.338   0.838
 5278TIP3    H215757   8.338   5.285   0.812
 5279TIP3   OH215758   8.540   5.654   1.677
 5279TIP3    H115759   8.513   5.577   1.731
 5279TIP3    H215760   8.622   5.624   1.635
 5280TIP3   OH215761   0.470   6.462   2.978
 5280TIP3    H115762   0.501   6.545   3.019
 5280TIP3    H215763   0.497   6.477   2.885
 5281TIP3   OH215764  -0.100   6.383   2.616
 5281TIP3    H115765  -0.030   6.381   2.685
 5281TIP3    H215766  -0.050   6.417   2.540
 5282TIP3   OH215767   0.545   6.670   3.152
 5282TIP3    H115768   0.461   6.718   3.132
 5282TIP3    H215769   0.568   6.709   3.238
 5283TIP3   OH215770   0.112   6.404   2.794
 5283TIP3    H115771   0.169   6.336   2.832
 5283TIP3    H215772   0.162   6.486   2.811
 5284TIP3   OH215773   0.261   6.362   3.130
 5284TIP3    H115774   0.197   6.433   3.118
 5284TIP3    H215775   0.332   6.387   3.068
 5285TIP3   OH215776   0.188   7.390   3.129
 5285TIP3    H115777   0.187   7.298   3.096
 5285TIP3    H215778   0.135   7.434   3.061
 5286TIP3   OH215779   0.396   7.014   2.970
 5286TIP3    H115780   0.314   7.066   2.978
 5286TIP3    H215781   0.424   7.039   2.879
 5287TIP3   OH215782   0.200   5.951   2.226
 5287TIP3    H115783   0.110   5.954   2.261
 5287TIP3    H215784   0.204   6.033   2.172
 5288TIP3   OH215785   0.470   7.703   3.190
 5288TIP3    H115786   0.458   7.608   3.213
 5288TIP3    H215787   0.378   7.733   3.183
 5289TIP3   OH215788   0.330   6.849   3.445
 5289TIP3    H115789   0.239   6.852   3.479
 5289TIP3    H215790   0.346   6.753   3.442
 5290TIP3   OH215791   0.096   6.649   3.372
 5290TIP3    H115792   0.077   6.587   3.444
 5290TIP3    H215793   0.056   6.730   3.408
 5291TIP3   OH215794   0.165   7.162   2.974
 5291TIP3    H115795   0.183   7.208   2.889
 5291TIP3    H215796   0.069   7.147   2.972
 5292TIP3   OH215797   0.237   6.549   2.193
 5292TIP3    H115798   0.235   6.484   2.122
 5292TIP3    H215799   0.210   6.633   2.151
 5293TIP3   OH215800   0.443   7.430   3.214
 5293TIP3    H115801   0.346   7.424   3.198
 5293TIP3    H215802   0.475   7.397   3.127
 5294TIP3   OH215803   0.359   6.577   3.369
 5294TIP3    H115804   0.263   6.588   3.359
 5294TIP3    H215805   0.384   6.540   3.283
 5295TIP3   OH215806  -0.013   6.755   2.773
 5295TIP3    H115807  -0.040   6.670   2.736
 5295TIP3    H215808   0.078   6.734   2.801
 5296TIP3   OH215809   0.272   6.522   3.816
 5296TIP3    H115810   0.276   6.425   3.812
 5296TIP3    H215811   0.176   6.535   3.801
 5297TIP3   OH215812   0.232   7.804   2.715
 5297TIP3    H115813   0.226   7.900   2.726
 5297TIP3    H215814   0.275   7.801   2.627
 5298TIP3   OH215815   0.269   7.799   2.993
 5298TIP3    H115816   0.222   7.779   2.910
 5298TIP3    H215817   0.352   7.752   2.978
 5299TIP3   OH215818   0.306   7.516   3.519
 5299TIP3    H115819   0.221   7.558   3.498
 5299TIP3    H215820   0.362   7.596   3.534
 5300TIP3   OH215821   0.268   6.897   2.337
 5300TIP3    H115822   0.207   6.846   2.395
 5300TIP3    H215823   0.317   6.951   2.401
 5301TIP3   OH215824   0.301   7.291   2.773
 5301TIP3    H115825   0.357   7.223   2.728
 5301TIP3    H215826   0.321   7.371   2.720
 5302TIP3   OH215827   0.111   6.743   2.494
 5302TIP3    H115828   0.093   6.649   2.474
 5302TIP3    H215829   0.028   6.773   2.532
 5303TIP3   OH215830   0.338   7.184   3.327
 5303TIP3    H115831   0.406   7.115   3.331
 5303TIP3    H215832   0.388   7.260   3.294
 5304TIP3   OH215833   0.539   6.993   3.349
 5304TIP3    H115834   0.464   6.942   3.388
 5304TIP3    H215835   0.613   6.932   3.369
 5305TIP3   OH215836   0.068   6.479   2.407
 5305TIP3    H115837   0.100   6.386   2.409
 5305TIP3    H215838   0.121   6.511   2.331
 5306TIP3   OH215839   0.224   6.648   2.871
 5306TIP3    H115840   0.309   6.670   2.827
 5306TIP3    H215841   0.242   6.690   2.958
 5307TIP3   OH215842   0.301   6.792   3.096
 5307TIP3    H115843   0.234   6.834   3.153
 5307TIP3    H215844   0.339   6.871   3.050
 5308TIP3   OH215845   0.750   6.389   3.661
 5308TIP3    H115846   0.807   6.321   3.619
 5308TIP3    H215847   0.716   6.438   3.583
 5309TIP3   OH215848   0.174   6.223   2.415
 5309TIP3    H115849   0.216   6.206   2.501
 5309TIP3    H215850   0.111   6.148   2.410
 5310TIP3   OH215851   0.617   6.519   3.464
 5310TIP3    H115852   0.535   6.562   3.497
 5310TIP3    H215853   0.579   6.450   3.407
 5311TIP3   OH215854   0.253   6.159   2.046
 5311TIP3    H115855   0.275   6.091   1.979
 5311TIP3    H215856   0.330   6.217   2.044
 5312TIP3   OH215857   0.514   6.277   3.346
 5312TIP3    H115858   0.423   6.256   3.319
 5312TIP3    H215859   0.555   6.188   3.338
 5313TIP3   OH215860   0.237   6.095   2.877
 5313TIP3    H115861   0.275   6.132   2.794
 5313TIP3    H215862   0.141   6.100   2.861
 5314TIP3   OH215863   0.333   6.178   2.637
 5314TIP3    H115864   0.406   6.124   2.598
 5314TIP3    H215865   0.369   6.269   2.620
 5315TIP3   OH215866  -0.042   6.093   2.852
 5315TIP3    H115867  -0.059   6.084   2.757
 5315TIP3    H215868  -0.051   6.001   2.884
 5316TIP3   OH215869  -0.008   6.010   2.415
 5316TIP3    H115870  -0.102   6.025   2.405
 5316TIP3    H215871  -0.009   5.917   2.447
 5317TIP3   OH215872   0.254   6.249   3.776
 5317TIP3    H115873   0.269   6.223   3.870
 5317TIP3    H215874   0.344   6.241   3.739
 5318TIP3   OH215875   1.455   7.174   2.036
 5318TIP3    H115876   1.422   7.264   2.013
 5318TIP3    H215877   1.383   7.120   1.999
 5319TIP3   OH215878   1.453   7.177   2.425
 5319TIP3    H115879   1.489   7.147   2.510
 5319TIP3    H215880   1.413   7.096   2.390
 5320TIP3   OH215881   0.750   7.065   2.783
 5320TIP3    H115882   0.778   6.995   2.845
 5320TIP3    H215883   0.832   7.115   2.774
 5321TIP3   OH215884   1.700   7.478   2.099
 5321TIP3    H115885   1.682   7.409   2.164
 5321TIP3    H215886   1.731   7.552   2.156
 5322TIP3   OH215887   0.730   7.485   2.501
 5322TIP3    H115888   0.720   7.387   2.506
 5322TIP3    H215889   0.827   7.491   2.493
 5323TIP3   OH215890   0.446   6.691   2.299
 5323TIP3    H115891   0.396   6.774   2.309
 5323TIP3    H215892   0.370   6.630   2.287
 5324TIP3   OH215893   0.497   6.975   2.478
 5324TIP3    H115894   0.541   6.893   2.509
 5324TIP3    H215895   0.542   6.992   2.395
 5325TIP3   OH215896   1.370   7.923   2.165
 5325TIP3    H115897   1.395   7.880   2.080
 5325TIP3    H215898   1.368   7.845   2.222
 5326TIP3   OH215899   1.254   7.399   2.466
 5326TIP3    H115900   1.294   7.321   2.424
 5326TIP3    H215901   1.336   7.447   2.489
 5327TIP3   OH215902   2.268   6.718   2.464
 5327TIP3    H115903   2.298   6.802   2.505
 5327TIP3    H215904   2.291   6.733   2.371
 5328TIP3   OH215905   1.665   6.899   2.495
 5328TIP3    H115906   1.707   6.814   2.516
 5328TIP3    H215907   1.631   6.882   2.405
 5329TIP3   OH215908   1.007   6.559   2.460
 5329TIP3    H115909   0.986   6.632   2.397
 5329TIP3    H215910   0.957   6.486   2.418
 5330TIP3   OH215911   1.700   6.653   2.082
 5330TIP3    H115912   1.771   6.638   2.148
 5330TIP3    H215913   1.752   6.687   2.007
 5331TIP3   OH215914   0.636   6.759   2.572
 5331TIP3    H115915   0.720   6.739   2.619
 5331TIP3    H215916   0.649   6.704   2.492
 5332TIP3   OH215917   1.075   6.958   2.370
 5332TIP3    H115918   1.169   6.935   2.380
 5332TIP3    H215919   1.037   6.874   2.335
 5333TIP3   OH215920   2.342   6.929   2.633
 5333TIP3    H115921   2.257   6.973   2.614
 5333TIP3    H215922   2.358   6.957   2.724
 5334TIP3   OH215923   1.000   6.543   2.898
 5334TIP3    H115924   0.940   6.579   2.830
 5334TIP3    H215925   0.946   6.559   2.979
 5335TIP3   OH215926   1.345   7.395   1.916
 5335TIP3    H115927   1.317   7.377   1.825
 5335TIP3    H215928   1.291   7.474   1.937
 5336TIP3   OH215929   1.108   7.319   2.687
 5336TIP3    H115930   1.047   7.387   2.724
 5336TIP3    H215931   1.148   7.366   2.611
 5337TIP3   OH215932   1.902   6.659   2.262
 5337TIP3    H115933   1.890   6.612   2.345
 5337TIP3    H215934   1.954   6.737   2.290
 5338TIP3   OH215935   0.873   6.657   2.680
 5338TIP3    H115936   0.935   6.729   2.704
 5338TIP3    H215937   0.922   6.617   2.604
 5339TIP3   OH215938   0.938   7.512   2.795
 5339TIP3    H115939   0.911   7.597   2.757
 5339TIP3    H215940   0.858   7.492   2.848
 5340TIP3   OH215941   1.755   7.701   2.264
 5340TIP3    H115942   1.665   7.701   2.302
 5340TIP3    H215943   1.754   7.788   2.218
 5341TIP3   OH215944   2.060   6.620   2.630
 5341TIP3    H115945   1.973   6.644   2.596
 5341TIP3    H215946   2.121   6.651   2.560
 5342TIP3   OH215947   1.349   6.256   2.614
 5342TIP3    H115948   1.335   6.162   2.634
 5342TIP3    H215949   1.273   6.296   2.660
 5343TIP3   OH215950   1.473   7.751   1.964
 5343TIP3    H115951   1.506   7.661   1.945
 5343TIP3    H215952   1.551   7.802   1.935
 5344TIP3   OH215953   1.613   7.545   1.846
 5344TIP3    H115954   1.593   7.462   1.800
 5344TIP3    H215955   1.651   7.511   1.930
 5345TIP3   OH215956   1.993   7.623   2.613
 5345TIP3    H115957   1.981   7.544   2.555
 5345TIP3    H215958   1.976   7.695   2.549
 5346TIP3   OH215959   1.292   7.022   1.874
 5346TIP3    H115960   1.213   7.077   1.856
 5346TIP3    H215961   1.334   7.018   1.786
 5347TIP3   OH215962   1.245   6.805   1.603
 5347TIP3    H115963   1.313   6.863   1.642
 5347TIP3    H215964   1.301   6.750   1.545
 5348TIP3   OH215965   2.187   7.272   2.458
 5348TIP3    H115966   2.102   7.321   2.460
 5348TIP3    H215967   2.218   7.294   2.368
 5349TIP3   OH215968   1.633   7.108   1.839
 5349TIP3    H115969   1.578   7.131   1.917
 5349TIP3    H215970   1.717   7.083   1.882
 5350TIP3   OH215971   1.866   7.144   2.757
 5350TIP3    H115972   1.861   7.228   2.805
 5350TIP3    H215973   1.780   7.146   2.710
 5351TIP3   OH215974   0.862   7.098   2.260
 5351TIP3    H115975   0.822   7.039   2.193
 5351TIP3    H215976   0.939   7.046   2.292
 5352TIP3   OH215977   0.999   7.510   2.417
 5352TIP3    H115978   0.971   7.488   2.326
 5352TIP3    H215979   1.088   7.470   2.421
 5353TIP3   OH215980   1.001   7.074   2.615
 5353TIP3    H115981   1.031   7.048   2.525
 5353TIP3    H215982   1.043   7.162   2.627
 5354TIP3   OH215983   1.512   7.719   2.387
 5354TIP3    H115984   1.503   7.796   2.445
 5354TIP3    H215985   1.504   7.643   2.447
 5355TIP3   OH215986   1.138   7.633   2.940
 5355TIP3    H115987   1.075   7.695   2.983
 5355TIP3    H215988   1.074   7.578   2.888
 5356TIP3   OH215989   1.469   6.964   1.669
 5356TIP3    H115990   1.528   7.026   1.718
 5356TIP3    H215991   1.499   6.980   1.576
 5357TIP3   OH215992   0.895   7.182   3.039
 5357TIP3    H115993   0.901   7.271   3.078
 5357TIP3    H215994   0.801   7.162   3.054
 5358TIP3   OH215995   1.217   7.637   1.941
 5358TIP3    H115996   1.301   7.684   1.959
 5358TIP3    H215997   1.160   7.711   1.912
 5359TIP3   OH215998   0.936   7.805   3.028
 5359TIP3    H115999   0.897   7.801   2.939
 5359TIP3    H216000   0.865   7.767   3.084
 5360TIP3   OH216001   1.988   6.203   1.716
 5360TIP3    H116002   1.906   6.226   1.765
 5360TIP3    H216003   2.002   6.285   1.665
 5361TIP3   OH216004   0.724   6.947   2.063
 5361TIP3    H116005   0.659   6.995   2.011
 5361TIP3    H216006   0.684   6.860   2.072
 5362TIP3   OH216007   1.788   7.553   1.247
 5362TIP3    H116008   1.800   7.648   1.270
 5362TIP3    H216009   1.881   7.522   1.248
 5363TIP3   OH216010   0.514   7.331   2.971
 5363TIP3    H116011   0.448   7.307   2.903
 5363TIP3    H216012   0.553   7.245   2.995
 5364TIP3   OH216013   0.376   7.520   2.642
 5364TIP3    H116014   0.443   7.532   2.574
 5364TIP3    H216015   0.332   7.606   2.642
 5365TIP3   OH216016   2.250   7.964   2.675
 5365TIP3    H116017   2.245   7.867   2.690
 5365TIP3    H216018   2.169   7.994   2.721
 5366TIP3   OH216019   1.337   7.747   2.791
 5366TIP3    H116020   1.336   7.842   2.813
 5366TIP3    H216021   1.261   7.713   2.843
 5367TIP3   OH216022   1.295   7.779   1.678
 5367TIP3    H116023   1.296   7.834   1.758
 5367TIP3    H216024   1.361   7.712   1.698
 5368TIP3   OH216025   2.115   7.105   2.933
 5368TIP3    H116026   2.034   7.113   2.882
 5368TIP3    H216027   2.134   7.009   2.925
 5369TIP3   OH216028   0.712   7.520   2.953
 5369TIP3    H116029   0.765   7.501   3.034
 5369TIP3    H216030   0.642   7.451   2.959
 5370TIP3   OH216031   1.114   6.338   2.744
 5370TIP3    H116032   1.026   6.306   2.714
 5370TIP3    H216033   1.086   6.417   2.794
 5371TIP3   OH216034   1.651   6.453   2.938
 5371TIP3    H116035   1.721   6.423   3.000
 5371TIP3    H216036   1.569   6.432   2.986
 5372TIP3   OH216037   1.885   6.881   2.855
 5372TIP3    H116038   1.834   6.880   2.940
 5372TIP3    H216039   1.862   6.968   2.818
 5373TIP3   OH216040   1.568   6.998   1.422
 5373TIP3    H116041   1.537   6.975   1.333
 5373TIP3    H216042   1.640   7.059   1.400
 5374TIP3   OH216043   1.243   6.391   1.704
 5374TIP3    H116044   1.222   6.387   1.800
 5374TIP3    H216045   1.214   6.301   1.678
 5375TIP3   OH216046   1.049   6.853   2.763
 5375TIP3    H116047   0.995   6.872   2.843
 5375TIP3    H216048   1.033   6.934   2.710
 5376TIP3   OH216049   0.932   6.743   2.274
 5376TIP3    H116050   0.841   6.714   2.295
 5376TIP3    H216051   0.943   6.700   2.186
 5377TIP3   OH216052   1.422   6.821   2.006
 5377TIP3    H116053   1.373   6.894   1.961
 5377TIP3    H216054   1.478   6.788   1.933
 5378TIP3   OH216055   1.597   7.103   3.093
 5378TIP3    H116056   1.573   7.028   3.152
 5378TIP3    H216057   1.692   7.112   3.112
 5379TIP3   OH216058   1.577   6.851   2.239
 5379TIP3    H116059   1.513   6.877   2.169
 5379TIP3    H216060   1.614   6.772   2.194
 5380TIP3   OH216061   0.867   6.880   2.968
 5380TIP3    H116062   0.889   6.945   3.037
 5380TIP3    H216063   0.855   6.798   3.020
 5381TIP3   OH216064   0.901   6.343   1.674
 5381TIP3    H116065   0.899   6.348   1.772
 5381TIP3    H216066   0.823   6.399   1.653
 5382TIP3   OH216067   0.458   6.402   2.557
 5382TIP3    H116068   0.536   6.434   2.607
 5382TIP3    H216069   0.496   6.365   2.476
 5383TIP3   OH216070   0.438   6.378   2.088
 5383TIP3    H116071   0.477   6.415   2.005
 5383TIP3    H216072   0.424   6.460   2.137
 5384TIP3   OH216073   1.589   7.096   2.661
 5384TIP3    H116074   1.622   7.025   2.601
 5384TIP3    H216075   1.558   7.041   2.737
 5385TIP3   OH216076   1.266   6.562   2.335
 5385TIP3    H116077   1.184   6.560   2.389
 5385TIP3    H216078   1.335   6.551   2.402
 5386TIP3   OH216079   0.700   6.619   2.344
 5386TIP3    H116080   0.607   6.632   2.316
 5386TIP3    H216081   0.718   6.526   2.321
 5387TIP3   OH216082   0.957   6.612   2.035
 5387TIP3    H116083   1.052   6.627   2.016
 5387TIP3    H216084   0.913   6.638   1.951
 5388TIP3   OH216085   1.750   6.639   2.541
 5388TIP3    H116086   1.716   6.651   2.632
 5388TIP3    H216087   1.684   6.577   2.505
 5389TIP3   OH216088   0.818   6.662   1.807
 5389TIP3    H116089   0.749   6.605   1.767
 5389TIP3    H216090   0.867   6.691   1.728
 5390TIP3   OH216091   0.888   7.432   3.162
 5390TIP3    H116092   0.961   7.472   3.212
 5390TIP3    H216093   0.818   7.433   3.231
 5391TIP3   OH216094   1.340   6.893   2.434
 5391TIP3    H116095   1.411   6.851   2.384
 5391TIP3    H216096   1.343   6.846   2.520
 5392TIP3   OH216097   0.859   6.374   2.318
 5392TIP3    H116098   0.821   6.299   2.368
 5392TIP3    H216099   0.908   6.328   2.248
 5393TIP3   OH216100   1.317   6.792   2.716
 5393TIP3    H116101   1.226   6.824   2.734
 5393TIP3    H216102   1.372   6.853   2.770
 5394TIP3   OH216103   1.070   7.167   1.823
 5394TIP3    H116104   0.995   7.106   1.810
 5394TIP3    H216105   1.044   7.211   1.907
 5395TIP3   OH216106   1.950   7.412   2.444
 5395TIP3    H116107   1.976   7.463   2.365
 5395TIP3    H216108   1.866   7.370   2.415
 5396TIP3   OH216109   1.506   6.482   1.694
 5396TIP3    H116110   1.409   6.470   1.691
 5396TIP3    H216111   1.517   6.578   1.707
 5397TIP3   OH216112   1.463   7.497   2.812
 5397TIP3    H116113   1.477   7.473   2.904
 5397TIP3    H216114   1.413   7.581   2.818
 5398TIP3   OH216115   1.579   6.737   1.787
 5398TIP3    H116116   1.675   6.745   1.800
 5398TIP3    H216117   1.557   6.816   1.734
 5399TIP3   OH216118   0.753   7.211   2.491
 5399TIP3    H116119   0.787   7.175   2.406
 5399TIP3    H216120   0.783   7.143   2.554
 5400TIP3   OH216121   1.238   7.344   1.666
 5400TIP3    H116122   1.178   7.415   1.642
 5400TIP3    H216123   1.176   7.273   1.693
 5401TIP3   OH216124   0.631   7.118   3.106
 5401TIP3    H116125   0.640   7.107   3.202
 5401TIP3    H216126   0.559   7.056   3.086
 5402TIP3   OH216127   1.354   7.237   3.125
 5402TIP3    H116128   1.290   7.177   3.082
 5402TIP3    H216129   1.439   7.198   3.096
 5403TIP3   OH216130   1.611   7.776   2.703
 5403TIP3    H116131   1.518   7.750   2.712
 5403TIP3    H216132   1.629   7.812   2.793
 5404TIP3   OH216133   2.019   6.832   1.619
 5404TIP3    H116134   1.959   6.787   1.556
 5404TIP3    H216135   2.016   6.922   1.579
 5405TIP3   OH216136   2.243   7.689   2.697
 5405TIP3    H116137   2.145   7.679   2.690
 5405TIP3    H216138   2.269   7.658   2.608
 5406TIP3   OH216139   1.731   7.618   1.531
 5406TIP3    H116140   1.694   7.559   1.599
 5406TIP3    H216141   1.717   7.567   1.450
 5407TIP3   OH216142   1.717   7.276   2.361
 5407TIP3    H116143   1.623   7.251   2.372
 5407TIP3    H216144   1.752   7.196   2.316
 5408TIP3   OH216145   0.874   7.489   2.177
 5408TIP3    H116146   0.871   7.542   2.093
 5408TIP3    H216147   0.781   7.491   2.203
 5409TIP3   OH216148   0.982   7.258   2.063
 5409TIP3    H116149   0.959   7.346   2.097
 5409TIP3    H216150   0.949   7.202   2.136
 5410TIP3   OH216151   1.103   7.844   2.596
 5410TIP3    H116152   1.121   7.930   2.553
 5410TIP3    H216153   1.192   7.810   2.615
 5411TIP3   OH216154   1.507   7.486   2.544
 5411TIP3    H116155   1.497   7.478   2.642
 5411TIP3    H216156   1.578   7.423   2.527
 5412TIP3   OH216157   1.484   7.331   1.445
 5412TIP3    H116158   1.537   7.323   1.526
 5412TIP3    H216159   1.394   7.331   1.482
 5413TIP3   OH216160   1.769   7.981   2.602
 5413TIP3    H116161   1.709   7.907   2.629
 5413TIP3    H216162   1.705   8.053   2.587
 5414TIP3   OH216163   1.811   7.821   1.281
 5414TIP3    H116164   1.868   7.899   1.262
 5414TIP3    H216165   1.722   7.859   1.274
 5415TIP3   OH216166   0.836   6.626   3.112
 5415TIP3    H116167   0.739   6.624   3.123
 5415TIP3    H216168   0.865   6.567   3.184
 5416TIP3   OH216169   1.651   7.319   1.663
 5416TIP3    H116170   1.638   7.245   1.726
 5416TIP3    H216171   1.747   7.309   1.644
 5417TIP3   OH216172   0.591   7.733   2.758
 5417TIP3    H116173   0.594   7.636   2.762
 5417TIP3    H216174   0.617   7.756   2.847
 5418TIP3   OH216175   1.675   6.693   2.802
 5418TIP3    H116176   1.760   6.727   2.834
 5418TIP3    H216177   1.665   6.610   2.855
 5419TIP3   OH216178   1.559   6.436   1.968
 5419TIP3    H116179   1.543   6.457   1.874
 5419TIP3    H216180   1.598   6.520   2.001
 5420TIP3   OH216181   1.239   6.624   2.066
 5420TIP3    H116182   1.304   6.695   2.048
 5420TIP3    H216183   1.248   6.614   2.163
 5421TIP3   OH216184   1.516   6.935   2.868
 5421TIP3    H116185   1.542   6.981   2.950
 5421TIP3    H216186   1.567   6.852   2.872
 5422TIP3   OH216187   1.385   6.341   2.164
 5422TIP3    H116188   1.379   6.419   2.222
 5422TIP3    H216189   1.449   6.373   2.097
 5423TIP3   OH216190   0.907   6.349   1.953
 5423TIP3    H116191   0.902   6.438   1.993
 5423TIP3    H216192   1.003   6.333   1.960
 5424TIP3   OH216193   2.152   6.839   2.853
 5424TIP3    H116194   2.054   6.838   2.860
 5424TIP3    H216195   2.163   6.789   2.771
 5425TIP3   OH216196   1.804   7.033   2.241
 5425TIP3    H116197   1.728   6.973   2.251
 5425TIP3    H216198   1.875   6.985   2.289
 5426TIP3   OH216199   0.496   6.519   1.867
 5426TIP3    H116200   0.469   6.595   1.812
 5426TIP3    H216201   0.498   6.448   1.800
 5427TIP3   OH216202   1.770   7.959   2.180
 5427TIP3    H116203   1.735   8.043   2.145
 5427TIP3    H216204   1.865   7.983   2.184
 5428TIP3   OH216205   0.849   6.257   2.714
 5428TIP3    H116206   0.819   6.221   2.628
 5428TIP3    H216207   0.839   6.179   2.773
 5429TIP3   OH216208   0.625   7.954   3.134
 5429TIP3    H116209   0.695   7.974   3.200
 5429TIP3    H216210   0.603   7.863   3.159
 5430TIP3   OH216211   1.051   7.981   3.208
 5430TIP3    H116212   1.137   7.935   3.208
 5430TIP3    H216213   1.004   7.929   3.139
 5431TIP3   OH216214   1.651   7.893   2.947
 5431TIP3    H116215   1.648   7.820   3.013
 5431TIP3    H216216   1.734   7.938   2.972
 5432TIP3   OH216217   0.691   7.436   3.352
 5432TIP3    H116218   0.701   7.345   3.384
 5432TIP3    H216219   0.598   7.432   3.320
 5433TIP3   OH216220   1.284   7.512   3.141
 5433TIP3    H116221   1.240   7.532   3.056
 5433TIP3    H216222   1.313   7.419   3.129
 5434TIP3   OH216223   1.777   7.525   2.756
 5434TIP3    H116224   1.853   7.565   2.709
 5434TIP3    H216225   1.705   7.583   2.729
 5435TIP3   OH216226   0.805   7.165   3.351
 5435TIP3    H116227   0.876   7.104   3.329
 5435TIP3    H216228   0.831   7.195   3.441
 5436TIP3   OH216229   0.860   6.986   1.788
 5436TIP3    H116230   0.838   6.936   1.869
 5436TIP3    H216231   0.895   6.916   1.730
 5437TIP3   OH216232   1.136   7.049   3.018
 5437TIP3    H116233   1.053   7.101   3.015
 5437TIP3    H216234   1.183   7.082   2.938
 5438TIP3   OH216235   0.972   6.776   1.609
 5438TIP3    H116236   0.979   6.772   1.513
 5438TIP3    H216237   1.067   6.783   1.630
 5439TIP3   OH216238   1.653   7.447   3.146
 5439TIP3    H116239   1.724   7.412   3.090
 5439TIP3    H216240   1.646   7.378   3.215
 5440TIP3   OH216241   1.786   7.104   1.278
 5440TIP3    H116242   1.766   7.056   1.195
 5440TIP3    H216243   1.743   7.190   1.259
 5441TIP3   OH216244   1.255   6.835   3.137
 5441TIP3    H116245   1.255   6.756   3.078
 5441TIP3    H216246   1.211   6.902   3.080
 5442TIP3   OH216247   1.257   6.623   2.947
 5442TIP3    H116248   1.286   6.660   2.861
 5442TIP3    H216249   1.164   6.598   2.928
 5443TIP3   OH216250   1.282   7.158   2.822
 5443TIP3    H116251   1.366   7.164   2.774
 5443TIP3    H216252   1.225   7.220   2.772
 5444TIP3   OH216253   1.863   7.121   3.200
 5444TIP3    H116254   1.906   7.034   3.208
 5444TIP3    H216255   1.933   7.173   3.160
 5445TIP3   OH216256   1.905   7.377   2.942
 5445TIP3    H116257   1.848   7.432   2.881
 5445TIP3    H216258   1.993   7.395   2.902
 5446TIP3   OH216259   1.136   6.938   3.374
 5446TIP3    H116260   1.067   6.870   3.389
 5446TIP3    H216261   1.166   6.914   3.284
 5447TIP3   OH216262   1.389   6.382   3.016
 5447TIP3    H116263   1.338   6.463   2.993
 5447TIP3    H216264   1.321   6.312   3.005
 5448TIP3   OH216265   1.512   6.884   3.230
 5448TIP3    H116266   1.494   6.865   3.324
 5448TIP3    H216267   1.424   6.861   3.193
 5449TIP3   OH216268   1.755   6.844   3.089
 5449TIP3    H116269   1.680   6.837   3.151
 5449TIP3    H216270   1.829   6.809   3.143
 5450TIP3   OH216271   1.983   6.778   3.235
 5450TIP3    H116272   1.997   6.682   3.248
 5450TIP3    H216273   1.980   6.812   3.327
 5451TIP3   OH216274   0.972   6.721   3.427
 5451TIP3    H116275   0.972   6.629   3.393
 5451TIP3    H216276   1.010   6.706   3.516
 5452TIP3   OH216277   1.482   6.393   3.275
 5452TIP3    H116278   1.548   6.321   3.269
 5452TIP3    H216279   1.442   6.388   3.185
 5453TIP3   OH216280   1.551   6.607   3.430
 5453TIP3    H116281   1.531   6.534   3.367
 5453TIP3    H216282   1.472   6.663   3.423
 5454TIP3   OH216283   2.021   8.061   2.176
 5454TIP3    H116284   2.058   8.122   2.240
 5454TIP3    H216285   2.075   8.083   2.097
 5455TIP3   OH216286   2.086   8.073   2.465
 5455TIP3    H116287   2.033   7.995   2.437
 5455TIP3    H216288   2.155   8.028   2.518
 5456TIP3   OH216289   2.096   7.771   3.000
 5456TIP3    H116290   2.031   7.779   3.072
 5456TIP3    H216291   2.144   7.856   3.007
 5457TIP3   OH216292   1.922   7.287   1.622
 5457TIP3    H116293   1.988   7.352   1.589
 5457TIP3    H216294   1.969   7.250   1.700
 5458TIP3   OH216295   2.050   7.156   1.827
 5458TIP3    H116296   1.982   7.115   1.885
 5458TIP3    H216297   2.114   7.192   1.891
 5459TIP3   OH216298   2.106   7.548   2.263
 5459TIP3    H116299   2.156   7.481   2.213
 5459TIP3    H216300   2.111   7.626   2.202
 5460TIP3   OH216301   1.937   7.830   2.441
 5460TIP3    H116302   1.864   7.881   2.483
 5460TIP3    H216303   1.889   7.784   2.369
 5461TIP3   OH216304   1.984   7.065   1.469
 5461TIP3    H116305   1.914   7.068   1.399
 5461TIP3    H216306   1.956   7.141   1.524
 5462TIP3   OH216307   1.859   6.734   1.424
 5462TIP3    H116308   1.807   6.772   1.352
 5462TIP3    H216309   1.837   6.639   1.414
 5463TIP3   OH216310   1.860   7.016   1.971
 5463TIP3    H116311   1.867   6.920   1.962
 5463TIP3    H216312   1.845   7.027   2.068
 5464TIP3   OH216313   0.486   7.093   2.724
 5464TIP3    H116314   0.483   7.057   2.632
 5464TIP3    H216315   0.583   7.092   2.739
 5465TIP3   OH216316   2.151   7.439   2.832
 5465TIP3    H116317   2.221   7.371   2.820
 5465TIP3    H216318   2.173   7.503   2.763
 5466TIP3   OH216319   2.332   7.238   2.838
 5466TIP3    H116320   2.257   7.188   2.878
 5466TIP3    H216321   2.406   7.176   2.856
 5467TIP3   OH216322   1.802   6.467   1.402
 5467TIP3    H116323   1.870   6.436   1.464
 5467TIP3    H216324   1.723   6.414   1.425
 5468TIP3   OH216325   1.860   6.733   1.863
 5468TIP3    H116326   1.900   6.644   1.878
 5468TIP3    H216327   1.917   6.765   1.791
 5469TIP3   OH216328   2.017   6.900   2.362
 5469TIP3    H116329   2.102   6.924   2.319
 5469TIP3    H216330   2.033   6.938   2.450
 5470TIP3   OH216331   2.091   7.049   2.590
 5470TIP3    H116332   2.013   7.083   2.639
 5470TIP3    H216333   2.124   7.130   2.546
 5471TIP3   OH216334   0.705   6.775   3.390
 5471TIP3    H116335   0.803   6.767   3.395
 5471TIP3    H216336   0.679   6.689   3.429
 5472TIP3   OH216337   2.539   6.643   3.146
 5472TIP3    H116338   2.600   6.578   3.106
 5472TIP3    H216339   2.509   6.694   3.067
 5473TIP3   OH216340   1.966   6.482   1.903
 5473TIP3    H116341   2.014   6.465   1.987
 5473TIP3    H216342   1.905   6.406   1.901
 5474TIP3   OH216343   0.667   6.466   2.729
 5474TIP3    H116344   0.728   6.390   2.734
 5474TIP3    H216345   0.730   6.539   2.717
 5475TIP3   OH216346   0.469   6.738   2.796
 5475TIP3    H116347   0.517   6.733   2.710
 5475TIP3    H216348   0.499   6.824   2.829
 5476TIP3   OH216349   2.407   6.776   2.947
 5476TIP3    H116350   2.320   6.818   2.963
 5476TIP3    H216351   2.378   6.700   2.892
 5477TIP3   OH216352   2.043   6.411   1.541
 5477TIP3    H116353   2.082   6.343   1.482
 5477TIP3    H216354   2.109   6.483   1.536
 5478TIP3   OH216355   0.451   6.236   2.318
 5478TIP3    H116356   0.357   6.225   2.342
 5478TIP3    H216357   0.444   6.286   2.234
 5479TIP3   OH216358   1.675   7.925   1.838
 5479TIP3    H116359   1.716   7.883   1.760
 5479TIP3    H216360   1.752   7.973   1.874
 5480TIP3   OH216361   0.675   6.329   3.115
 5480TIP3    H116362   0.621   6.318   3.195
 5480TIP3    H216363   0.607   6.361   3.051
 5481TIP3   OH216364   0.746   7.705   3.204
 5481TIP3    H116365   0.655   7.679   3.183
 5481TIP3    H216366   0.744   7.704   3.301
 5482TIP3   OH216367   0.886   7.788   2.753
 5482TIP3    H116368   0.811   7.795   2.692
 5482TIP3    H216369   0.963   7.807   2.694
 5483TIP3   OH216370   1.372   8.017   2.850
 5483TIP3    H116371   1.375   8.023   2.947
 5483TIP3    H216372   1.466   8.023   2.828
 5484TIP3   OH216373   2.309   6.537   2.833
 5484TIP3    H116374   2.219   6.523   2.799
 5484TIP3    H216375   2.346   6.446   2.824
 5485TIP3   OH216376   1.450   7.993   2.479
 5485TIP3    H116377   1.395   8.024   2.405
 5485TIP3    H216378   1.516   8.064   2.484
 5486TIP3   OH216379   0.440   7.786   2.527
 5486TIP3    H116380   0.496   7.780   2.607
 5486TIP3    H216381   0.508   7.778   2.457
 5487TIP3   OH216382   0.665   7.716   2.369
 5487TIP3    H116383   0.676   7.631   2.417
 5487TIP3    H216384   0.760   7.738   2.354
 5488TIP3   OH216385   0.931   7.775   2.380
 5488TIP3    H116386   0.966   7.684   2.382
 5488TIP3    H216387   0.996   7.819   2.437
 5489TIP3   OH216388   1.512   6.454   2.454
 5489TIP3    H116389   1.471   6.382   2.505
 5489TIP3    H216390   1.587   6.409   2.410
 5490TIP3   OH216391   2.032   6.340   2.357
 5490TIP3    H116392   2.068   6.389   2.280
 5490TIP3    H216393   1.937   6.357   2.349
 5491TIP3   OH216394   2.130   6.434   2.120
 5491TIP3    H116395   2.204   6.382   2.083
 5491TIP3    H216396   2.164   6.525   2.106
 5492TIP3   OH216397   0.760   6.162   2.467
 5492TIP3    H116398   0.667   6.130   2.471
 5492TIP3    H216399   0.808   6.076   2.463
 5493TIP3   OH216400   0.551   6.029   2.120
 5493TIP3    H116401   0.590   6.084   2.049
 5493TIP3    H216402   0.524   6.096   2.185
 5494TIP3   OH216403   1.208   6.197   2.349
 5494TIP3    H116404   1.265   6.243   2.286
 5494TIP3    H216405   1.239   6.233   2.434
 5495TIP3   OH216406   1.748   6.344   2.332
 5495TIP3    H116407   1.752   6.302   2.245
 5495TIP3    H216408   1.739   6.266   2.391
 5496TIP3   OH216409   1.783   6.270   1.896
 5496TIP3    H116410   1.697   6.313   1.914
 5496TIP3    H216411   1.769   6.183   1.940
 5497TIP3   OH216412   0.690   6.175   1.913
 5497TIP3    H116413   0.735   6.118   1.847
 5497TIP3    H216414   0.763   6.236   1.937
 5498TIP3   OH216415   1.182   6.373   1.973
 5498TIP3    H116416   1.238   6.325   2.036
 5498TIP3    H216417   1.202   6.465   2.002
 5499TIP3   OH216418   1.764   7.883   1.573
 5499TIP3    H116419   1.753   7.785   1.565
 5499TIP3    H216420   1.825   7.898   1.499
 5500TIP3   OH216421   0.970   6.449   3.362
 5500TIP3    H116422   0.933   6.377   3.416
 5500TIP3    H216423   1.064   6.445   3.390
 5501TIP3   OH216424   1.222   6.444   3.479
 5501TIP3    H116425   1.305   6.415   3.438
 5501TIP3    H216426   1.208   6.374   3.546
 5502TIP3   OH216427   2.048   6.509   3.265
 5502TIP3    H116428   2.065   6.476   3.356
 5502TIP3    H216429   2.137   6.502   3.224
 5503TIP3   OH216430   1.993   8.055   2.757
 5503TIP3    H116431   1.927   8.009   2.701
 5503TIP3    H216432   1.970   8.146   2.739
 5504TIP3   OH216433   3.251   7.431   1.520
 5504TIP3    H116434   3.219   7.521   1.497
 5504TIP3    H216435   3.176   7.378   1.487
 5505TIP3   OH216436   3.249   7.432   1.911
 5505TIP3    H116437   3.286   7.406   1.998
 5505TIP3    H216438   3.209   7.349   1.882
 5506TIP3   OH216439   2.546   7.322   2.273
 5506TIP3    H116440   2.576   7.252   2.335
 5506TIP3    H216441   2.628   7.372   2.260
 5507TIP3   OH216442   3.496   7.733   1.587
 5507TIP3    H116443   3.479   7.667   1.656
 5507TIP3    H216444   3.526   7.809   1.641
 5508TIP3   OH216445   2.523   7.737   1.997
 5508TIP3    H116446   2.513   7.640   1.997
 5508TIP3    H216447   2.619   7.745   1.980
 5509TIP3   OH216448   2.227   6.935   1.774
 5509TIP3    H116449   2.179   7.017   1.793
 5509TIP3    H216450   2.156   6.884   1.730
 5510TIP3   OH216451   2.283   7.224   1.958
 5510TIP3    H116452   2.334   7.146   1.990
 5510TIP3    H216453   2.343   7.261   1.892
 5511TIP3   OH216454   3.156   8.175   1.649
 5511TIP3    H116455   3.191   8.132   1.569
 5511TIP3    H216456   3.165   8.103   1.713
 5512TIP3   OH216457   3.048   7.657   1.953
 5512TIP3    H116458   3.090   7.579   1.911
 5512TIP3    H216459   3.130   7.705   1.978
 5513TIP3   OH216460   4.064   6.975   1.952
 5513TIP3    H116461   4.094   7.058   1.995
 5513TIP3    H216462   4.086   6.993   1.859
 5514TIP3   OH216463   3.461   7.155   1.982
 5514TIP3    H116464   3.503   7.070   2.003
 5514TIP3    H216465   3.428   7.137   1.892
 5515TIP3   OH216466   2.803   6.816   1.947
 5515TIP3    H116467   2.782   6.888   1.885
 5515TIP3    H216468   2.754   6.742   1.905
 5516TIP3   OH216469   3.496   6.908   1.569
 5516TIP3    H116470   3.568   6.894   1.636
 5516TIP3    H216471   3.549   6.943   1.495
 5517TIP3   OH216472   2.432   7.017   2.058
 5517TIP3    H116473   2.516   6.998   2.105
 5517TIP3    H216474   2.446   6.962   1.977
 5518TIP3   OH216475   2.870   7.215   1.857
 5518TIP3    H116476   2.965   7.191   1.866
 5518TIP3    H216477   2.833   7.131   1.822
 5519TIP3   OH216478   4.137   7.184   2.122
 5519TIP3    H116479   4.052   7.230   2.104
 5519TIP3    H216480   4.159   7.220   2.209
 5520TIP3   OH216481   2.796   6.800   2.385
 5520TIP3    H116482   2.736   6.836   2.316
 5520TIP3    H216483   2.742   6.817   2.465
 5521TIP3   OH216484   3.138   7.647   1.388
 5521TIP3    H116485   3.099   7.635   1.301
 5521TIP3    H216486   3.093   7.729   1.417
 5522TIP3   OH216487   2.903   7.575   2.174
 5522TIP3    H116488   2.844   7.644   2.211
 5522TIP3    H216489   2.946   7.623   2.099
 5523TIP3   OH216490   3.699   6.914   1.751
 5523TIP3    H116491   3.678   6.875   1.836
 5523TIP3    H216492   3.750   6.993   1.777
 5524TIP3   OH216493   2.668   6.914   2.167
 5524TIP3    H116494   2.730   6.986   2.191
 5524TIP3    H216495   2.718   6.874   2.092
 5525TIP3   OH216496   2.733   7.769   2.280
 5525TIP3    H116497   2.707   7.855   2.243
 5525TIP3    H216498   2.653   7.750   2.333
 5526TIP3   OH216499   2.120   7.455   1.517
 5526TIP3    H116500   2.087   7.490   1.432
 5526TIP3    H216501   2.153   7.536   1.560
 5527TIP3   OH216502   3.552   7.957   1.748
 5527TIP3    H116503   3.462   7.957   1.787
 5527TIP3    H216504   3.550   8.044   1.703
 5528TIP3   OH216505   3.857   6.872   2.116
 5528TIP3    H116506   3.770   6.901   2.083
 5528TIP3    H216507   3.918   6.906   2.047
 5529TIP3   OH216508   3.146   6.514   2.101
 5529TIP3    H116509   3.131   6.419   2.120
 5529TIP3    H216510   3.070   6.554   2.148
 5530TIP3   OH216511   3.271   8.008   1.452
 5530TIP3    H116512   3.308   7.920   1.432
 5530TIP3    H216513   3.347   8.062   1.422
 5531TIP3   OH216514   3.410   7.800   1.335
 5531TIP3    H116515   3.374   7.719   1.296
 5531TIP3    H216516   3.450   7.766   1.418
 5532TIP3   OH216517   3.789   7.879   2.100
 5532TIP3    H116518   3.777   7.801   2.042
 5532TIP3    H216519   3.771   7.952   2.036
 5533TIP3   OH216520   3.081   7.281   1.358
 5533TIP3    H116521   3.001   7.334   1.338
 5533TIP3    H216522   3.126   7.280   1.271
 5534TIP3   OH216523   3.039   7.070   1.066
 5534TIP3    H116524   3.105   7.122   1.115
 5534TIP3    H216525   3.097   7.007   1.019
 5535TIP3   OH216526   3.982   7.526   1.944
 5535TIP3    H116527   3.898   7.577   1.946
 5535TIP3    H216528   4.014   7.551   1.854
 5536TIP3   OH216529   3.429   7.365   1.324
 5536TIP3    H116530   3.374   7.389   1.402
 5536TIP3    H216531   3.513   7.341   1.367
 5537TIP3   OH216532   3.662   7.401   2.244
 5537TIP3    H116533   3.659   7.484   2.295
 5537TIP3    H216534   3.576   7.405   2.198
 5538TIP3   OH216535   2.660   7.360   1.745
 5538TIP3    H116536   2.619   7.302   1.676
 5538TIP3    H216537   2.736   7.306   1.775
 5539TIP3   OH216538   2.789   7.765   1.891
 5539TIP3    H116539   2.771   7.736   1.800
 5539TIP3    H216540   2.879   7.728   1.906
 5540TIP3   OH216541   2.792   7.333   2.099
 5540TIP3    H116542   2.826   7.306   2.011
 5540TIP3    H216543   2.838   7.418   2.114
 5541TIP3   OH216544   3.309   7.974   1.871
 5541TIP3    H116545   3.301   8.054   1.925
 5541TIP3    H216546   3.301   7.901   1.936
 5542TIP3   OH216547   2.935   7.889   2.424
 5542TIP3    H116548   2.874   7.951   2.470
 5542TIP3    H216549   2.871   7.836   2.373
 5543TIP3   OH216550   3.265   7.223   1.152
 5543TIP3    H116551   3.325   7.283   1.202
 5543TIP3    H216552   3.292   7.243   1.059
 5544TIP3   OH216553   2.692   7.441   2.530
 5544TIP3    H116554   2.695   7.530   2.570
 5544TIP3    H216555   2.596   7.422   2.539
 5545TIP3   OH216556   3.019   7.891   1.427
 5545TIP3    H116557   3.094   7.950   1.448
 5545TIP3    H216558   2.949   7.950   1.397
 5546TIP3   OH216559   2.731   8.057   2.514
 5546TIP3    H116560   2.692   8.056   2.424
 5546TIP3    H216561   2.658   8.020   2.568
 5547TIP3   OH216562   3.783   6.459   1.203
 5547TIP3    H116563   3.702   6.482   1.252
 5547TIP3    H216564   3.798   6.542   1.152
 5548TIP3   OH216565   2.528   7.205   1.546
 5548TIP3    H116566   2.458   7.249   1.492
 5548TIP3    H216567   2.490   7.117   1.558
 5549TIP3   OH216568   3.578   7.813   0.749
 5549TIP3    H116569   3.580   7.909   0.729
 5549TIP3    H216570   3.672   7.789   0.738
 5550TIP3   OH216571   2.307   7.589   2.456
 5550TIP3    H116572   2.239   7.569   2.388
 5550TIP3    H216573   2.344   7.501   2.476
 5551TIP3   OH216574   2.162   7.772   2.105
 5551TIP3    H116575   2.250   7.782   2.067
 5551TIP3    H216576   2.139   7.863   2.129
 5552TIP3   OH216577   4.046   8.221   2.161
 5552TIP3    H116578   4.040   8.125   2.178
 5552TIP3    H216579   3.966   8.253   2.207
 5553TIP3   OH216580   3.137   7.999   2.274
 5553TIP3    H116581   3.140   8.094   2.298
 5553TIP3    H216582   3.060   7.968   2.327
 5554TIP3   OH216583   2.330   7.970   1.613
 5554TIP3    H116584   2.378   7.972   1.699
 5554TIP3    H216585   2.277   7.889   1.625
 5555TIP3   OH216586   3.281   8.068   0.898
 5555TIP3    H116587   3.259   7.991   0.843
 5555TIP3    H216588   3.230   8.050   0.979
 5556TIP3   OH216589   3.124   8.037   1.134
 5556TIP3    H116590   3.038   8.070   1.161
 5556TIP3    H216591   3.154   7.990   1.214
 5557TIP3   OH216592   3.913   7.361   2.421
 5557TIP3    H116593   3.830   7.370   2.371
 5557TIP3    H216594   3.930   7.265   2.413
 5558TIP3   OH216595   2.509   7.773   2.439
 5558TIP3    H116596   2.558   7.759   2.523
 5558TIP3    H216597   2.438   7.707   2.446
 5559TIP3   OH216598   2.910   6.594   2.231
 5559TIP3    H116599   2.822   6.564   2.201
 5559TIP3    H216600   2.883   6.674   2.280
 5560TIP3   OH216601   3.448   6.708   2.425
 5560TIP3    H116602   3.517   6.680   2.488
 5560TIP3    H216603   3.365   6.689   2.473
 5561TIP3   OH216604   3.680   7.137   2.341
 5561TIP3    H116605   3.630   7.136   2.426
 5561TIP3    H216606   3.658   7.225   2.305
 5562TIP3   OH216607   3.343   7.265   0.899
 5562TIP3    H116608   3.308   7.241   0.811
 5562TIP3    H216609   3.430   7.303   0.874
 5563TIP3   OH216610   3.057   6.640   1.201
 5563TIP3    H116611   3.021   6.637   1.292
 5563TIP3    H216612   3.016   6.559   1.165
 5564TIP3   OH216613   2.844   7.111   2.248
 5564TIP3    H116614   2.793   7.131   2.329
 5564TIP3    H216615   2.827   7.192   2.195
 5565TIP3   OH216616   2.727   6.997   1.761
 5565TIP3    H116617   2.634   6.971   1.780
 5565TIP3    H216618   2.738   6.956   1.672
 5566TIP3   OH216619   3.217   7.081   1.492
 5566TIP3    H116620   3.167   7.153   1.447
 5566TIP3    H216621   3.273   7.047   1.418
 5567TIP3   OH216622   3.392   7.356   2.574
 5567TIP3    H116623   3.370   7.284   2.636
 5567TIP3    H216624   3.486   7.370   2.596
 5568TIP3   OH216625   3.373   7.107   1.726
 5568TIP3    H116626   3.310   7.134   1.657
 5568TIP3    H216627   3.409   7.028   1.681
 5569TIP3   OH216628   2.663   7.137   2.455
 5569TIP3    H116629   2.695   7.200   2.522
 5569TIP3    H216630   2.651   7.056   2.507
 5570TIP3   OH216631   2.714   6.618   1.165
 5570TIP3    H116632   2.703   6.617   1.262
 5570TIP3    H216633   2.636   6.671   1.139
 5571TIP3   OH216634   2.256   6.657   2.039
 5571TIP3    H116635   2.331   6.691   2.092
 5571TIP3    H216636   2.297   6.629   1.956
 5572TIP3   OH216637   2.218   6.639   1.555
 5572TIP3    H116638   2.264   6.676   1.476
 5572TIP3    H216639   2.158   6.713   1.574
 5573TIP3   OH216640   3.383   7.353   2.147
 5573TIP3    H116641   3.417   7.282   2.088
 5573TIP3    H216642   3.353   7.298   2.223
 5574TIP3   OH216643   3.061   6.815   1.821
 5574TIP3    H116644   2.980   6.815   1.875
 5574TIP3    H216645   3.131   6.809   1.888
 5575TIP3   OH216646   2.489   6.876   1.828
 5575TIP3    H116647   2.395   6.883   1.799
 5575TIP3    H216648   2.511   6.784   1.806
 5576TIP3   OH216649   2.752   6.869   1.521
 5576TIP3    H116650   2.846   6.884   1.499
 5576TIP3    H216651   2.705   6.891   1.437
 5577TIP3   OH216652   3.546   6.894   2.024
 5577TIP3    H116653   3.516   6.907   2.117
 5577TIP3    H216654   3.477   6.834   1.991
 5578TIP3   OH216655   2.605   6.904   1.295
 5578TIP3    H116656   2.534   6.859   1.246
 5578TIP3    H216657   2.657   6.943   1.221
 5579TIP3   OH216658   2.676   7.688   2.663
 5579TIP3    H116659   2.755   7.719   2.711
 5579TIP3    H216660   2.610   7.696   2.734
 5580TIP3   OH216661   3.136   7.149   1.920
 5580TIP3    H116662   3.210   7.109   1.872
 5580TIP3    H216663   3.141   7.103   2.006
 5581TIP3   OH216664   2.654   6.633   1.805
 5581TIP3    H116665   2.618   6.556   1.854
 5581TIP3    H216666   2.698   6.589   1.731
 5582TIP3   OH216667   3.113   7.049   2.206
 5582TIP3    H116668   3.023   7.082   2.222
 5582TIP3    H216669   3.169   7.110   2.258
 5583TIP3   OH216670   2.851   7.431   1.304
 5583TIP3    H116671   2.777   7.368   1.291
 5583TIP3    H216672   2.829   7.466   1.394
 5584TIP3   OH216673   3.747   7.668   1.931
 5584TIP3    H116674   3.773   7.720   1.852
 5584TIP3    H216675   3.662   7.627   1.902
 5585TIP3   OH216676   3.307   6.743   1.172
 5585TIP3    H116677   3.211   6.723   1.180
 5585TIP3    H216678   3.314   6.838   1.196
 5586TIP3   OH216679   3.254   7.747   2.302
 5586TIP3    H116680   3.281   7.735   2.393
 5586TIP3    H216681   3.209   7.834   2.303
 5587TIP3   OH216682   3.374   6.995   1.274
 5587TIP3    H116683   3.471   7.001   1.287
 5587TIP3    H216684   3.355   7.075   1.221
 5588TIP3   OH216685   2.544   7.460   1.977
 5588TIP3    H116686   2.581   7.431   1.891
 5588TIP3    H216687   2.590   7.400   2.038
 5589TIP3   OH216688   2.997   7.582   1.129
 5589TIP3    H116689   2.948   7.668   1.133
 5589TIP3    H216690   2.942   7.527   1.189
 5590TIP3   OH216691   2.426   7.376   2.594
 5590TIP3    H116692   2.442   7.360   2.689
 5590TIP3    H216693   2.357   7.310   2.575
 5591TIP3   OH216694   3.153   7.494   2.612
 5591TIP3    H116695   3.091   7.434   2.568
 5591TIP3    H216696   3.239   7.457   2.583
 5592TIP3   OH216697   3.409   8.028   2.191
 5592TIP3    H116698   3.314   8.007   2.199
 5592TIP3    H216699   3.426   8.067   2.280
 5593TIP3   OH216700   3.816   7.089   1.105
 5593TIP3    H116701   3.750   7.046   1.046
 5593TIP3    H216702   3.812   7.179   1.065
 5594TIP3   OH216703   4.038   7.946   2.185
 5594TIP3    H116704   3.941   7.936   2.177
 5594TIP3    H216705   4.065   7.914   2.095
 5595TIP3   OH216706   3.553   7.874   1.025
 5595TIP3    H116707   3.499   7.817   1.082
 5595TIP3    H216708   3.538   7.836   0.936
 5596TIP3   OH216709   3.513   7.533   1.846
 5596TIP3    H116710   3.420   7.508   1.859
 5596TIP3    H216711   3.547   7.453   1.802
 5597TIP3   OH216712   2.648   7.758   1.614
 5597TIP3    H116713   2.642   7.839   1.559
 5597TIP3    H216714   2.554   7.737   1.625
 5598TIP3   OH216715   2.209   7.064   1.310
 5598TIP3    H116716   2.254   7.148   1.331
 5598TIP3    H216717   2.132   7.068   1.371
 5599TIP3   OH216718   2.775   7.522   1.546
 5599TIP3    H116719   2.743   7.612   1.567
 5599TIP3    H216720   2.740   7.472   1.622
 5600TIP3   OH216721   2.900   8.099   2.085
 5600TIP3    H116722   2.914   8.188   2.044
 5600TIP3    H216723   2.991   8.071   2.105
 5601TIP3   OH216724   2.564   7.987   1.468
 5601TIP3    H116725   2.475   7.984   1.509
 5601TIP3    H216726   2.574   8.083   1.455
 5602TIP3   OH216727   3.301   7.741   2.034
 5602TIP3    H116728   3.290   7.733   2.131
 5602TIP3    H216729   3.377   7.683   2.018
 5603TIP3   OH216730   3.279   7.631   0.920
 5603TIP3    H116731   3.333   7.607   0.999
 5603TIP3    H216732   3.190   7.606   0.950
 5604TIP3   OH216733   3.566   8.238   2.090
 5604TIP3    H116734   3.505   8.166   2.116
 5604TIP3    H216735   3.504   8.312   2.075
 5605TIP3   OH216736   3.603   8.086   0.728
 5605TIP3    H116737   3.671   8.156   0.727
 5605TIP3    H216738   3.522   8.137   0.712
 5606TIP3   OH216739   2.632   6.883   2.597
 5606TIP3    H116740   2.535   6.884   2.608
 5606TIP3    H216741   2.659   6.825   2.671
 5607TIP3   OH216742   3.441   7.566   1.133
 5607TIP3    H116743   3.430   7.498   1.203
 5607TIP3    H216744   3.538   7.562   1.119
 5608TIP3   OH216745   2.378   7.980   2.250
 5608TIP3    H116746   2.406   7.889   2.264
 5608TIP3    H216747   2.399   8.018   2.336
 5609TIP3   OH216748   2.634   7.603   0.916
 5609TIP3    H116749   2.648   7.509   0.894
 5609TIP3    H216750   2.617   7.597   1.013
 5610TIP3   OH216751   2.587   7.616   1.187
 5610TIP3    H116752   2.661   7.592   1.244
 5610TIP3    H216753   2.586   7.714   1.195
 5611TIP3   OH216754   2.318   7.307   1.394
 5611TIP3    H116755   2.251   7.351   1.449
 5611TIP3    H216756   2.330   7.375   1.324
 5612TIP3   OH216757   3.475   6.945   2.284
 5612TIP3    H116758   3.556   6.985   2.322
 5612TIP3    H216759   3.463   6.864   2.339
 5613TIP3   OH216760   3.357   6.692   1.454
 5613TIP3    H116761   3.342   6.715   1.360
 5613TIP3    H216762   3.396   6.775   1.489
 5614TIP3   OH216763   2.853   7.813   1.146
 5614TIP3    H116764   2.765   7.833   1.182
 5614TIP3    H216765   2.864   7.889   1.087
 5615TIP3   OH216766   3.037   6.879   1.552
 5615TIP3    H116767   3.101   6.952   1.535
 5615TIP3    H216768   3.044   6.870   1.649
 5616TIP3   OH216769   3.312   7.192   2.356
 5616TIP3    H116770   3.337   7.244   2.435
 5616TIP3    H216771   3.364   7.111   2.366
 5617TIP3   OH216772   3.182   6.597   1.651
 5617TIP3    H116773   3.173   6.675   1.708
 5617TIP3    H216774   3.246   6.630   1.584
 5618TIP3   OH216775   2.598   7.887   1.211
 5618TIP3    H116776   2.556   7.952   1.151
 5618TIP3    H216777   2.584   7.930   1.298
 5619TIP3   OH216778   2.697   6.604   1.442
 5619TIP3    H116779   2.693   6.694   1.480
 5619TIP3    H216780   2.793   6.587   1.449
 5620TIP3   OH216781   3.947   7.095   2.343
 5620TIP3    H116782   3.849   7.093   2.347
 5620TIP3    H216783   3.961   7.052   2.257
 5621TIP3   OH216784   3.600   7.289   1.727
 5621TIP3    H116785   3.524   7.230   1.740
 5621TIP3    H216786   3.671   7.242   1.776
 5622TIP3   OH216787   2.315   7.511   1.200
 5622TIP3    H116788   2.378   7.585   1.203
 5622TIP3    H216789   2.359   7.456   1.131
 5623TIP3   OH216790   2.255   6.793   1.331
 5623TIP3    H116791   2.257   6.891   1.329
 5623TIP3    H216792   2.174   6.774   1.282
 5624TIP3   OH216793   3.567   8.214   1.663
 5624TIP3    H116794   3.532   8.300   1.633
 5624TIP3    H216795   3.662   8.237   1.668
 5625TIP3   OH216796   2.646   6.514   2.200
 5625TIP3    H116797   2.616   6.479   2.114
 5625TIP3    H216798   2.635   6.436   2.259
 5626TIP3   OH216799   2.197   7.709   1.621
 5626TIP3    H116800   2.131   7.749   1.679
 5626TIP3    H216801   2.162   7.736   1.532
 5627TIP3   OH216802   2.420   8.216   2.621
 5627TIP3    H116803   2.490   8.234   2.688
 5627TIP3    H216804   2.403   8.122   2.638
 5628TIP3   OH216805   2.842   8.237   2.693
 5628TIP3    H116806   2.927   8.193   2.703
 5628TIP3    H216807   2.802   8.182   2.622
 5629TIP3   OH216808   2.786   7.808   0.821
 5629TIP3    H116809   2.744   7.728   0.858
 5629TIP3    H216810   2.866   7.771   0.779
 5630TIP3   OH216811   3.451   8.144   2.435
 5630TIP3    H116812   3.446   8.073   2.503
 5630TIP3    H216813   3.532   8.191   2.461
 5631TIP3   OH216814   3.244   7.838   0.735
 5631TIP3    H116815   3.276   7.766   0.793
 5631TIP3    H216816   3.302   7.831   0.657
 5632TIP3   OH216817   2.471   7.682   2.856
 5632TIP3    H116818   2.491   7.586   2.860
 5632TIP3    H216819   2.385   7.681   2.809
 5633TIP3   OH216820   2.453   7.328   1.052
 5633TIP3    H116821   2.510   7.301   1.127
 5633TIP3    H216822   2.520   7.333   0.980
 5634TIP3   OH216823   3.079   7.770   2.630
 5634TIP3    H116824   3.038   7.790   2.544
 5634TIP3    H216825   3.110   7.678   2.618
 5635TIP3   OH216826   2.966   7.526   0.861
 5635TIP3    H116827   2.968   7.538   0.958
 5635TIP3    H216828   2.966   7.428   0.854
 5636TIP3   OH216829   3.572   7.782   2.240
 5636TIP3    H116830   3.649   7.822   2.195
 5636TIP3    H216831   3.502   7.845   2.217
 5637TIP3   OH216832   2.591   7.420   2.841
 5637TIP3    H116833   2.670   7.374   2.808
 5637TIP3    H216834   2.622   7.451   2.929
 5638TIP3   OH216835   2.654   7.238   1.268
 5638TIP3    H116836   2.627   7.198   1.352
 5638TIP3    H216837   2.693   7.162   1.220
 5639TIP3   OH216838   2.927   7.300   2.500
 5639TIP3    H116839   2.849   7.359   2.501
 5639TIP3    H216840   2.978   7.335   2.423
 5640TIP3   OH216841   2.761   7.033   1.110
 5640TIP3    H116842   2.735   7.041   1.016
 5640TIP3    H216843   2.859   7.035   1.103
 5641TIP3   OH216844   3.446   7.702   2.632
 5641TIP3    H116845   3.522   7.668   2.582
 5641TIP3    H216846   3.439   7.637   2.704
 5642TIP3   OH216847   3.576   7.356   0.779
 5642TIP3    H116848   3.560   7.304   0.698
 5642TIP3    H216849   3.538   7.443   0.752
 5643TIP3   OH216850   3.051   7.091   2.624
 5643TIP3    H116851   3.052   7.012   2.565
 5643TIP3    H216852   3.007   7.158   2.567
 5644TIP3   OH216853   3.054   6.878   2.433
 5644TIP3    H116854   3.082   6.918   2.349
 5644TIP3    H216855   2.961   6.854   2.414
 5645TIP3   OH216856   3.076   7.410   2.307
 5645TIP3    H116857   3.163   7.424   2.266
 5645TIP3    H216858   3.020   7.475   2.259
 5646TIP3   OH216859   3.659   7.376   2.683
 5646TIP3    H116860   3.706   7.292   2.694
 5646TIP3    H216861   3.729   7.432   2.646
 5647TIP3   OH216862   3.701   7.631   2.423
 5647TIP3    H116863   3.644   7.687   2.365
 5647TIP3    H216864   3.789   7.652   2.384
 5648TIP3   OH216865   2.930   7.195   2.859
 5648TIP3    H116866   2.862   7.125   2.874
 5648TIP3    H216867   2.962   7.171   2.770
 5649TIP3   OH216868   3.185   6.638   2.503
 5649TIP3    H116869   3.135   6.719   2.480
 5649TIP3    H216870   3.116   6.569   2.492
 5650TIP3   OH216871   3.310   7.139   2.717
 5650TIP3    H116872   3.295   7.124   2.812
 5650TIP3    H216873   3.221   7.117   2.683
 5651TIP3   OH216874   3.549   7.094   2.573
 5651TIP3    H116875   3.475   7.093   2.636
 5651TIP3    H216876   3.624   7.063   2.628
 5652TIP3   OH216877   3.778   7.035   2.722
 5652TIP3    H116878   3.792   6.939   2.736
 5652TIP3    H216879   3.775   7.070   2.813
 5653TIP3   OH216880   2.767   6.976   2.914
 5653TIP3    H116881   2.770   6.884   2.880
 5653TIP3    H216882   2.807   6.963   3.003
 5654TIP3   OH216883   3.277   6.648   2.762
 5654TIP3    H116884   3.344   6.577   2.755
 5654TIP3    H216885   3.238   6.644   2.672
 5655TIP3   OH216886   3.346   6.863   2.918
 5655TIP3    H116887   3.325   6.791   2.855
 5655TIP3    H216888   3.267   6.920   2.911
 5656TIP3   OH216889   2.048   7.470   1.238
 5656TIP3    H116890   2.141   7.497   1.220
 5656TIP3    H216891   2.044   7.386   1.188
 5657TIP3   OH216892   2.091   7.921   1.816
 5657TIP3    H116893   2.070   7.855   1.883
 5657TIP3    H216894   2.141   7.986   1.868
 5658TIP3   OH216895   3.818   8.316   1.662
 5658TIP3    H116896   3.852   8.376   1.729
 5658TIP3    H216897   3.867   8.346   1.584
 5659TIP3   OH216898   3.884   8.327   1.949
 5659TIP3    H116899   3.829   8.250   1.923
 5659TIP3    H216900   3.951   8.283   2.005
 5660TIP3   OH216901   3.892   8.027   2.487
 5660TIP3    H116902   3.825   8.035   2.559
 5660TIP3    H216903   3.939   8.112   2.495
 5661TIP3   OH216904   3.717   7.542   1.108
 5661TIP3    H116905   3.781   7.609   1.078
 5661TIP3    H216906   3.763   7.506   1.187
 5662TIP3   OH216907   3.846   7.411   1.313
 5662TIP3    H116908   3.778   7.372   1.372
 5662TIP3    H216909   3.911   7.448   1.376
 5663TIP3   OH216910   3.902   7.805   1.749
 5663TIP3    H116911   3.953   7.739   1.699
 5663TIP3    H216912   3.906   7.883   1.689
 5664TIP3   OH216913   3.732   8.087   1.928
 5664TIP3    H116914   3.660   8.138   1.971
 5664TIP3    H216915   3.683   8.041   1.856
 5665TIP3   OH216916   3.782   7.321   0.955
 5665TIP3    H116917   3.709   7.322   0.890
 5665TIP3    H216918   3.754   7.397   1.011
 5666TIP3   OH216919   3.646   6.995   0.919
 5666TIP3    H116920   3.651   7.031   0.828
 5666TIP3    H216921   3.621   6.902   0.902
 5667TIP3   OH216922   3.656   7.273   1.458
 5667TIP3    H116923   3.663   7.177   1.450
 5667TIP3    H216924   3.641   7.286   1.555
 5668TIP3   OH216925   2.282   7.341   2.209
 5668TIP3    H116926   2.278   7.308   2.117
 5668TIP3    H216927   2.379   7.343   2.224
 5669TIP3   OH216928   3.948   7.696   2.318
 5669TIP3    H116929   4.018   7.628   2.306
 5669TIP3    H216930   3.971   7.761   2.250
 5670TIP3   OH216931   4.128   7.494   2.323
 5670TIP3    H116932   4.054   7.445   2.365
 5670TIP3    H216933   4.202   7.433   2.341
 5671TIP3   OH216934   3.598   6.725   0.888
 5671TIP3    H116935   3.668   6.697   0.951
 5671TIP3    H216936   3.521   6.671   0.913
 5672TIP3   OH216937   3.655   6.989   1.350
 5672TIP3    H116938   3.696   6.900   1.364
 5672TIP3    H216939   3.711   7.022   1.278
 5673TIP3   OH216940   3.813   7.156   1.848
 5673TIP3    H116941   3.898   7.180   1.806
 5673TIP3    H216942   3.828   7.194   1.937
 5674TIP3   OH216943   3.886   7.305   2.077
 5674TIP3    H116944   3.809   7.339   2.126
 5674TIP3    H216945   3.919   7.386   2.033
 5675TIP3   OH216946   2.501   7.030   2.883
 5675TIP3    H116947   2.599   7.023   2.886
 5675TIP3    H216948   2.478   6.942   2.919
 5676TIP3   OH216949   4.334   6.899   2.633
 5676TIP3    H116950   4.396   6.835   2.593
 5676TIP3    H216951   4.305   6.950   2.555
 5677TIP3   OH216952   3.764   6.738   1.389
 5677TIP3    H116953   3.811   6.722   1.473
 5677TIP3    H216954   3.702   6.663   1.387
 5678TIP3   OH216955   2.463   6.724   2.212
 5678TIP3    H116956   2.523   6.647   2.219
 5678TIP3    H216957   2.526   6.797   2.202
 5679TIP3   OH216958   2.262   6.995   2.281
 5679TIP3    H116959   2.312   6.991   2.198
 5679TIP3    H216960   2.291   7.080   2.317
 5680TIP3   OH216961   4.203   7.032   2.436
 5680TIP3    H116962   4.117   7.075   2.454
 5680TIP3    H216963   4.172   6.958   2.380
 5681TIP3   OH216964   3.839   6.668   1.028
 5681TIP3    H116965   3.879   6.600   0.970
 5681TIP3    H216966   3.905   6.740   1.024
 5682TIP3   OH216967   2.250   6.499   1.784
 5682TIP3    H116968   2.157   6.492   1.813
 5682TIP3    H216969   2.242   6.558   1.706
 5683TIP3   OH216970   3.474   8.177   1.323
 5683TIP3    H116971   3.519   8.131   1.250
 5683TIP3    H216972   3.545   8.233   1.358
 5684TIP3   OH216973   2.470   6.581   2.599
 5684TIP3    H116974   2.417   6.574   2.680
 5684TIP3    H216975   2.404   6.618   2.537
 5685TIP3   OH216976   2.532   7.961   2.688
 5685TIP3    H116977   2.440   7.933   2.674
 5685TIP3    H216978   2.537   7.969   2.784
 5686TIP3   OH216979   2.681   8.041   2.235
 5686TIP3    H116980   2.611   8.062   2.172
 5686TIP3    H216981   2.762   8.060   2.182
 5687TIP3   OH216982   3.167   8.269   2.330
 5687TIP3    H116983   3.156   8.275   2.427
 5687TIP3    H216984   3.254   8.309   2.320
 5688TIP3   OH216985   4.106   6.795   2.319
 5688TIP3    H116986   4.015   6.783   2.285
 5688TIP3    H216987   4.141   6.703   2.311
 5689TIP3   OH216988   3.260   8.246   1.959
 5689TIP3    H116989   3.184   8.290   1.917
 5689TIP3    H216990   3.319   8.322   1.975
 5690TIP3   OH216991   2.246   8.050   2.016
 5690TIP3    H116992   2.296   8.032   2.098
 5690TIP3    H216993   2.316   8.087   1.959
 5691TIP3   OH216994   2.469   7.957   1.843
 5691TIP3    H116995   2.473   7.877   1.900
 5691TIP3    H216996   2.564   7.983   1.845
 5692TIP3   OH216997   2.726   8.034   1.867
 5692TIP3    H116998   2.763   7.944   1.866
 5692TIP3    H216999   2.791   8.081   1.921
 5693TIP3   OH217000   3.310   6.712   1.941
 5693TIP3    H117001   3.268   6.640   1.992
 5693TIP3    H217002   3.384   6.666   1.897
 5694TIP3   OH217003   3.828   6.591   1.840
 5694TIP3    H117004   3.865   6.644   1.766
 5694TIP3    H217005   3.734   6.614   1.837
 5695TIP3   OH217006   3.927   6.690   1.606
 5695TIP3    H117007   4.002   6.639   1.569
 5695TIP3    H217008   3.961   6.782   1.592
 5696TIP3   OH217009   2.558   6.419   1.953
 5696TIP3    H117010   2.465   6.387   1.958
 5696TIP3    H217011   2.605   6.333   1.949
 5697TIP3   OH217012   2.349   6.293   1.606
 5697TIP3    H117013   2.377   6.350   1.532
 5697TIP3    H217014   2.321   6.360   1.672
 5698TIP3   OH217015   3.006   6.451   1.837
 5698TIP3    H117016   3.061   6.500   1.773
 5698TIP3    H217017   3.034   6.491   1.921
 5699TIP3   OH217018   3.544   6.601   1.819
 5699TIP3    H117019   3.547   6.560   1.732
 5699TIP3    H217020   3.534   6.522   1.878
 5700TIP3   OH217021   3.579   6.527   1.383
 5700TIP3    H117022   3.495   6.571   1.402
 5700TIP3    H217023   3.565   6.440   1.427
 5701TIP3   OH217024   2.068   7.788   1.404
 5701TIP3    H117025   1.987   7.754   1.364
 5701TIP3    H217026   2.069   7.878   1.366
 5702TIP3   OH217027   2.466   6.449   1.365
 5702TIP3    H117028   2.513   6.386   1.307
 5702TIP3    H217029   2.540   6.503   1.400
 5703TIP3   OH217030   2.973   6.629   1.464
 5703TIP3    H117031   3.033   6.582   1.525
 5703TIP3    H217032   2.994   6.722   1.489
 5704TIP3   OH217033   2.780   8.037   0.972
 5704TIP3    H117034   2.693   8.082   0.968
 5704TIP3    H217035   2.765   7.961   0.912
 5705TIP3   OH217036   3.567   8.141   1.055
 5705TIP3    H117037   3.565   8.042   1.055
 5705TIP3    H217038   3.575   8.156   0.960
 5706TIP3   OH217039   2.765   6.702   2.848
 5706TIP3    H117040   2.730   6.630   2.903
 5706TIP3    H217041   2.859   6.701   2.875
 5707TIP3   OH217042   3.016   6.700   2.965
 5707TIP3    H117043   3.101   6.673   2.925
 5707TIP3    H217044   3.004   6.629   3.032
 5708TIP3   OH217045   2.156   7.840   1.046
 5708TIP3    H117046   2.156   7.934   1.064
 5708TIP3    H217047   2.245   7.826   1.007
 5709TIP3   OH217048   3.843   6.765   2.751
 5709TIP3    H117049   3.861   6.733   2.842
 5709TIP3    H217050   3.933   6.759   2.711
 5710TIP3   OH217051   3.791   8.316   2.242
 5710TIP3    H117052   3.725   8.268   2.186
 5710TIP3    H217053   3.760   8.406   2.231
 5711TIP3   OH217054   5.046   7.690   1.010
 5711TIP3    H117055   5.015   7.780   0.988
 5711TIP3    H217056   4.972   7.638   0.975
 5712TIP3   OH217057   5.046   7.687   1.399
 5712TIP3    H117058   5.083   7.666   1.487
 5712TIP3    H217059   5.004   7.603   1.375
 5713TIP3   OH217060   4.342   7.578   1.759
 5713TIP3    H117061   4.372   7.508   1.821
 5713TIP3    H217062   4.422   7.633   1.755
 5714TIP3   OH217063   5.300   7.988   1.088
 5714TIP3    H117064   5.284   7.923   1.159
 5714TIP3    H217065   5.327   8.066   1.140
 5715TIP3   OH217066   4.318   7.993   1.483
 5715TIP3    H117067   4.308   7.895   1.483
 5715TIP3    H217068   4.415   8.000   1.469
 5716TIP3   OH217069   4.024   7.190   1.259
 5716TIP3    H117070   3.977   7.273   1.281
 5716TIP3    H217071   3.951   7.141   1.215
 5717TIP3   OH217072   4.079   7.480   1.444
 5717TIP3    H117073   4.131   7.403   1.477
 5717TIP3    H217074   4.142   7.522   1.384
 5718TIP3   OH217075   4.947   8.433   1.133
 5718TIP3    H117076   4.993   8.381   1.065
 5718TIP3    H217077   4.947   8.368   1.205
 5719TIP3   OH217078   4.845   7.913   1.439
 5719TIP3    H117079   4.887   7.836   1.399
 5719TIP3    H217080   4.926   7.962   1.465
 5720TIP3   OH217081   5.861   7.232   1.439
 5720TIP3    H117082   5.889   7.316   1.481
 5720TIP3    H217083   5.883   7.249   1.346
 5721TIP3   OH217084   5.257   7.412   1.469
 5721TIP3    H117085   5.299   7.327   1.492
 5721TIP3    H217086   5.224   7.393   1.379
 5722TIP3   OH217087   4.599   7.072   1.434
 5722TIP3    H117088   4.578   7.145   1.373
 5722TIP3    H217089   4.549   7.000   1.392
 5723TIP3   OH217090   5.290   7.161   1.060
 5723TIP3    H117091   5.360   7.148   1.127
 5723TIP3    H217092   5.343   7.196   0.986
 5724TIP3   OH217093   4.228   7.274   1.544
 5724TIP3    H117094   4.311   7.256   1.593
 5724TIP3    H217095   4.243   7.219   1.464
 5725TIP3   OH217096   4.668   7.472   1.340
 5725TIP3    H117097   4.762   7.448   1.352
 5725TIP3    H217098   4.630   7.387   1.307
 5726TIP3   OH217099   5.932   7.443   1.608
 5726TIP3    H117100   5.847   7.487   1.590
 5726TIP3    H217101   5.949   7.474   1.698
 5727TIP3   OH217102   4.591   7.056   1.871
 5727TIP3    H117103   4.532   7.094   1.804
 5727TIP3    H217104   4.539   7.073   1.952
 5728TIP3   OH217105   4.941   7.907   0.871
 5728TIP3    H117106   4.881   7.888   0.796
 5728TIP3    H217107   4.897   7.988   0.906
 5729TIP3   OH217108   4.698   7.832   1.661
 5729TIP3    H117109   4.639   7.901   1.699
 5729TIP3    H217110   4.741   7.881   1.587
 5730TIP3   OH217111   5.494   7.170   1.239
 5730TIP3    H117112   5.467   7.138   1.327
 5730TIP3    H217113   5.547   7.249   1.263
 5731TIP3   OH217114   4.464   7.171   1.654
 5731TIP3    H117115   4.524   7.244   1.679
 5731TIP3    H217116   4.515   7.131   1.579
 5732TIP3   OH217117   4.528   8.025   1.766
 5732TIP3    H117118   4.503   8.113   1.732
 5732TIP3    H217119   4.448   8.006   1.820
 5733TIP3   OH217120   3.916   7.712   1.001
 5733TIP3    H117121   3.876   7.753   0.923
 5733TIP3    H217122   3.949   7.791   1.050
 5734TIP3   OH217123   5.349   8.216   1.237
 5734TIP3    H117124   5.258   8.217   1.274
 5734TIP3    H217125   5.349   8.303   1.190
 5735TIP3   OH217126   5.654   7.127   1.602
 5735TIP3    H117127   5.568   7.159   1.573
 5735TIP3    H217128   5.714   7.162   1.533
 5736TIP3   OH217129   4.942   6.771   1.587
 5736TIP3    H117130   4.927   6.677   1.608
 5736TIP3    H217131   4.866   6.812   1.635
 5737TIP3   OH217132   5.058   8.260   0.951
 5737TIP3    H117133   5.119   8.189   0.924
 5737TIP3    H217134   5.060   8.320   0.874
 5738TIP3   OH217135   5.196   8.038   0.839
 5738TIP3    H117136   5.136   7.962   0.851
 5738TIP3    H217137   5.253   8.026   0.919
 5739TIP3   OH217138   5.586   8.137   1.586
 5739TIP3    H117139   5.573   8.057   1.530
 5739TIP3    H217140   5.568   8.209   1.522
 5740TIP3   OH217141   4.874   7.541   0.849
 5740TIP3    H117142   4.791   7.590   0.834
 5740TIP3    H217143   4.909   7.534   0.759
 5741TIP3   OH217144   4.829   7.314   0.594
 5741TIP3    H117145   4.910   7.366   0.605
 5741TIP3    H217146   4.855   7.243   0.534
 5742TIP3   OH217147   5.780   7.785   1.432
 5742TIP3    H117148   5.695   7.834   1.436
 5742TIP3    H217149   5.809   7.809   1.341
 5743TIP3   OH217150   5.222   7.593   0.825
 5743TIP3    H117151   5.170   7.634   0.898
 5743TIP3    H217152   5.311   7.591   0.864
 5744TIP3   OH217153   5.457   7.657   1.731
 5744TIP3    H117154   5.457   7.737   1.788
 5744TIP3    H217155   5.371   7.667   1.686
 5745TIP3   OH217156   4.455   7.614   1.232
 5745TIP3    H117157   4.418   7.556   1.162
 5745TIP3    H217158   4.533   7.562   1.263
 5746TIP3   OH217159   4.588   8.022   1.379
 5746TIP3    H117160   4.570   7.992   1.288
 5746TIP3    H217161   4.678   7.986   1.394
 5747TIP3   OH217162   4.589   7.590   1.583
 5747TIP3    H117163   4.625   7.565   1.496
 5747TIP3    H217164   4.635   7.675   1.602
 5748TIP3   OH217165   5.107   8.229   1.358
 5748TIP3    H117166   5.098   8.310   1.411
 5748TIP3    H217167   5.097   8.157   1.424
 5749TIP3   OH217168   4.730   8.149   1.907
 5749TIP3    H117169   4.671   8.209   1.956
 5749TIP3    H217170   4.665   8.094   1.859
 5750TIP3   OH217171   5.063   7.491   0.633
 5750TIP3    H117172   5.122   7.540   0.696
 5750TIP3    H217173   5.036   7.561   0.572
 5751TIP3   OH217174   4.487   7.698   2.014
 5751TIP3    H117175   4.493   7.787   2.055
 5751TIP3    H217176   4.392   7.679   2.027
 5752TIP3   OH217177   4.810   8.141   0.927
 5752TIP3    H117178   4.883   8.200   0.955
 5752TIP3    H217179   4.759   8.196   0.867
 5753TIP3   OH217180   4.526   8.315   2.001
 5753TIP3    H117181   4.488   8.312   1.911
 5753TIP3    H217182   4.454   8.276   2.056
 5754TIP3   OH217183   5.575   6.723   0.697
 5754TIP3    H117184   5.493   6.751   0.742
 5754TIP3    H217185   5.571   6.770   0.612
 5755TIP3   OH217186   4.327   7.459   1.025
 5755TIP3    H117187   4.255   7.505   0.977
 5755TIP3    H217188   4.285   7.377   1.050
 5756TIP3   OH217189   4.103   7.846   1.943
 5756TIP3    H117190   4.035   7.826   1.875
 5756TIP3    H217191   4.140   7.758   1.963
 5757TIP3   OH217192   3.956   8.030   1.592
 5757TIP3    H117193   4.045   8.043   1.555
 5757TIP3    H217194   3.931   8.120   1.617
 5758TIP3   OH217195   5.841   8.479   1.647
 5758TIP3    H117196   5.835   8.383   1.665
 5758TIP3    H217197   5.761   8.511   1.693
 5759TIP3   OH217198   4.931   8.258   1.757
 5759TIP3    H117199   4.936   8.352   1.785
 5759TIP3    H217200   4.856   8.225   1.811
 5760TIP3   OH217201   4.125   8.227   1.100
 5760TIP3    H117202   4.174   8.229   1.185
 5760TIP3    H217203   4.068   8.150   1.116
 5761TIP3   OH217204   5.719   7.620   1.903
 5761TIP3    H117205   5.625   7.631   1.881
 5761TIP3    H217206   5.728   7.522   1.898
 5762TIP3   OH217207   4.306   8.030   1.927
 5762TIP3    H117208   4.355   8.015   2.010
 5762TIP3    H217209   4.234   7.963   1.934
 5763TIP3   OH217210   4.707   6.851   1.718
 5763TIP3    H117211   4.618   6.821   1.689
 5763TIP3    H217212   4.681   6.931   1.767
 5764TIP3   OH217213   5.244   6.961   1.911
 5764TIP3    H117214   5.313   6.938   1.976
 5764TIP3    H217215   5.161   6.946   1.961
 5765TIP3   OH217216   5.479   7.398   1.830
 5765TIP3    H117217   5.429   7.393   1.914
 5765TIP3    H217218   5.456   7.487   1.796
 5766TIP3   OH217219   4.837   6.910   0.686
 5766TIP3    H117220   4.811   6.896   0.779
 5766TIP3    H217221   4.814   6.823   0.648
 5767TIP3   OH217222   4.639   7.368   1.733
 5767TIP3    H117223   4.591   7.389   1.815
 5767TIP3    H217224   4.623   7.450   1.680
 5768TIP3   OH217225   4.523   7.253   1.248
 5768TIP3    H117226   4.430   7.227   1.268
 5768TIP3    H217227   4.533   7.211   1.159
 5769TIP3   OH217228   5.011   7.337   0.979
 5769TIP3    H117229   4.962   7.411   0.937
 5769TIP3    H217230   5.067   7.306   0.906
 5770TIP3   OH217231   5.188   7.619   2.067
 5770TIP3    H117232   5.168   7.546   2.130
 5770TIP3    H217233   5.284   7.630   2.084
 5771TIP3   OH217234   5.169   7.363   1.214
 5771TIP3    H117235   5.105   7.392   1.145
 5771TIP3    H217236   5.203   7.283   1.168
 5772TIP3   OH217237   4.458   7.394   1.942
 5772TIP3    H117238   4.495   7.457   2.006
 5772TIP3    H217239   4.448   7.314   1.996
 5773TIP3   OH217240   4.484   6.849   0.665
 5773TIP3    H117241   4.484   6.854   0.763
 5773TIP3    H217242   4.410   6.909   0.644
 5774TIP3   OH217243   4.053   6.913   1.524
 5774TIP3    H117244   4.125   6.948   1.580
 5774TIP3    H217245   4.098   6.888   1.443
 5775TIP3   OH217246   4.013   6.897   1.040
 5775TIP3    H117247   4.059   6.935   0.962
 5775TIP3    H217248   3.952   6.971   1.061
 5776TIP3   OH217249   5.176   7.610   1.633
 5776TIP3    H117250   5.212   7.538   1.576
 5776TIP3    H217251   5.149   7.557   1.711
 5777TIP3   OH217252   4.855   7.069   1.307
 5777TIP3    H117253   4.775   7.072   1.362
 5777TIP3    H217254   4.926   7.067   1.374
 5778TIP3   OH217255   4.285   7.133   1.314
 5778TIP3    H117256   4.190   7.141   1.286
 5778TIP3    H217257   4.307   7.041   1.293
 5779TIP3   OH217258   4.549   7.124   1.008
 5779TIP3    H117259   4.644   7.141   0.989
 5779TIP3    H217260   4.504   7.148   0.924
 5780TIP3   OH217261   5.344   7.150   1.505
 5780TIP3    H117262   5.320   7.163   1.600
 5780TIP3    H217263   5.271   7.092   1.477
 5781TIP3   OH217264   4.404   7.163   0.781
 5781TIP3    H117265   4.329   7.119   0.737
 5781TIP3    H217266   4.451   7.201   0.705
 5782TIP3   OH217267   4.474   7.945   2.150
 5782TIP3    H117268   4.555   7.972   2.198
 5782TIP3    H217269   4.408   7.952   2.222
 5783TIP3   OH217270   4.931   7.404   1.407
 5783TIP3    H117271   5.008   7.367   1.362
 5783TIP3    H217272   4.936   7.363   1.495
 5784TIP3   OH217273   4.449   6.890   1.291
 5784TIP3    H117274   4.413   6.814   1.341
 5784TIP3    H217275   4.494   6.845   1.218
 5785TIP3   OH217276   4.910   7.308   1.695
 5785TIP3    H117277   4.820   7.343   1.710
 5785TIP3    H217278   4.967   7.369   1.746
 5786TIP3   OH217279   4.634   7.678   0.800
 5786TIP3    H117280   4.559   7.616   0.789
 5786TIP3    H217281   4.616   7.714   0.890
 5787TIP3   OH217282   5.543   7.923   1.419
 5787TIP3    H117283   5.569   7.976   1.340
 5787TIP3    H217284   5.458   7.884   1.389
 5788TIP3   OH217285   5.096   7.003   0.671
 5788TIP3    H117286   4.999   6.991   0.675
 5788TIP3    H217287   5.108   7.098   0.691
 5789TIP3   OH217288   5.052   8.004   1.789
 5789TIP3    H117289   5.077   7.984   1.880
 5789TIP3    H217290   5.006   8.089   1.796
 5790TIP3   OH217291   5.170   7.257   0.760
 5790TIP3    H117292   5.265   7.262   0.784
 5790TIP3    H217293   5.156   7.342   0.714
 5791TIP3   OH217294   4.339   7.714   1.465
 5791TIP3    H117295   4.378   7.685   1.379
 5791TIP3    H217296   4.387   7.658   1.528
 5792TIP3   OH217297   4.775   7.853   0.647
 5792TIP3    H117298   4.720   7.934   0.640
 5792TIP3    H217299   4.714   7.790   0.690
 5793TIP3   OH217300   4.222   7.634   2.081
 5793TIP3    H117301   4.241   7.619   2.176
 5793TIP3    H217302   4.154   7.567   2.065
 5794TIP3   OH217303   4.948   7.767   2.075
 5794TIP3    H117304   4.893   7.692   2.049
 5794TIP3    H217305   5.037   7.726   2.075
 5795TIP3   OH217306   5.204   8.286   1.677
 5795TIP3    H117307   5.109   8.264   1.686
 5795TIP3    H217308   5.221   8.324   1.766
 5796TIP3   OH217309   5.835   8.203   1.672
 5796TIP3    H117310   5.737   8.194   1.665
 5796TIP3    H217311   5.861   8.172   1.582
 5797TIP3   OH217312   5.308   7.793   1.328
 5797TIP3    H117313   5.215   7.767   1.345
 5797TIP3    H217314   5.342   7.711   1.287
 5798TIP3   OH217315   4.442   8.011   1.099
 5798TIP3    H117316   4.437   8.094   1.047
 5798TIP3    H217317   4.348   7.996   1.119
 5799TIP3   OH217318   4.007   7.320   0.796
 5799TIP3    H117319   4.049   7.405   0.819
 5799TIP3    H217320   3.927   7.323   0.854
 5800TIP3   OH217321   4.572   7.778   1.040
 5800TIP3    H117322   4.538   7.869   1.057
 5800TIP3    H217323   4.536   7.730   1.117
 5801TIP3   OH217324   4.696   8.355   1.571
 5801TIP3    H117325   4.710   8.444   1.532
 5801TIP3    H217326   4.786   8.327   1.595
 5802TIP3   OH217327   4.361   8.239   0.960
 5802TIP3    H117328   4.271   8.242   1.000
 5802TIP3    H217329   4.377   8.334   0.944
 5803TIP3   OH217330   5.096   7.997   1.522
 5803TIP3    H117331   5.084   7.991   1.619
 5803TIP3    H217332   5.175   7.942   1.510
 5804TIP3   OH217333   5.363   8.494   1.577
 5804TIP3    H117334   5.302   8.422   1.605
 5804TIP3    H217335   5.300   8.568   1.563
 5805TIP3   OH217336   4.430   7.138   2.085
 5805TIP3    H117337   4.333   7.139   2.097
 5805TIP3    H217338   4.458   7.083   2.160
 5806TIP3   OH217339   4.176   8.237   1.735
 5806TIP3    H117340   4.205   8.146   1.754
 5806TIP3    H217341   4.190   8.278   1.821
 5807TIP3   OH217342   4.365   7.876   0.691
 5807TIP3    H117343   4.450   7.850   0.727
 5807TIP3    H217344   4.372   7.974   0.693
 5808TIP3   OH217345   4.114   7.564   0.881
 5808TIP3    H117346   4.046   7.607   0.937
 5808TIP3    H217347   4.126   7.635   0.814
 5809TIP3   OH217348   5.280   7.194   1.765
 5809TIP3    H117349   5.348   7.242   1.815
 5809TIP3    H217350   5.262   7.117   1.823
 5810TIP3   OH217351   5.151   6.946   0.943
 5810TIP3    H117352   5.136   6.969   0.849
 5810TIP3    H217353   5.190   7.029   0.978
 5811TIP3   OH217354   4.646   8.095   0.647
 5811TIP3    H117355   4.561   8.124   0.686
 5811TIP3    H217356   4.675   8.175   0.602
 5812TIP3   OH217357   4.831   7.135   1.039
 5812TIP3    H117358   4.895   7.208   1.022
 5812TIP3    H217359   4.839   7.124   1.136
 5813TIP3   OH217360   5.112   7.454   1.848
 5813TIP3    H117361   5.132   7.511   1.926
 5813TIP3    H217362   5.163   7.374   1.869
 5814TIP3   OH217363   4.978   6.852   1.139
 5814TIP3    H117364   4.971   6.929   1.199
 5814TIP3    H217365   5.041   6.886   1.072
 5815TIP3   OH217366   4.382   8.148   0.703
 5815TIP3    H117367   4.360   8.228   0.652
 5815TIP3    H217368   4.368   8.181   0.795
 5816TIP3   OH217369   4.494   6.859   0.938
 5816TIP3    H117370   4.490   6.950   0.974
 5816TIP3    H217371   4.591   6.844   0.944
 5817TIP3   OH217372   5.744   7.348   1.828
 5817TIP3    H117373   5.646   7.350   1.837
 5817TIP3    H217374   5.752   7.307   1.741
 5818TIP3   OH217375   5.396   7.547   1.215
 5818TIP3    H117376   5.319   7.489   1.229
 5818TIP3    H217377   5.467   7.500   1.264
 5819TIP3   OH217378   4.114   7.765   0.687
 5819TIP3    H117379   4.191   7.824   0.705
 5819TIP3    H217380   4.154   7.712   0.615
 5820TIP3   OH217381   4.053   7.051   0.814
 5820TIP3    H117382   4.056   7.148   0.817
 5820TIP3    H217383   3.969   7.036   0.769
 5821TIP3   OH217384   5.378   8.472   1.150
 5821TIP3    H117385   5.344   8.558   1.122
 5821TIP3    H217386   5.474   8.489   1.145
 5822TIP3   OH217387   4.443   6.770   1.687
 5822TIP3    H117388   4.412   6.735   1.601
 5822TIP3    H217389   4.432   6.693   1.745
 5823TIP3   OH217390   3.985   7.961   1.106
 5823TIP3    H117391   3.930   8.010   1.170
 5823TIP3    H217392   3.952   7.994   1.020
 5824TIP3   OH217393   4.217   8.468   2.100
 5824TIP3    H117394   4.287   8.486   2.166
 5824TIP3    H217395   4.197   8.375   2.119
 5825TIP3   OH217396   4.629   8.493   2.184
 5825TIP3    H117397   4.717   8.455   2.200
 5825TIP3    H217398   4.598   8.437   2.110
 5826TIP3   OH217399   5.248   8.400   1.920
 5826TIP3    H117400   5.242   8.329   1.989
 5826TIP3    H217401   5.329   8.448   1.948
 5827TIP3   OH217402   4.268   7.939   2.342
 5827TIP3    H117403   4.288   7.844   2.349
 5827TIP3    H217404   4.181   7.938   2.296
 5828TIP3   OH217405   4.274   7.587   0.546
 5828TIP3    H117406   4.322   7.557   0.627
 5828TIP3    H217407   4.347   7.625   0.496
 5829TIP3   OH217408   4.874   8.032   2.117
 5829TIP3    H117409   4.833   8.049   2.030
 5829TIP3    H217410   4.906   7.939   2.107
 5830TIP3   OH217411   5.366   8.037   1.722
 5830TIP3    H117412   5.443   8.080   1.679
 5830TIP3    H217413   5.296   8.102   1.704
 5831TIP3   OH217414   4.389   7.674   2.326
 5831TIP3    H117415   4.470   7.632   2.294
 5831TIP3    H217416   4.417   7.706   2.414
 5832TIP3   OH217417   4.437   7.490   0.746
 5832TIP3    H117418   4.414   7.452   0.833
 5832TIP3    H217419   4.478   7.414   0.700
 5833TIP3   OH217420   4.720   7.551   1.982
 5833TIP3    H117421   4.646   7.616   1.986
 5833TIP3    H217422   4.773   7.586   1.906
 5834TIP3   OH217423   4.558   7.278   0.590
 5834TIP3    H117424   4.574   7.201   0.532
 5834TIP3    H217425   4.651   7.309   0.601
 5835TIP3   OH217426   5.243   7.962   2.112
 5835TIP3    H117427   5.326   7.925   2.080
 5835TIP3    H217428   5.221   7.903   2.186
 5836TIP3   OH217429   4.845   7.347   2.112
 5836TIP3    H117430   4.848   7.268   2.053
 5836TIP3    H217431   4.802   7.414   2.055
 5837TIP3   OH217432   4.851   7.133   1.919
 5837TIP3    H117433   4.878   7.176   1.835
 5837TIP3    H217434   4.757   7.111   1.900
 5838TIP3   OH217435   4.868   7.655   1.783
 5838TIP3    H117436   4.958   7.680   1.756
 5838TIP3    H217437   4.814   7.726   1.742
 5839TIP3   OH217438   5.457   7.626   2.138
 5839TIP3    H117439   5.499   7.559   2.194
 5839TIP3    H217440   5.512   7.703   2.154
 5840TIP3   OH217441   5.500   7.884   1.899
 5840TIP3    H117442   5.440   7.940   1.845
 5840TIP3    H217443   5.587   7.909   1.861
 5841TIP3   OH217444   4.722   7.452   2.344
 5841TIP3    H117445   4.656   7.382   2.360
 5841TIP3    H217446   4.757   7.425   2.256
 5842TIP3   OH217447   4.980   6.893   1.989
 5842TIP3    H117448   4.931   6.975   1.966
 5842TIP3    H217449   4.910   6.825   1.979
 5843TIP3   OH217450   5.111   7.394   2.202
 5843TIP3    H117451   5.105   7.383   2.299
 5843TIP3    H217452   5.019   7.371   2.176
 5844TIP3   OH217453   5.340   7.333   2.052
 5844TIP3    H117454   5.268   7.345   2.117
 5844TIP3    H217455   5.417   7.315   2.110
 5845TIP3   OH217456   5.582   7.291   2.203
 5845TIP3    H117457   5.590   7.196   2.224
 5845TIP3    H217458   5.570   7.332   2.291
 5846TIP3   OH217459   4.562   7.231   2.401
 5846TIP3    H117460   4.568   7.139   2.369
 5846TIP3    H217461   4.602   7.221   2.490
 5847TIP3   OH217462   5.073   6.904   2.247
 5847TIP3    H117463   5.139   6.833   2.241
 5847TIP3    H217464   5.034   6.899   2.158
 5848TIP3   OH217465   5.138   7.117   2.407
 5848TIP3    H117466   5.117   7.046   2.342
 5848TIP3    H217467   5.060   7.176   2.400
 5849TIP3   OH217468   3.840   7.733   0.715
 5849TIP3    H117469   3.936   7.752   0.706
 5849TIP3    H217470   3.836   7.639   0.686
 5850TIP3   OH217471   3.897   8.169   1.300
 5850TIP3    H117472   3.862   8.114   1.371
 5850TIP3    H217473   3.943   8.238   1.351
 5851TIP3   OH217474   5.636   8.566   1.129
 5851TIP3    H117475   5.664   8.613   1.210
 5851TIP3    H217476   5.649   8.635   1.062
 5852TIP3   OH217477   5.683   8.579   1.426
 5852TIP3    H117478   5.626   8.501   1.410
 5852TIP3    H217479   5.745   8.541   1.491
 5853TIP3   OH217480   5.689   8.282   1.975
 5853TIP3    H117481   5.621   8.290   2.045
 5853TIP3    H217482   5.735   8.368   1.982
 5854TIP3   OH217483   5.646   7.667   0.798
 5854TIP3    H117484   5.570   7.635   0.851
 5854TIP3    H217485   5.700   7.713   0.864
 5855TIP3   OH217486   5.698   8.059   1.238
 5855TIP3    H117487   5.749   7.995   1.185
 5855TIP3    H217488   5.706   8.140   1.183
 5856TIP3   OH217489   5.527   8.344   1.415
 5856TIP3    H117490   5.455   8.394   1.458
 5856TIP3    H217491   5.479   8.299   1.343
 5857TIP3   OH217492   5.462   7.530   0.951
 5857TIP3    H117493   5.454   7.433   0.949
 5857TIP3    H217494   5.443   7.549   1.046
 5858TIP3   OH217495   4.078   7.598   1.695
 5858TIP3    H117496   4.075   7.565   1.603
 5858TIP3    H217497   4.176   7.600   1.710
 5859TIP3   OH217498   5.748   7.954   1.803
 5859TIP3    H117499   5.817   7.886   1.790
 5859TIP3    H217500   5.772   8.021   1.737
 5860TIP3   OH217501   5.930   7.753   1.803
 5860TIP3    H117502   5.854   7.706   1.844
 5860TIP3    H217503   6.002   7.690   1.824
 5861TIP3   OH217504   5.445   7.242   0.844
 5861TIP3    H117505   5.483   7.151   0.856
 5861TIP3    H217506   5.515   7.282   0.792
 5862TIP3   OH217507   5.608   7.412   1.334
 5862TIP3    H117508   5.694   7.436   1.293
 5862TIP3    H217509   5.622   7.451   1.423
 5863TIP3   OH217510   5.680   7.560   1.562
 5863TIP3    H117511   5.607   7.593   1.617
 5863TIP3    H217512   5.713   7.643   1.521
 5864TIP3   OH217513   4.296   7.284   2.364
 5864TIP3    H117514   4.394   7.280   2.371
 5864TIP3    H217515   4.273   7.197   2.404
 5865TIP3   OH217516   6.135   7.158   2.121
 5865TIP3    H117517   6.194   7.093   2.078
 5865TIP3    H217518   6.101   7.208   2.043
 5866TIP3   OH217519   5.551   6.994   0.878
 5866TIP3    H117520   5.605   6.979   0.959
 5866TIP3    H217521   5.493   6.915   0.880
 5867TIP3   OH217522   4.259   6.980   1.697
 5867TIP3    H117523   4.320   6.905   1.705
 5867TIP3    H217524   4.321   7.054   1.688
 5868TIP3   OH217525   4.058   7.251   1.768
 5868TIP3    H117526   4.108   7.250   1.685
 5868TIP3    H217527   4.085   7.335   1.807
 5869TIP3   OH217528   6.000   7.290   1.925
 5869TIP3    H117529   5.916   7.334   1.950
 5869TIP3    H217530   5.964   7.219   1.868
 5870TIP3   OH217531   4.045   6.751   1.266
 5870TIP3    H117532   3.954   6.748   1.299
 5870TIP3    H217533   4.038   6.813   1.191
 5871TIP3   OH217534   4.265   6.834   2.084
 5871TIP3    H117535   4.214   6.830   2.166
 5871TIP3    H217536   4.199   6.873   2.023
 5872TIP3   OH217537   4.329   8.218   2.177
 5872TIP3    H117538   4.237   8.188   2.161
 5872TIP3    H217539   4.333   8.215   2.274
 5873TIP3   OH217540   4.478   8.297   1.723
 5873TIP3    H117541   4.407   8.319   1.661
 5873TIP3    H217542   4.558   8.315   1.669
 5874TIP3   OH217543   4.965   8.527   1.818
 5874TIP3    H117544   4.954   8.529   1.916
 5874TIP3    H217545   5.052   8.567   1.811
 5875TIP3   OH217546   5.902   7.052   1.806
 5875TIP3    H117547   5.811   7.044   1.771
 5875TIP3    H217548   5.935   6.960   1.797
 5876TIP3   OH217549   5.058   8.506   1.437
 5876TIP3    H117550   4.977   8.551   1.411
 5876TIP3    H217551   5.115   8.580   1.463
 5877TIP3   OH217552   4.044   8.308   1.499
 5877TIP3    H117553   4.092   8.289   1.583
 5877TIP3    H217554   4.114   8.350   1.446
 5878TIP3   OH217555   4.268   8.211   1.327
 5878TIP3    H117556   4.270   8.133   1.386
 5878TIP3    H217557   4.363   8.238   1.330
 5879TIP3   OH217558   4.523   8.290   1.353
 5879TIP3    H117559   4.561   8.200   1.356
 5879TIP3    H217560   4.588   8.338   1.408
 5880TIP3   OH217561   5.104   6.968   1.425
 5880TIP3    H117562   5.064   6.897   1.478
 5880TIP3    H217563   5.181   6.923   1.385
 5881TIP3   OH217564   5.625   6.846   1.324
 5881TIP3    H117565   5.662   6.902   1.252
 5881TIP3    H217566   5.532   6.874   1.325
 5882TIP3   OH217567   5.724   6.950   1.089
 5882TIP3    H117568   5.801   6.902   1.054
 5882TIP3    H217569   5.755   7.043   1.081
 5883TIP3   OH217570   4.354   6.675   1.439
 5883TIP3    H117571   4.262   6.643   1.444
 5883TIP3    H217572   4.402   6.590   1.435
 5884TIP3   OH217573   4.146   6.549   1.092
 5884TIP3    H117574   4.171   6.607   1.017
 5884TIP3    H217575   4.116   6.615   1.158
 5885TIP3   OH217576   4.803   6.706   1.324
 5885TIP3    H117577   4.857   6.757   1.261
 5885TIP3    H217578   4.828   6.747   1.408
 5886TIP3   OH217579   5.339   6.858   1.307
 5886TIP3    H117580   5.343   6.819   1.219
 5886TIP3    H217581   5.329   6.778   1.364
 5887TIP3   OH217582   5.369   6.783   0.876
 5887TIP3    H117583   5.285   6.829   0.895
 5887TIP3    H217584   5.355   6.698   0.921
 5888TIP3   OH217585   3.872   8.041   0.877
 5888TIP3    H117586   3.785   8.004   0.856
 5888TIP3    H217587   3.860   8.134   0.849
 5889TIP3   OH217588   4.260   6.706   0.853
 5889TIP3    H117589   4.308   6.645   0.793
 5889TIP3    H217590   4.334   6.756   0.893
 5890TIP3   OH217591   4.772   6.883   0.953
 5890TIP3    H117592   4.832   6.840   1.016
 5890TIP3    H217593   4.790   6.977   0.976
 5891TIP3   OH217594   4.561   6.955   2.331
 5891TIP3    H117595   4.526   6.885   2.389
 5891TIP3    H217596   4.655   6.956   2.360
 5892TIP3   OH217597   4.811   6.955   2.451
 5892TIP3    H117598   4.898   6.933   2.413
 5892TIP3    H217599   4.800   6.885   2.518
 5893TIP3   OH217600   3.984   8.139   0.509
 5893TIP3    H117601   3.930   8.178   0.578
 5893TIP3    H217602   4.040   8.079   0.559
 5894TIP3   OH217603   5.638   7.018   2.239
 5894TIP3    H117604   5.656   6.989   2.331
 5894TIP3    H217605   5.728   7.014   2.200
 5895TIP3   OH217606   5.589   8.573   1.725
 5895TIP3    H117607   5.520   8.527   1.672
 5895TIP3    H217608   5.553   8.663   1.725
 5896TIP3   OH217609   6.147   7.837   1.237
 5896TIP3    H117610   6.168   7.762   1.296
 5896TIP3    H217611   6.204   7.905   1.276
 5897TIP3   OH217612   6.081   8.237   1.005
 5897TIP3    H117613   6.088   8.141   0.992
 5897TIP3    H217614   6.172   8.264   0.993
 5898TIP3   OH217615   5.801   7.447   0.751
 5898TIP3    H117616   5.755   7.533   0.762
 5898TIP3    H217617   5.776   7.400   0.832
 5899TIP3   OH217618   5.881   7.743   0.929
 5899TIP3    H117619   5.933   7.665   0.959
 5899TIP3    H217620   5.914   7.758   0.840
 5900TIP3   OH217621   6.371   7.345   0.914
 5900TIP3    H117622   6.327   7.410   0.858
 5900TIP3    H217623   6.328   7.263   0.881
 5901TIP3   OH217624   6.025   7.533   1.034
 5901TIP3    H117625   6.106   7.514   1.084
 5901TIP3    H217626   6.039   7.474   0.956
 5902TIP3   OH217627   6.386   7.310   1.360
 5902TIP3    H117628   6.328   7.349   1.292
 5902TIP3    H217629   6.332   7.329   1.440
 5903TIP3   OH217630   6.495   8.091   1.151
 5903TIP3    H117631   6.425   8.144   1.196
 5903TIP3    H217632   6.541   8.162   1.104
 5904TIP3   OH217633   6.258   7.429   1.147
 5904TIP3    H117634   6.321   7.501   1.171
 5904TIP3    H217635   6.305   7.392   1.069
 5905TIP3   OH217636   6.316   8.276   1.244
 5905TIP3    H117637   6.298   8.369   1.216
 5905TIP3    H217638   6.237   8.262   1.300
 5906TIP3   OH217639   7.392   7.346   1.060
 5906TIP3    H117640   7.298   7.361   1.034
 5906TIP3    H217641   7.438   7.409   1.003
 5907TIP3   OH217642   6.736   7.025   1.076
 5907TIP3    H117643   6.720   6.932   1.099
 5907TIP3    H217644   6.660   7.068   1.122
 5908TIP3   OH217645   6.411   7.845   1.063
 5908TIP3    H117646   6.448   7.851   0.974
 5908TIP3    H217647   6.431   7.934   1.098
 5909TIP3   OH217648   6.530   8.386   1.385
 5909TIP3    H117649   6.485   8.457   1.436
 5909TIP3    H217650   6.452   8.337   1.352
 5910TIP3   OH217651   6.278   7.958   1.489
 5910TIP3    H117652   6.287   8.045   1.536
 5910TIP3    H217653   6.187   7.935   1.516
 5911TIP3   OH217654   6.323   8.547   1.477
 5911TIP3    H117655   6.274   8.557   1.394
 5911TIP3    H217656   6.252   8.526   1.542
 5912TIP3   OH217657   5.899   8.101   1.431
 5912TIP3    H117658   5.831   8.083   1.364
 5912TIP3    H217659   5.935   8.012   1.450
 5913TIP3   OH217660   5.760   8.286   1.096
 5913TIP3    H117661   5.844   8.300   1.051
 5913TIP3    H217662   5.723   8.376   1.103
 5914TIP3   OH217663   6.104   8.283   1.412
 5914TIP3    H117664   6.150   8.275   1.497
 5914TIP3    H217665   6.030   8.219   1.421
 5915TIP3   OH217666   6.503   7.106   1.206
 5915TIP3    H117667   6.415   7.077   1.177
 5915TIP3    H217668   6.478   7.188   1.254
 5916TIP3   OH217669   7.042   7.219   1.396
 5916TIP3    H117670   7.110   7.195   1.462
 5916TIP3    H217671   6.958   7.202   1.445
 5917TIP3   OH217672   7.260   7.629   1.315
 5917TIP3    H117673   7.222   7.620   1.405
 5917TIP3    H217674   7.289   7.721   1.315
 5918TIP3   OH217675   6.431   7.627   1.221
 5918TIP3    H117676   6.380   7.649   1.302
 5918TIP3    H217677   6.419   7.708   1.166
 5919TIP3   OH217678   6.991   7.870   1.551
 5919TIP3    H117679   6.950   7.803   1.611
 5919TIP3    H217680   7.082   7.864   1.585
 5920TIP3   OH217681   6.252   7.651   1.429
 5920TIP3    H117682   6.277   7.714   1.499
 5920TIP3    H217683   6.242   7.568   1.479
 5921TIP3   OH217684   5.835   7.190   1.021
 5921TIP3    H117685   5.919   7.213   1.066
 5921TIP3    H217686   5.861   7.167   0.930
 5922TIP3   OH217687   6.920   7.821   1.123
 5922TIP3    H117688   6.968   7.765   1.061
 5922TIP3    H217689   6.910   7.761   1.200
 5923TIP3   OH217690   6.073   7.379   0.816
 5923TIP3    H117691   5.997   7.395   0.757
 5923TIP3    H217692   6.111   7.297   0.781
 5924TIP3   OH217693   7.135   7.398   0.997
 5924TIP3    H117694   7.097   7.427   1.083
 5924TIP3    H217695   7.063   7.338   0.966
 5925TIP3   OH217696   6.269   8.196   1.637
 5925TIP3    H117697   6.345   8.231   1.686
 5925TIP3    H217698   6.200   8.206   1.705
 5926TIP3   OH217699   6.240   7.152   0.776
 5926TIP3    H117700   6.203   7.073   0.822
 5926TIP3    H217701   6.263   7.117   0.689
 5927TIP3   OH217702   6.698   7.541   1.211
 5927TIP3    H117703   6.612   7.587   1.203
 5927TIP3    H217704   6.757   7.608   1.250
 5928TIP3   OH217705   6.146   7.971   0.967
 5928TIP3    H117706   6.161   7.913   0.891
 5928TIP3    H217707   6.160   7.911   1.042
 5929TIP3   OH217708   6.022   7.884   1.565
 5929TIP3    H117709   6.034   7.871   1.661
 5929TIP3    H217710   5.948   7.823   1.547
 5930TIP3   OH217711   6.747   8.002   1.588
 5930TIP3    H117712   6.682   7.943   1.546
 5930TIP3    H217713   6.831   7.966   1.555
 5931TIP3   OH217714   6.223   7.396   1.571
 5931TIP3    H117715   6.126   7.399   1.584
 5931TIP3    H217716   6.252   7.341   1.646
 5932TIP3   OH217717   5.969   8.504   1.205
 5932TIP3    H117718   5.991   8.410   1.214
 5932TIP3    H217719   5.965   8.532   1.297
 5933TIP3   OH217720   7.055   7.458   1.252
 5933TIP3    H117721   7.138   7.502   1.280
 5933TIP3    H217722   7.054   7.377   1.308
 5934TIP3   OH217723   6.899   7.685   1.352
 5934TIP3    H117724   6.934   7.743   1.423
 5934TIP3    H217725   6.954   7.606   1.362
 5935TIP3   OH217726   6.239   7.027   1.173
 5935TIP3    H117727   6.210   6.993   1.086
 5935TIP3    H217728   6.228   6.949   1.231
 5936TIP3   OH217729   6.015   8.727   1.592
 5936TIP3    H117730   6.082   8.744   1.662
 5936TIP3    H217731   5.991   8.635   1.613
 5937TIP3   OH217732   6.064   8.195   1.830
 5937TIP3    H117733   6.083   8.099   1.835
 5937TIP3    H217734   5.977   8.196   1.785
 5938TIP3   OH217735   6.644   8.266   1.610
 5938TIP3    H117736   6.627   8.300   1.520
 5938TIP3    H217737   6.697   8.186   1.593
 5939TIP3   OH217738   6.188   7.933   1.814
 5939TIP3    H117739   6.264   7.880   1.789
 5939TIP3    H217740   6.215   7.966   1.902
 5940TIP3   OH217741   6.522   7.819   1.475
 5940TIP3    H117742   6.442   7.876   1.473
 5940TIP3    H217743   6.573   7.852   1.397
 5941TIP3   OH217744   6.640   7.603   1.598
 5941TIP3    H117745   6.641   7.523   1.542
 5941TIP3    H217746   6.598   7.670   1.539
 5942TIP3   OH217747   6.643   7.381   1.422
 5942TIP3    H117748   6.673   7.427   1.340
 5942TIP3    H217749   6.550   7.360   1.398
 5943TIP3   OH217750   6.674   7.919   1.277
 5943TIP3    H117751   6.749   7.903   1.218
 5943TIP3    H217752   6.621   7.985   1.227
 5944TIP3   OH217753   7.238   7.849   1.679
 5944TIP3    H117754   7.265   7.755   1.677
 5944TIP3    H217755   7.320   7.893   1.649
 5945TIP3   OH217756   6.522   7.707   1.832
 5945TIP3    H117757   6.454   7.639   1.848
 5945TIP3    H217758   6.554   7.682   1.743
 5946TIP3   OH217759   6.779   7.147   1.477
 5946TIP3    H117760   6.729   7.229   1.457
 5946TIP3    H217761   6.710   7.079   1.466
 5947TIP3   OH217762   6.895   7.659   1.691
 5947TIP3    H117763   6.883   7.642   1.787
 5947TIP3    H217764   6.806   7.633   1.659
 5948TIP3   OH217765   7.131   7.598   1.551
 5948TIP3    H117766   7.055   7.606   1.612
 5948TIP3    H217767   7.202   7.567   1.611
 5949TIP3   OH217768   7.342   7.551   1.711
 5949TIP3    H117769   7.376   7.459   1.707
 5949TIP3    H217770   7.377   7.579   1.798
 5950TIP3   OH217771   6.360   7.488   1.887
 5950TIP3    H117772   6.364   7.396   1.854
 5950TIP3    H217773   6.398   7.477   1.977
 5951TIP3   OH217774   6.869   7.160   1.735
 5951TIP3    H117775   6.936   7.089   1.728
 5951TIP3    H217776   6.830   7.156   1.646
 5952TIP3   OH217777   6.937   7.375   1.893
 5952TIP3    H117778   6.916   7.304   1.829
 5952TIP3    H217779   6.859   7.434   1.886
 5953TIP3   OH217780   5.877   7.851   1.182
 5953TIP3    H117781   5.872   7.820   1.089
 5953TIP3    H217782   5.974   7.854   1.195
 5954TIP3   OH217783   6.095   7.541   1.851
 5954TIP3    H117784   6.192   7.535   1.859
 5954TIP3    H217785   6.069   7.455   1.891
 5955TIP3   OH217786   6.056   7.236   1.186
 5955TIP3    H117787   6.118   7.161   1.194
 5955TIP3    H217788   6.118   7.311   1.178
 5956TIP3   OH217789   5.852   7.508   1.255
 5956TIP3    H117790   5.905   7.508   1.173
 5956TIP3    H217791   5.877   7.592   1.295
 5957TIP3   OH217792   5.831   7.070   0.770
 5957TIP3    H117793   5.751   7.015   0.775
 5957TIP3    H217794   5.887   7.020   0.707
 5958TIP3   OH217795   6.061   7.090   1.570
 5958TIP3    H117796   6.011   7.088   1.653
 5958TIP3    H217797   5.995   7.131   1.510
 5959TIP3   OH217798   6.122   8.468   1.662
 5959TIP3    H117799   6.028   8.448   1.648
 5959TIP3    H217800   6.125   8.480   1.758
 5960TIP3   OH217801   6.278   8.543   1.187
 5960TIP3    H117802   6.199   8.585   1.151
 5960TIP3    H217803   6.349   8.600   1.153
 5961TIP3   OH217804   7.653   7.276   1.270
 5961TIP3    H117805   7.579   7.218   1.246
 5961TIP3    H217806   7.730   7.220   1.254
 5962TIP3   OH217807   5.887   8.628   0.963
 5962TIP3    H117808   5.899   8.595   1.054
 5962TIP3    H217809   5.944   8.568   0.915
 5963TIP3   OH217810   6.939   7.213   0.925
 5963TIP3    H117811   6.865   7.178   0.977
 5963TIP3    H217812   6.957   7.141   0.864
 5964TIP3   OH217813   6.152   6.933   0.922
 5964TIP3    H117814   6.059   6.902   0.929
 5964TIP3    H217815   6.199   6.847   0.925
 5965TIP3   OH217816   6.595   6.954   0.835
 5965TIP3    H117817   6.592   7.027   0.770
 5965TIP3    H217818   6.645   6.993   0.909
 5966TIP3   OH217819   6.358   7.214   1.819
 5966TIP3    H117820   6.321   7.144   1.876
 5966TIP3    H217821   6.452   7.213   1.848
 5967TIP3   OH217822   6.608   7.213   1.938
 5967TIP3    H117823   6.693   7.188   1.899
 5967TIP3    H217824   6.596   7.142   2.005
 5968TIP3   OH217825   7.431   7.282   1.725
 5968TIP3    H117826   7.452   7.253   1.816
 5968TIP3    H217827   7.518   7.273   1.681
 5969TIP3   OH217828   1.795   0.417   5.836
 5969TIP3    H117829   1.807   0.344   5.898
 5969TIP3    H217830   1.826   0.494   5.888
 5970TIP3   OH217831   1.445   0.876   5.862
 5970TIP3    H117832   1.483   0.798   5.816
 5970TIP3    H217833   1.436   0.845   5.952
 5971TIP3   OH217834   2.430  -0.079   6.347
 5971TIP3    H117835   2.338  -0.046   6.351
 5971TIP3    H217836   2.431  -0.144   6.419
 5972TIP3   OH217837   1.850   0.645   6.004
 5972TIP3    H117838   1.765   0.639   6.052
 5972TIP3    H217839   1.845   0.734   5.964
 5973TIP3   OH217840   1.571   0.698   5.685
 5973TIP3    H117841   1.617   0.614   5.662
 5973TIP3    H217842   1.634   0.763   5.646
 5974TIP3   OH217843   1.696   0.473   5.586
 5974TIP3    H117844   1.705   0.393   5.532
 5974TIP3    H217845   1.737   0.446   5.671
 5975TIP3   OH217846   2.091   0.573   6.357
 5975TIP3    H117847   2.086   0.490   6.305
 5975TIP3    H217848   2.074   0.641   6.288
 5976TIP3   OH217849   2.292   0.198   6.198
 5976TIP3    H117850   2.213   0.255   6.206
 5976TIP3    H217851   2.321   0.221   6.107
 5977TIP3   OH217852   1.625   0.629   6.164
 5977TIP3    H117853   1.608   0.726   6.162
 5977TIP3    H217854   1.645   0.620   6.259
 5978TIP3   OH217855   1.309   0.619   5.734
 5978TIP3    H117856   1.399   0.645   5.705
 5978TIP3    H217857   1.259   0.622   5.652
 5979TIP3   OH217858   1.888   0.504   5.006
 5979TIP3    H117859   1.896   0.601   4.991
 5979TIP3    H217860   1.981   0.475   4.992
 5980TIP3   OH217861   2.331   0.912   6.404
 5980TIP3    H117862   2.331   0.816   6.419
 5980TIP3    H217863   2.247   0.937   6.448
 5981TIP3   OH217864   1.235   0.843   5.477
 5981TIP3    H117865   1.148   0.803   5.458
 5981TIP3    H217866   1.205   0.927   5.516
 5982TIP3   OH217867   1.401   0.720   5.119
 5982TIP3    H117868   1.458   0.648   5.084
 5982TIP3    H217869   1.437   0.731   5.210
 5983TIP3   OH217870   1.471   0.760   5.381
 5983TIP3    H117871   1.383   0.785   5.418
 5983TIP3    H217872   1.518   0.733   5.461
 5984TIP3   OH217873   1.647  -0.030   5.165
 5984TIP3    H117874   1.608  -0.074   5.086
 5984TIP3    H217875   1.733  -0.003   5.128
 5985TIP3   OH217876   2.026   1.255   6.501
 5985TIP3    H117877   2.021   1.284   6.408
 5985TIP3    H217878   2.105   1.305   6.532
 5986TIP3   OH217879   2.072   0.354   6.194
 5986TIP3    H117880   2.081   0.399   6.108
 5986TIP3    H217881   1.981   0.320   6.195
 5987TIP3   OH217882   1.696   0.703   6.433
 5987TIP3    H117883   1.599   0.694   6.440
 5987TIP3    H217884   1.717   0.745   6.518
 5988TIP3   OH217885   2.129  -0.226   5.344
 5988TIP3    H117886   2.057  -0.272   5.297
 5988TIP3    H217887   2.116  -0.136   5.307
 5989TIP3   OH217888   2.344   0.630   6.435
 5989TIP3    H117889   2.246   0.624   6.428
 5989TIP3    H217890   2.370   0.596   6.346
 5990TIP3   OH217891   1.828   0.579   5.271
 5990TIP3    H117892   1.794   0.511   5.330
 5990TIP3    H217893   1.839   0.532   5.186
 5991TIP3   OH217894   1.586   0.306   5.172
 5991TIP3    H117895   1.640   0.285   5.252
 5991TIP3    H217896   1.502   0.266   5.197
 5992TIP3   OH217897   1.852   0.942   6.338
 5992TIP3    H117898   1.774   0.884   6.331
 5992TIP3    H217899   1.837   1.004   6.263
 5993TIP3   OH217900   1.918   0.779   4.989
 5993TIP3    H117901   1.950   0.855   4.938
 5993TIP3    H217902   1.838   0.821   5.028
 5994TIP3   OH217903   1.744   0.247   5.396
 5994TIP3    H117904   1.730   0.163   5.442
 5994TIP3    H217905   1.841   0.243   5.380
 5995TIP3   OH217906   1.875   0.914   5.928
 5995TIP3    H117907   1.831   0.963   5.854
 5995TIP3    H217908   1.969   0.935   5.909
 5996TIP3   OH217909   1.126   0.492   5.065
 5996TIP3    H117910   1.107   0.430   5.138
 5996TIP3    H217911   1.193   0.441   5.015
 5997TIP3   OH217912   1.766   0.808   6.701
 5997TIP3    H117913   1.805   0.721   6.718
 5997TIP3    H217914   1.841   0.869   6.720
 5998TIP3   OH217915   1.542   0.519   4.990
 5998TIP3    H117916   1.586   0.460   5.053
 5998TIP3    H217917   1.603   0.520   4.914
 5999TIP3   OH217918   1.895   0.524   6.551
 5999TIP3    H117919   1.969   0.543   6.490
 5999TIP3    H217920   1.818   0.557   6.502
 6000TIP3   OH217921   1.880   0.029   5.028
 6000TIP3    H117922   1.857  -0.012   4.942
 6000TIP3    H217923   1.848   0.121   5.008
 6001TIP3   OH217924   2.015   0.329   6.694
 6001TIP3    H117925   1.955   0.398   6.659
 6001TIP3    H217926   2.094   0.346   6.639
 6002TIP3   OH217927   0.867   0.759   5.234
 6002TIP3    H117928   0.963   0.778   5.240
 6002TIP3    H217929   0.843   0.818   5.161
 6003TIP3   OH217930   2.131   1.004   5.894
 6003TIP3    H117931   2.152   1.040   5.982
 6003TIP3    H217932   2.189   1.057   5.836
 6004TIP3   OH217933   2.155   1.030   6.174
 6004TIP3    H117934   2.113   0.941   6.170
 6004TIP3    H217935   2.232   1.011   6.229
 6005TIP3   OH217936   2.209   0.707   6.747
 6005TIP3    H117937   2.135   0.718   6.810
 6005TIP3    H217938   2.250   0.796   6.750
 6006TIP3   OH217939   2.017   0.224   5.364
 6006TIP3    H117940   2.085   0.287   5.333
 6006TIP3    H217941   2.063   0.185   5.443
 6007TIP3   OH217942   2.147   0.095   5.567
 6007TIP3    H117943   2.086   0.046   5.627
 6007TIP3    H217944   2.216   0.127   5.629
 6008TIP3   OH217945   2.198   0.483   5.987
 6008TIP3    H117946   2.257   0.415   5.948
 6008TIP3    H217947   2.206   0.557   5.924
 6009TIP3   OH217948   2.028   0.781   6.188
 6009TIP3    H117949   1.958   0.825   6.241
 6009TIP3    H217950   1.976   0.739   6.117
 6010TIP3   OH217951   2.080   0.006   5.208
 6010TIP3    H117952   2.009   0.008   5.141
 6010TIP3    H217953   2.051   0.079   5.266
 6011TIP3   OH217954   1.951  -0.344   5.168
 6011TIP3    H117955   1.917  -0.273   5.113
 6011TIP3    H217956   1.885  -0.413   5.157
 6012TIP3   OH217957   1.989  -0.058   5.729
 6012TIP3    H117958   1.981  -0.152   5.707
 6012TIP3    H217959   1.972  -0.056   5.824
 6013TIP3   OH217960   2.240   0.395   6.558
 6013TIP3    H117961   2.307   0.323   6.558
 6013TIP3    H217962   2.277   0.460   6.497
 6014TIP3   OH217963   2.398   0.191   6.612
 6014TIP3    H117964   2.336   0.118   6.606
 6014TIP3    H217965   2.482   0.141   6.626
 6015TIP3   OH217966   2.111  -0.125   6.086
 6015TIP3    H117967   2.198  -0.112   6.043
 6015TIP3    H217968   2.140  -0.132   6.178
 6016TIP3   OH217969   2.164   0.005   6.348
 6016TIP3    H117970   2.090   0.052   6.389
 6016TIP3    H217971   2.200   0.073   6.287
 6017TIP3   OH217972   1.716   0.876   5.545
 6017TIP3    H117973   1.769   0.873   5.463
 6017TIP3    H217974   1.760   0.948   5.594
 6018TIP3   OH217975   1.453   1.021   6.617
 6018TIP3    H117976   1.503   0.996   6.697
 6018TIP3    H217977   1.524   1.044   6.554
 6019TIP3   OH217978   1.641   1.118   6.452
 6019TIP3    H117979   1.719   1.069   6.421
 6019TIP3    H217980   1.682   1.178   6.518
 6020TIP3   OH217981   1.366   0.991   6.136
 6020TIP3    H117982   1.294   1.014   6.075
 6020TIP3    H217983   1.366   1.068   6.196
 6021TIP3   OH217984   1.611   0.898   6.189
 6021TIP3    H117985   1.516   0.923   6.180
 6021TIP3    H217986   1.653   0.982   6.163
 6022TIP3   OH217987   1.803   1.102   6.123
 6022TIP3    H117988   1.788   1.189   6.078
 6022TIP3    H217989   1.829   1.046   6.047
 6023TIP3   OH217990   1.135   0.739   5.198
 6023TIP3    H117991   1.229   0.756   5.178
 6023TIP3    H217992   1.120   0.658   5.146
 6024TIP3   OH217993   1.862   0.847   5.312
 6024TIP3    H117994   1.852   0.749   5.303
 6024TIP3    H217995   1.811   0.878   5.235
 6025TIP3   OH217996   2.081   0.986   6.499
 6025TIP3    H117997   2.003   0.959   6.446
 6025TIP3    H217998   2.065   1.083   6.504
 6026TIP3   OH217999   3.351   0.359   5.262
 6026TIP3    H118000   3.323   0.451   5.243
 6026TIP3    H218001   3.271   0.310   5.235
 6027TIP3   OH218002   3.348   0.360   5.651
 6027TIP3    H118003   3.383   0.339   5.739
 6027TIP3    H218004   3.310   0.275   5.623
 6028TIP3   OH218005   2.645   0.258   6.011
 6028TIP3    H118006   2.678   0.185   6.067
 6028TIP3    H218007   2.726   0.310   6.000
 6029TIP3   OH218008   3.594   0.667   5.333
 6029TIP3    H118009   3.581   0.600   5.401
 6029TIP3    H218010   3.626   0.743   5.385
 6030TIP3   OH218011   2.621   0.664   5.731
 6030TIP3    H118012   2.614   0.567   5.733
 6030TIP3    H218013   2.718   0.675   5.731
 6031TIP3   OH218014   2.312  -0.132   5.525
 6031TIP3    H118015   2.264  -0.049   5.538
 6031TIP3    H218016   2.242  -0.186   5.484
 6032TIP3   OH218017   2.382   0.154   5.700
 6032TIP3    H118018   2.432   0.077   5.735
 6032TIP3    H218019   2.445   0.189   5.635
 6033TIP3   OH218020   3.240   1.121   5.346
 6033TIP3    H118021   3.286   1.048   5.298
 6033TIP3    H218022   3.236   1.087   5.436
 6034TIP3   OH218023   3.146   0.586   5.696
 6034TIP3    H118024   3.189   0.509   5.654
 6034TIP3    H218025   3.227   0.634   5.722
 6035TIP3   OH218026   3.561   0.073   5.736
 6035TIP3    H118027   3.594  -0.018   5.733
 6035TIP3    H218028   3.519   0.077   5.648
 6036TIP3   OH218029   3.569  -0.115   5.310
 6036TIP3    H118030   3.661  -0.146   5.322
 6036TIP3    H218031   3.568  -0.090   5.217
 6037TIP3   OH218032   2.539  -0.047   5.799
 6037TIP3    H118033   2.626  -0.068   5.838
 6037TIP3    H218034   2.550  -0.090   5.711
 6038TIP3   OH218035   2.971   0.146   5.599
 6038TIP3    H118036   3.065   0.123   5.612
 6038TIP3    H218037   2.934   0.059   5.570
 6039TIP3   OH218038   4.249   0.194   5.821
 6039TIP3    H118039   4.154   0.215   5.826
 6039TIP3    H218040   4.255   0.117   5.882
 6040TIP3   OH218041   3.237   0.579   5.133
 6040TIP3    H118042   3.196   0.568   5.047
 6040TIP3    H218043   3.195   0.663   5.163
 6041TIP3   OH218044   3.002   0.505   5.920
 6041TIP3    H118045   2.943   0.575   5.956
 6041TIP3    H218046   3.047   0.552   5.846
 6042TIP3   OH218047   2.785  -0.137   5.878
 6042TIP3    H118048   2.853  -0.077   5.913
 6042TIP3    H218049   2.839  -0.201   5.829
 6043TIP3   OH218050   2.832   0.704   6.017
 6043TIP3    H118051   2.808   0.792   5.983
 6043TIP3    H218052   2.752   0.686   6.071
 6044TIP3   OH218053   2.217   0.392   5.254
 6044TIP3    H118054   2.178   0.423   5.171
 6044TIP3    H218055   2.250   0.477   5.292
 6045TIP3   OH218056   3.660   0.907   5.491
 6045TIP3    H118057   3.571   0.899   5.532
 6045TIP3    H218058   3.653   0.995   5.449
 6046TIP3   OH218059   3.361   0.948   5.165
 6046TIP3    H118060   3.414   0.867   5.146
 6046TIP3    H218061   3.422   1.015   5.126
 6047TIP3   OH218062   3.507   0.733   5.081
 6047TIP3    H118063   3.466   0.652   5.049
 6047TIP3    H218064   3.547   0.703   5.165
 6048TIP3   OH218065   3.886   0.818   5.839
 6048TIP3    H118066   3.874   0.742   5.779
 6048TIP3    H218067   3.867   0.894   5.779
 6049TIP3   OH218068   3.173   0.216   5.097
 6049TIP3    H118069   3.095   0.271   5.077
 6049TIP3    H218070   3.222   0.218   5.013
 6050TIP3   OH218071   3.138   0.004   4.801
 6050TIP3    H118072   3.198   0.060   4.855
 6050TIP3    H218073   3.191  -0.076   4.793
 6051TIP3   OH218074   4.075   0.456   5.683
 6051TIP3    H118075   3.995   0.512   5.686
 6051TIP3    H218076   4.110   0.479   5.594
 6052TIP3   OH218077   3.524   0.294   5.062
 6052TIP3    H118078   3.470   0.315   5.142
 6052TIP3    H218079   3.610   0.275   5.105
 6053TIP3   OH218080   3.752   0.347   5.981
 6053TIP3    H118081   3.753   0.429   6.034
 6053TIP3    H218082   3.666   0.355   5.936
 6054TIP3   OH218083   2.762   0.290   5.485
 6054TIP3    H118084   2.723   0.232   5.416
 6054TIP3    H218085   2.838   0.236   5.518
 6055TIP3   OH218086   2.893   0.705   5.632
 6055TIP3    H118087   2.874   0.665   5.546
 6055TIP3    H218088   2.982   0.669   5.652
 6056TIP3   OH218089   2.896   0.261   5.845
 6056TIP3    H118090   2.927   0.235   5.756
 6056TIP3    H218091   2.940   0.347   5.859
 6057TIP3   OH218092   3.421   0.901   5.616
 6057TIP3    H118093   3.408   0.983   5.667
 6057TIP3    H218094   3.404   0.831   5.682
 6058TIP3   OH218095   3.036   0.817   6.165
 6058TIP3    H118096   2.975   0.879   6.211
 6058TIP3    H218097   2.972   0.765   6.113
 6059TIP3   OH218098   3.351   0.173   4.886
 6059TIP3    H118099   3.414   0.228   4.938
 6059TIP3    H218100   3.383   0.191   4.794
 6060TIP3   OH218101   2.793   0.371   6.273
 6060TIP3    H118102   2.798   0.460   6.312
 6060TIP3    H218103   2.698   0.353   6.280
 6061TIP3   OH218104   3.116   0.828   5.165
 6061TIP3    H118105   3.201   0.876   5.175
 6061TIP3    H218106   3.056   0.899   5.142
 6062TIP3   OH218107   2.829   0.981   6.251
 6062TIP3    H118108   2.794   0.989   6.161
 6062TIP3    H218109   2.749   0.961   6.304
 6063TIP3   OH218110   2.633   0.135   5.282
 6063TIP3    H118111   2.556   0.173   5.235
 6063TIP3    H218112   2.599   0.049   5.310
 6064TIP3   OH218113   3.685   0.757   4.493
 6064TIP3    H118114   3.693   0.854   4.478
 6064TIP3    H218115   3.778   0.728   4.481
 6065TIP3   OH218116   2.406   0.516   6.198
 6065TIP3    H118117   2.341   0.493   6.129
 6065TIP3    H218118   2.445   0.429   6.221
 6066TIP3   OH218119   2.263   0.712   5.830
 6066TIP3    H118120   2.360   0.711   5.824
 6066TIP3    H218121   2.249   0.791   5.885
 6067TIP3   OH218122   4.127   1.169   5.890
 6067TIP3    H118123   4.126   1.072   5.905
 6067TIP3    H218124   4.043   1.194   5.935
 6068TIP3   OH218125   3.231   0.946   6.021
 6068TIP3    H118126   3.228   1.039   6.053
 6068TIP3    H218127   3.160   0.906   6.077
 6069TIP3   OH218128   2.995   1.080   4.982
 6069TIP3    H118129   2.925   1.077   4.917
 6069TIP3    H218130   2.981   1.168   5.022
 6070TIP3   OH218131   2.434   0.923   5.359
 6070TIP3    H118132   2.481   0.917   5.445
 6070TIP3    H218133   2.377   0.844   5.364
 6071TIP3   OH218134   3.169   0.962   4.614
 6071TIP3    H118135   3.235   0.897   4.583
 6071TIP3    H218136   3.203   0.984   4.703
 6072TIP3   OH218137   3.243   1.027   4.876
 6072TIP3    H118138   3.159   1.038   4.927
 6072TIP3    H218139   3.304   0.998   4.946
 6073TIP3   OH218140   4.011   0.272   6.151
 6073TIP3    H118141   3.934   0.326   6.131
 6073TIP3    H218142   4.013   0.212   6.075
 6074TIP3   OH218143   2.612   0.699   6.179
 6074TIP3    H118144   2.659   0.687   6.263
 6074TIP3    H218145   2.537   0.636   6.188
 6075TIP3   OH218146   3.762   0.090   6.085
 6075TIP3    H118147   3.764   0.128   6.174
 6075TIP3    H218148   3.753   0.172   6.031
 6076TIP3   OH218149   3.436   0.194   4.629
 6076TIP3    H118150   3.410   0.173   4.538
 6076TIP3    H218151   3.523   0.237   4.613
 6077TIP3   OH218152   2.964   0.042   5.996
 6077TIP3    H118153   2.904   0.057   6.072
 6077TIP3    H218154   2.945   0.122   5.943
 6078TIP3   OH218155   2.847  -0.080   5.506
 6078TIP3    H118156   2.753  -0.098   5.529
 6078TIP3    H218157   2.848  -0.106   5.412
 6079TIP3   OH218158   3.301   0.022   5.239
 6079TIP3    H118159   3.251   0.093   5.192
 6079TIP3    H218160   3.366  -0.003   5.171
 6080TIP3   OH218161   3.488   0.286   6.307
 6080TIP3    H118162   3.462   0.229   6.383
 6080TIP3    H218163   3.582   0.303   6.327
 6081TIP3   OH218164   3.457   0.070   5.482
 6081TIP3    H118165   3.402   0.101   5.408
 6081TIP3    H218166   3.490  -0.013   5.441
 6082TIP3   OH218167   2.761   0.076   6.188
 6082TIP3    H118168   2.788   0.139   6.258
 6082TIP3    H218169   2.700   0.017   6.235
 6083TIP3   OH218170   2.375  -0.346   5.288
 6083TIP3    H118171   2.383  -0.306   5.199
 6083TIP3    H218172   2.304  -0.290   5.326
 6084TIP3   OH218173   3.480   0.282   5.888
 6084TIP3    H118174   3.517   0.211   5.831
 6084TIP3    H218175   3.455   0.228   5.966
 6085TIP3   OH218176   2.583  -0.155   5.551
 6085TIP3    H118177   2.487  -0.157   5.531
 6085TIP3    H218178   2.603  -0.250   5.563
 6086TIP3   OH218179   2.873  -0.183   5.255
 6086TIP3    H118180   2.961  -0.187   5.215
 6086TIP3    H218181   2.812  -0.183   5.178
 6087TIP3   OH218182   2.699  -0.174   5.040
 6087TIP3    H118183   2.629  -0.211   4.983
 6087TIP3    H218184   2.754  -0.129   4.973
 6088TIP3   OH218185   3.821   1.512   5.988
 6088TIP3    H118186   3.817   1.541   5.895
 6088TIP3    H218187   3.898   1.564   6.021
 6089TIP3   OH218188   2.774   0.621   6.407
 6089TIP3    H118189   2.854   0.651   6.454
 6089TIP3    H218190   2.709   0.625   6.479
 6090TIP3   OH218191   3.232   0.073   5.664
 6090TIP3    H118192   3.309   0.042   5.613
 6090TIP3    H218193   3.241   0.022   5.747
 6091TIP3   OH218194   3.233  -0.030   5.962
 6091TIP3    H118195   3.139  -0.004   5.973
 6091TIP3    H218196   3.280   0.043   6.007
 6092TIP3   OH218197   2.945   0.366   5.043
 6092TIP3    H118198   2.873   0.299   5.034
 6092TIP3    H218199   2.928   0.399   5.134
 6093TIP3   OH218200   3.845   0.604   5.671
 6093TIP3    H118201   3.871   0.654   5.591
 6093TIP3    H218202   3.761   0.562   5.643
 6094TIP3   OH218203   3.330  -0.240   4.892
 6094TIP3    H118204   3.341  -0.336   4.914
 6094TIP3    H218205   3.427  -0.223   4.872
 6095TIP3   OH218206   3.344   0.680   6.046
 6095TIP3    H118207   3.381   0.671   6.135
 6095TIP3    H218208   3.309   0.771   6.048
 6096TIP3   OH218209   3.470  -0.038   5.038
 6096TIP3    H118210   3.568  -0.045   5.024
 6096TIP3    H218211   3.445   0.027   4.973
 6097TIP3   OH218212   2.644   0.388   5.718
 6097TIP3    H118213   2.684   0.358   5.634
 6097TIP3    H218214   2.686   0.328   5.782
 6098TIP3   OH218215   3.093   0.504   4.861
 6098TIP3    H118216   3.045   0.591   4.863
 6098TIP3    H218217   3.040   0.454   4.926
 6099TIP3   OH218218   2.528   0.304   6.335
 6099TIP3    H118219   2.550   0.292   6.429
 6099TIP3    H218220   2.460   0.236   6.320
 6100TIP3   OH218221   3.249   0.423   6.355
 6100TIP3    H118222   3.185   0.359   6.319
 6100TIP3    H218223   3.334   0.387   6.321
 6101TIP3   OH218224   3.506   0.937   5.944
 6101TIP3    H118225   3.410   0.942   5.956
 6101TIP3    H218226   3.536   0.992   6.020
 6102TIP3   OH218227   3.886   0.030   4.856
 6102TIP3    H118228   3.831  -0.015   4.788
 6102TIP3    H218229   3.896   0.118   4.812
 6103TIP3   OH218230   4.136   0.882   5.924
 6103TIP3    H118231   4.039   0.878   5.913
 6103TIP3    H218232   4.165   0.848   5.836
 6104TIP3   OH218233   3.613   0.836   4.756
 6104TIP3    H118234   3.595   0.766   4.820
 6104TIP3    H218235   3.633   0.787   4.674
 6105TIP3   OH218236   3.612   0.468   5.589
 6105TIP3    H118237   3.518   0.443   5.601
 6105TIP3    H218238   3.646   0.388   5.543
 6106TIP3   OH218239   2.743   0.690   5.342
 6106TIP3    H118240   2.739   0.773   5.291
 6106TIP3    H218241   2.651   0.679   5.368
 6107TIP3   OH218242   2.301   0.008   5.045
 6107TIP3    H118243   2.350   0.088   5.073
 6107TIP3    H218244   2.227   0.010   5.109
 6108TIP3   OH218245   2.874   0.453   5.286
 6108TIP3    H118246   2.840   0.543   5.306
 6108TIP3    H218247   2.842   0.403   5.363
 6109TIP3   OH218248   3.015   1.034   5.814
 6109TIP3    H118249   3.057   1.108   5.765
 6109TIP3    H218250   3.092   0.998   5.862
 6110TIP3   OH218251   2.656   0.934   5.191
 6110TIP3    H118252   2.574   0.940   5.244
 6110TIP3    H218253   2.691   1.026   5.201
 6111TIP3   OH218254   3.396   0.668   5.778
 6111TIP3    H118255   3.386   0.667   5.876
 6111TIP3    H218256   3.480   0.622   5.767
 6112TIP3   OH218257   3.378   0.561   4.661
 6112TIP3    H118258   3.434   0.536   4.739
 6112TIP3    H218259   3.290   0.539   4.694
 6113TIP3   OH218260   3.648   1.197   5.823
 6113TIP3    H118261   3.566   1.145   5.816
 6113TIP3    H218262   3.634   1.264   5.752
 6114TIP3   OH218263   3.714   1.033   4.477
 6114TIP3    H118264   3.753   1.107   4.427
 6114TIP3    H218265   3.634   1.078   4.510
 6115TIP3   OH218266   3.540   0.489   4.870
 6115TIP3    H118267   3.531   0.426   4.944
 6115TIP3    H218268   3.637   0.490   4.860
 6116TIP3   OH218269   2.452   0.895   5.973
 6116TIP3    H118270   2.509   0.830   6.017
 6116TIP3    H218271   2.474   0.976   6.022
 6117TIP3   OH218272   2.711   0.550   4.653
 6117TIP3    H118273   2.748   0.465   4.626
 6117TIP3    H218274   2.715   0.542   4.751
 6118TIP3   OH218275   2.686   0.545   4.930
 6118TIP3    H118276   2.758   0.512   4.986
 6118TIP3    H218277   2.695   0.642   4.942
 6119TIP3   OH218278   2.417   0.241   5.138
 6119TIP3    H118279   2.350   0.286   5.195
 6119TIP3    H218280   2.431   0.310   5.070
 6120TIP3   OH218281   2.954   0.735   4.861
 6120TIP3    H118282   2.873   0.765   4.906
 6120TIP3    H218283   2.989   0.817   4.825
 6121TIP3   OH218284   3.172  -0.208   5.297
 6121TIP3    H118285   3.218  -0.126   5.270
 6121TIP3    H218286   3.154  -0.190   5.389
 6122TIP3   OH218287   3.425   0.118   6.103
 6122TIP3    H118288   3.431   0.191   6.169
 6122TIP3    H218289   3.457   0.044   6.158
 6123TIP3   OH218290   2.709   0.816   4.952
 6123TIP3    H118291   2.671   0.880   4.890
 6123TIP3    H218292   2.688   0.857   5.039
 6124TIP3   OH218293   3.695   0.229   5.469
 6124TIP3    H118294   3.618   0.170   5.483
 6124TIP3    H218295   3.767   0.181   5.515
 6125TIP3   OH218296   2.417   0.444   4.938
 6125TIP3    H118297   2.491   0.506   4.950
 6125TIP3    H218298   2.459   0.385   4.871
 6126TIP3   OH218299   2.346  -0.261   5.036
 6126TIP3    H118300   2.340  -0.163   5.036
 6126TIP3    H218301   2.267  -0.288   4.987
 6127TIP3   OH218302   3.671   1.177   5.415
 6127TIP3    H118303   3.628   1.223   5.339
 6127TIP3    H218304   3.765   1.196   5.395
 6128TIP3   OH218305   2.275   0.657   5.321
 6128TIP3    H118306   2.219   0.691   5.392
 6128TIP3    H218307   2.240   0.705   5.242
 6129TIP3   OH218308   2.445   1.212   6.399
 6129TIP3    H118309   2.531   1.216   6.446
 6129TIP3    H218310   2.429   1.117   6.397
 6130TIP3   OH218311   2.916   1.162   6.447
 6130TIP3    H118312   3.013   1.156   6.450
 6130TIP3    H218313   2.896   1.101   6.373
 6131TIP3   OH218314   3.562   1.075   6.175
 6131TIP3    H118315   3.556   1.007   6.246
 6131TIP3    H218316   3.638   1.129   6.205
 6132TIP3   OH218317   3.331   0.780   4.479
 6132TIP3    H118318   3.380   0.723   4.541
 6132TIP3    H218319   3.391   0.781   4.401
 6133TIP3   OH218320   2.570   0.614   6.597
 6133TIP3    H118321   2.579   0.518   6.608
 6133TIP3    H218322   2.485   0.621   6.549
 6134TIP3   OH218323   2.554   0.258   4.795
 6134TIP3    H118324   2.608   0.228   4.870
 6134TIP3    H218325   2.624   0.269   4.727
 6135TIP3   OH218326   3.179   0.700   6.373
 6135TIP3    H118327   3.138   0.722   6.286
 6135TIP3    H218328   3.209   0.608   6.359
 6136TIP3   OH218329   3.065   0.452   4.593
 6136TIP3    H118330   3.071   0.471   4.689
 6136TIP3    H218331   3.037   0.359   4.593
 6137TIP3   OH218332   3.668   0.712   5.977
 6137TIP3    H118333   3.746   0.752   5.934
 6137TIP3    H218334   3.602   0.783   5.962
 6138TIP3   OH218335   2.689   0.336   6.580
 6138TIP3    H118336   2.774   0.300   6.550
 6138TIP3    H218337   2.716   0.383   6.661
 6139TIP3   OH218338   2.748   0.174   5.013
 6139TIP3    H118339   2.724   0.139   5.101
 6139TIP3    H218340   2.789   0.096   4.970
 6140TIP3   OH218341   3.037   0.236   6.244
 6140TIP3    H118342   2.955   0.290   6.245
 6140TIP3    H218343   3.082   0.267   6.162
 6141TIP3   OH218344   2.861  -0.034   4.866
 6141TIP3    H118345   2.838  -0.082   4.785
 6141TIP3    H218346   2.959  -0.032   4.858
 6142TIP3   OH218347   3.543   0.631   6.373
 6142TIP3    H118348   3.622   0.601   6.326
 6142TIP3    H218349   3.537   0.567   6.446
 6143TIP3   OH218350   3.674   0.285   4.520
 6143TIP3    H118351   3.664   0.247   4.431
 6143TIP3    H218352   3.642   0.377   4.501
 6144TIP3   OH218353   3.151   0.033   6.382
 6144TIP3    H118354   3.132  -0.051   6.337
 6144TIP3    H218355   3.109   0.099   6.322
 6145TIP3   OH218356   3.183   0.337   6.040
 6145TIP3    H118357   3.266   0.363   5.998
 6145TIP3    H218358   3.121   0.403   6.001
 6146TIP3   OH218359   3.753   0.300   6.387
 6146TIP3    H118360   3.780   0.263   6.473
 6146TIP3    H218361   3.818   0.371   6.373
 6147TIP3   OH218362   3.796   0.564   6.160
 6147TIP3    H118363   3.734   0.619   6.107
 6147TIP3    H218364   3.881   0.596   6.120
 6148TIP3   OH218365   2.999   0.147   6.593
 6148TIP3    H118366   2.964   0.064   6.629
 6148TIP3    H218367   3.059   0.114   6.524
 6149TIP3   OH218368   3.388   0.118   6.494
 6149TIP3    H118369   3.380   0.093   6.587
 6149TIP3    H218370   3.305   0.081   6.457
 6150TIP3   OH218371   2.727   1.030   4.722
 6150TIP3    H118372   2.725   1.116   4.768
 6150TIP3    H218373   2.634   1.022   4.696
 6151TIP3   OH218374   2.146   0.407   4.968
 6151TIP3    H118375   2.241   0.426   4.958
 6151TIP3    H218376   2.140   0.317   4.930
 6152TIP3   OH218377   2.068   1.013   5.391
 6152TIP3    H118378   1.999   0.955   5.352
 6152TIP3    H218379   2.109   0.953   5.456
 6153TIP3   OH218380   2.201   0.856   5.576
 6153TIP3    H118381   2.185   0.792   5.647
 6153TIP3    H218382   2.252   0.923   5.626
 6154TIP3   OH218383   3.927   1.262   5.379
 6154TIP3    H118384   3.950   1.297   5.468
 6154TIP3    H218385   3.989   1.310   5.322
 6155TIP3   OH218386   3.951   1.285   5.660
 6155TIP3    H118387   3.908   1.197   5.657
 6155TIP3    H218388   4.026   1.265   5.718
 6156TIP3   OH218389   4.002   0.961   6.236
 6156TIP3    H118390   3.929   0.973   6.300
 6156TIP3    H218391   4.043   1.050   6.237
 6157TIP3   OH218392   3.817   0.478   4.849
 6157TIP3    H118393   3.882   0.543   4.818
 6157TIP3    H218394   3.863   0.442   4.929
 6158TIP3   OH218395   3.945   0.348   5.054
 6158TIP3    H118396   3.878   0.313   5.117
 6158TIP3    H218397   4.014   0.383   5.115
 6159TIP3   OH218398   4.001   0.738   5.487
 6159TIP3    H118399   4.054   0.670   5.442
 6159TIP3    H218400   4.000   0.810   5.421
 6160TIP3   OH218401   3.826   1.036   5.680
 6160TIP3    H118402   3.755   1.080   5.730
 6160TIP3    H218403   3.776   0.991   5.608
 6161TIP3   OH218404   3.877   0.254   4.700
 6161TIP3    H118405   3.806   0.260   4.632
 6161TIP3    H218406   3.853   0.332   4.756
 6162TIP3   OH218407   3.746  -0.084   4.648
 6162TIP3    H118408   3.736  -0.019   4.578
 6162TIP3    H218409   3.699  -0.160   4.613
 6163TIP3   OH218410   3.750   0.223   5.200
 6163TIP3    H118411   3.746   0.127   5.182
 6163TIP3    H218412   3.736   0.227   5.298
 6164TIP3   OH218413   2.380   0.279   5.949
 6164TIP3    H118414   2.378   0.242   5.858
 6164TIP3    H218415   2.478   0.279   5.965
 6165TIP3   OH218416   4.029   0.645   6.052
 6165TIP3    H118417   4.103   0.582   6.046
 6165TIP3    H218418   4.055   0.715   5.989
 6166TIP3   OH218419   4.209   0.457   6.096
 6166TIP3    H118420   4.143   0.390   6.121
 6166TIP3    H218421   4.289   0.401   6.105
 6167TIP3   OH218422   3.742  -0.029   5.077
 6167TIP3    H118423   3.794  -0.110   5.095
 6167TIP3    H218424   3.791   0.002   4.999
 6168TIP3   OH218425   3.908   0.106   5.591
 6168TIP3    H118426   3.993   0.128   5.545
 6168TIP3    H218427   3.928   0.142   5.679
 6169TIP3   OH218428   3.971   0.250   5.827
 6169TIP3    H118429   3.889   0.287   5.865
 6169TIP3    H218430   4.004   0.325   5.773
 6170TIP3   OH218431   2.567  -0.011   6.647
 6170TIP3    H118432   2.654  -0.052   6.626
 6170TIP3    H218433   2.519  -0.089   6.678
 6171TIP3   OH218434   2.371  -0.071   6.018
 6171TIP3    H118435   2.427  -0.066   5.937
 6171TIP3    H218436   2.399   0.007   6.067
 6172TIP3   OH218437   3.500   1.135   5.029
 6172TIP3    H118438   3.559   1.128   4.950
 6172TIP3    H218439   3.548   1.199   5.084
 6173TIP3   OH218440   2.609   0.935   6.413
 6173TIP3    H118441   2.514   0.915   6.401
 6173TIP3    H218442   2.619   0.927   6.509
 6174TIP3   OH218443   2.790   0.973   5.963
 6174TIP3    H118444   2.741   1.050   5.926
 6174TIP3    H218445   2.876   0.988   5.918
 6175TIP3   OH218446   3.227   1.213   6.100
 6175TIP3    H118447   3.268   1.214   6.189
 6175TIP3    H218448   3.292   1.266   6.049
 6176TIP3   OH218449   3.408   1.368   5.966
 6176TIP3    H118450   3.482   1.321   5.924
 6176TIP3    H218451   3.458   1.427   6.027
 6177TIP3   OH218452   2.462   1.225   5.996
 6177TIP3    H118453   2.370   1.253   5.973
 6177TIP3    H218454   2.481   1.285   6.069
 6178TIP3   OH218455   2.696   1.204   5.848
 6178TIP3    H118456   2.609   1.217   5.892
 6178TIP3    H218457   2.678   1.240   5.759
 6179TIP3   OH218458   3.124   1.231   5.645
 6179TIP3    H118459   3.054   1.253   5.582
 6179TIP3    H218460   3.137   1.318   5.690
 6180TIP3   OH218461   3.394   1.169   5.697
 6180TIP3    H118462   3.300   1.191   5.680
 6180TIP3    H218463   3.439   1.245   5.657
 6181TIP3   OH218464   3.595   1.359   5.610
 6181TIP3    H118465   3.584   1.446   5.565
 6181TIP3    H218466   3.624   1.302   5.536
 6182TIP3   OH218467   2.374   1.019   5.730
 6182TIP3    H118468   2.397   0.992   5.821
 6182TIP3    H218469   2.449   0.977   5.681
 6183TIP3   OH218470   2.572   0.893   5.592
 6183TIP3    H118471   2.585   0.809   5.643
 6183TIP3    H218472   2.663   0.929   5.592
 6184TIP3   OH218473   2.837   0.982   5.600
 6184TIP3    H118474   2.867   0.889   5.595
 6184TIP3    H218475   2.886   1.010   5.680
 6185TIP3   OH218476   2.164   0.798   5.117
 6185TIP3    H118477   2.076   0.767   5.088
 6185TIP3    H218478   2.154   0.893   5.098
 6186TIP3   OH218479   3.654   1.102   4.801
 6186TIP3    H118480   3.644   1.004   4.790
 6186TIP3    H218481   3.609   1.134   4.720
 6187TIP3   OH218482   2.239   0.818   4.763
 6187TIP3    H118483   2.224   0.837   4.857
 6187TIP3    H218484   2.324   0.770   4.765
 6188TIP3   OH218485   3.877   1.242   5.986
 6188TIP3    H118486   3.798   1.213   5.936
 6188TIP3    H218487   3.859   1.338   5.993
 6189TIP3   OH218488   5.145   0.616   4.749
 6189TIP3    H118489   5.115   0.707   4.728
 6189TIP3    H218490   5.069   0.565   4.716
 6190TIP3   OH218491   5.145   0.620   5.138
 6190TIP3    H118492   5.178   0.592   5.226
 6190TIP3    H218493   5.108   0.538   5.103
 6191TIP3   OH218494   4.441   0.514   5.499
 6191TIP3    H118495   4.474   0.442   5.556
 6191TIP3    H218496   4.523   0.562   5.483
 6192TIP3   OH218497   5.391   0.920   4.820
 6192TIP3    H118498   5.376   0.852   4.886
 6192TIP3    H218499   5.425   0.994   4.873
 6193TIP3   OH218500   4.419   0.921   5.220
 6193TIP3    H118501   4.410   0.823   5.222
 6193TIP3    H218502   4.516   0.930   5.212
 6194TIP3   OH218503   4.107   0.121   5.003
 6194TIP3    H118504   4.065   0.208   5.021
 6194TIP3    H218505   4.028   0.066   4.989
 6195TIP3   OH218506   4.180   0.411   5.184
 6195TIP3    H118507   4.230   0.334   5.220
 6195TIP3    H218508   4.245   0.450   5.124
 6196TIP3   OH218509   5.046   1.381   4.837
 6196TIP3    H118510   5.084   1.313   4.778
 6196TIP3    H218511   5.031   1.331   4.918
 6197TIP3   OH218512   4.942   0.843   5.184
 6197TIP3    H118513   4.982   0.766   5.140
 6197TIP3    H218514   5.025   0.891   5.208
 6198TIP3   OH218515   5.357   0.329   5.223
 6198TIP3    H118516   5.388   0.237   5.217
 6198TIP3    H218517   5.314   0.335   5.135
 6199TIP3   OH218518   5.366   0.145   4.802
 6199TIP3    H118519   5.459   0.114   4.804
 6199TIP3    H218520   5.353   0.160   4.707
 6200TIP3   OH218521   4.333   0.209   5.287
 6200TIP3    H118522   4.420   0.189   5.328
 6200TIP3    H218523   4.348   0.167   5.199
 6201TIP3   OH218524   4.767   0.403   5.089
 6201TIP3    H118525   4.862   0.380   5.100
 6201TIP3    H218526   4.730   0.317   5.058
 6202TIP3   OH218527   6.046   0.450   5.306
 6202TIP3    H118528   5.951   0.471   5.311
 6202TIP3    H218529   6.052   0.375   5.368
 6203TIP3   OH218530   5.026   0.833   4.623
 6203TIP3    H118531   4.994   0.826   4.532
 6203TIP3    H218532   4.984   0.917   4.651
 6204TIP3   OH218533   4.800   0.762   5.406
 6204TIP3    H118534   4.740   0.831   5.441
 6204TIP3    H218535   4.842   0.808   5.331
 6205TIP3   OH218536   4.581   0.122   5.363
 6205TIP3    H118537   4.650   0.181   5.399
 6205TIP3    H218538   4.635   0.055   5.318
 6206TIP3   OH218539   4.629   0.960   5.506
 6206TIP3    H118540   4.603   1.047   5.469
 6206TIP3    H218541   4.549   0.941   5.559
 6207TIP3   OH218542   4.014   0.649   4.741
 6207TIP3    H118543   3.978   0.678   4.655
 6207TIP3    H218544   4.048   0.734   4.778
 6208TIP3   OH218545   5.456   1.166   4.982
 6208TIP3    H118546   5.366   1.157   5.021
 6208TIP3    H218547   5.448   1.251   4.934
 6209TIP3   OH218548   5.155   1.210   4.650
 6209TIP3    H118549   5.204   1.126   4.632
 6209TIP3    H218550   5.221   1.274   4.614
 6210TIP3   OH218551   5.297   0.992   4.570
 6210TIP3    H118552   5.277   0.911   4.522
 6210TIP3    H218553   5.336   0.957   4.653
 6211TIP3   OH218554   5.679   1.078   5.323
 6211TIP3    H118555   5.669   0.998   5.266
 6211TIP3    H218556   5.665   1.150   5.259
 6212TIP3   OH218557   4.972   0.475   4.584
 6212TIP3    H118558   4.892   0.529   4.564
 6212TIP3    H218559   5.017   0.473   4.498
 6213TIP3   OH218560   4.933   0.256   4.294
 6213TIP3    H118561   4.996   0.313   4.342
 6213TIP3    H218562   4.989   0.179   4.274
 6214TIP3   OH218563   5.869   0.710   5.168
 6214TIP3    H118564   5.790   0.768   5.172
 6214TIP3    H218565   5.905   0.735   5.080
 6215TIP3   OH218566   5.321   0.553   4.549
 6215TIP3    H118567   5.266   0.573   4.628
 6215TIP3    H218568   5.406   0.533   4.593
 6216TIP3   OH218569   5.549   0.604   5.468
 6216TIP3    H118570   5.550   0.687   5.520
 6216TIP3    H218571   5.463   0.611   5.424
 6217TIP3   OH218572   4.557   0.547   4.974
 6217TIP3    H118573   4.517   0.490   4.906
 6217TIP3    H218574   4.633   0.493   5.005
 6218TIP3   OH218575   4.685   0.960   5.119
 6218TIP3    H118576   4.666   0.928   5.029
 6218TIP3    H218577   4.774   0.922   5.135
 6219TIP3   OH218578   4.689   0.518   5.332
 6219TIP3    H118579   4.720   0.490   5.243
 6219TIP3    H218580   4.735   0.604   5.345
 6220TIP3   OH218581   5.216   1.162   5.108
 6220TIP3    H118582   5.205   1.236   5.169
 6220TIP3    H218583   5.201   1.083   5.165
 6221TIP3   OH218584   4.831   1.076   5.652
 6221TIP3    H118585   4.768   1.136   5.697
 6221TIP3    H218586   4.768   1.022   5.599
 6222TIP3   OH218587   5.149   0.424   4.374
 6222TIP3    H118588   5.210   0.482   4.425
 6222TIP3    H218589   5.181   0.440   4.282
 6223TIP3   OH218590   4.589   0.628   5.759
 6223TIP3    H118591   4.592   0.717   5.799
 6223TIP3    H218592   4.494   0.609   5.766
 6224TIP3   OH218593   4.909   1.087   4.659
 6224TIP3    H118594   4.993   1.137   4.662
 6224TIP3    H218595   4.851   1.146   4.610
 6225TIP3   OH218596   4.625   1.241   5.739
 6225TIP3    H118597   4.589   1.245   5.649
 6225TIP3    H218598   4.544   1.218   5.792
 6226TIP3   OH218599   4.426   0.393   4.776
 6226TIP3    H118600   4.354   0.431   4.723
 6226TIP3    H218601   4.394   0.304   4.794
 6227TIP3   OH218602   5.483   1.016   3.976
 6227TIP3    H118603   5.489   1.113   3.960
 6227TIP3    H218604   5.577   0.990   3.968
 6228TIP3   OH218605   4.203   0.774   5.687
 6228TIP3    H118606   4.137   0.754   5.617
 6228TIP3    H218607   4.240   0.686   5.707
 6229TIP3   OH218608   4.058   0.968   5.316
 6229TIP3    H118609   4.154   0.964   5.309
 6229TIP3    H218610   4.046   1.047   5.371
 6230TIP3   OH218611   5.916   1.422   5.372
 6230TIP3    H118612   5.921   1.325   5.389
 6230TIP3    H218613   5.835   1.444   5.422
 6231TIP3   OH218614   5.028   1.202   5.510
 6231TIP3    H118615   5.022   1.295   5.540
 6231TIP3    H218616   4.955   1.162   5.562
 6232TIP3   OH218617   4.790   1.327   4.461
 6232TIP3    H118618   4.748   1.310   4.375
 6232TIP3    H218619   4.757   1.415   4.484
 6233TIP3   OH218620   4.227   1.181   4.847
 6233TIP3    H118621   4.276   1.173   4.932
 6233TIP3    H218622   4.175   1.099   4.848
 6234TIP3   OH218623   4.980   1.195   4.118
 6234TIP3    H118624   5.006   1.234   4.031
 6234TIP3    H218625   5.049   1.228   4.178
 6235TIP3   OH218626   5.050   1.298   4.384
 6235TIP3    H118627   4.957   1.299   4.415
 6235TIP3    H218628   5.093   1.248   4.454
 6236TIP3   OH218629   5.805   0.525   5.638
 6236TIP3    H118630   5.731   0.581   5.611
 6236TIP3    H218631   5.814   0.467   5.561
 6237TIP3   OH218632   4.408   0.957   5.667
 6237TIP3    H118633   4.456   0.942   5.751
 6237TIP3    H218634   4.334   0.894   5.675
 6238TIP3   OH218635   5.558   0.346   5.571
 6238TIP3    H118636   5.563   0.383   5.660
 6238TIP3    H218637   5.549   0.428   5.518
 6239TIP3   OH218638   5.246   0.436   4.121
 6239TIP3    H118639   5.205   0.428   4.032
 6239TIP3    H218640   5.319   0.498   4.102
 6240TIP3   OH218641   4.760   0.300   5.483
 6240TIP3    H118642   4.700   0.313   5.559
 6240TIP3    H218643   4.740   0.380   5.430
 6241TIP3   OH218644   4.643   0.178   4.993
 6241TIP3    H118645   4.550   0.160   5.015
 6241TIP3    H218646   4.645   0.154   4.898
 6242TIP3   OH218647   5.095   0.279   4.727
 6242TIP3    H118648   5.047   0.351   4.679
 6242TIP3    H218649   5.162   0.255   4.661
 6243TIP3   OH218650   5.285   0.548   5.793
 6243TIP3    H118651   5.256   0.488   5.867
 6243TIP3    H218652   5.379   0.561   5.815
 6244TIP3   OH218653   5.251   0.329   4.969
 6244TIP3    H118654   5.196   0.358   4.894
 6244TIP3    H218655   5.288   0.246   4.928
 6245TIP3   OH218656   4.557   0.333   5.677
 6245TIP3    H118657   4.585   0.394   5.746
 6245TIP3    H218658   4.494   0.275   5.723
 6246TIP3   OH218659   4.150  -0.094   4.785
 6246TIP3    H118660   4.164  -0.057   4.695
 6246TIP3    H218661   4.102  -0.021   4.827
 6247TIP3   OH218662   5.276   0.537   5.375
 6247TIP3    H118663   5.314   0.467   5.318
 6247TIP3    H218664   5.252   0.484   5.454
 6248TIP3   OH218665   4.380   0.101   5.040
 6248TIP3    H118666   4.284   0.098   5.017
 6248TIP3    H218667   4.401   0.006   5.054
 6249TIP3   OH218668   4.667   0.078   4.741
 6249TIP3    H118669   4.757   0.070   4.705
 6249TIP3    H218670   4.611   0.073   4.660
 6250TIP3   OH218671   4.496   0.082   4.517
 6250TIP3    H118672   4.428   0.045   4.458
 6250TIP3    H218673   4.553   0.127   4.452
 6251TIP3   OH218674   5.612   1.775   5.469
 6251TIP3    H118675   5.618   1.791   5.373
 6251TIP3    H218676   5.695   1.817   5.500
 6252TIP3   OH218677   4.570   0.880   5.893
 6252TIP3    H118678   4.650   0.909   5.941
 6252TIP3    H218679   4.504   0.880   5.965
 6253TIP3   OH218680   5.029   0.329   5.151
 6253TIP3    H118681   5.105   0.300   5.098
 6253TIP3    H218682   5.039   0.277   5.233
 6254TIP3   OH218683   5.030   0.227   5.449
 6254TIP3    H118684   4.936   0.253   5.459
 6254TIP3    H218685   5.076   0.300   5.494
 6255TIP3   OH218686   4.741   0.622   4.531
 6255TIP3    H118687   4.668   0.557   4.519
 6255TIP3    H218688   4.722   0.656   4.622
 6256TIP3   OH218689   5.640   0.862   5.159
 6256TIP3    H118690   5.668   0.910   5.078
 6256TIP3    H218691   5.557   0.818   5.130
 6257TIP3   OH218692   5.126   0.015   4.371
 6257TIP3    H118693   5.126  -0.079   4.404
 6257TIP3    H218694   5.223   0.017   4.342
 6258TIP3   OH218695   5.146   0.940   5.530
 6258TIP3    H118696   5.172   0.920   5.620
 6258TIP3    H218697   5.104   1.027   5.537
 6259TIP3   OH218698   5.272   0.225   4.535
 6259TIP3    H118699   5.370   0.222   4.518
 6259TIP3    H218700   5.241   0.283   4.466
 6260TIP3   OH218701   4.439   0.643   5.206
 6260TIP3    H118702   4.478   0.615   5.120
 6260TIP3    H218703   4.485   0.585   5.268
 6261TIP3   OH218704   4.894   0.769   4.357
 6261TIP3    H118705   4.845   0.855   4.359
 6261TIP3    H218706   4.838   0.716   4.418
 6262TIP3   OH218707   4.323   0.559   5.822
 6262TIP3    H118708   4.345   0.550   5.916
 6262TIP3    H218709   4.261   0.486   5.808
 6263TIP3   OH218710   5.045   0.682   5.839
 6263TIP3    H118711   4.981   0.617   5.806
 6263TIP3    H218712   5.130   0.644   5.808
 6264TIP3   OH218713   5.302   1.207   5.426
 6264TIP3    H118714   5.207   1.198   5.441
 6264TIP3    H218715   5.329   1.258   5.505
 6265TIP3   OH218716   5.694   0.281   4.336
 6265TIP3    H118717   5.637   0.235   4.271
 6265TIP3    H218718   5.697   0.371   4.295
 6266TIP3   OH218719   5.929   1.137   5.411
 6266TIP3    H118720   5.832   1.131   5.399
 6266TIP3    H218721   5.959   1.104   5.323
 6267TIP3   OH218722   5.424   1.089   4.243
 6267TIP3    H118723   5.386   1.019   4.298
 6267TIP3    H218724   5.428   1.047   4.155
 6268TIP3   OH218725   5.407   0.725   5.077
 6268TIP3    H118726   5.314   0.698   5.088
 6268TIP3    H218727   5.443   0.646   5.031
 6269TIP3   OH218728   4.544   0.951   4.839
 6269TIP3    H118729   4.542   1.030   4.781
 6269TIP3    H218730   4.450   0.931   4.846
 6270TIP3   OH218731   4.097   0.265   4.529
 6270TIP3    H118732   4.147   0.345   4.556
 6270TIP3    H218733   4.025   0.265   4.596
 6271TIP3   OH218734   4.669   0.710   4.775
 6271TIP3    H118735   4.639   0.801   4.796
 6271TIP3    H218736   4.636   0.660   4.852
 6272TIP3   OH218737   4.811   1.290   5.301
 6272TIP3    H118738   4.852   1.364   5.251
 6272TIP3    H218739   4.888   1.251   5.345
 6273TIP3   OH218740   4.458   1.186   4.686
 6273TIP3    H118741   4.373   1.197   4.732
 6273TIP3    H218742   4.492   1.279   4.688
 6274TIP3   OH218743   5.195   0.927   5.261
 6274TIP3    H118744   5.186   0.924   5.359
 6274TIP3    H218745   5.273   0.871   5.247
 6275TIP3   OH218746   5.166   0.787   4.150
 6275TIP3    H118747   5.221   0.779   4.231
 6275TIP3    H218748   5.077   0.792   4.188
 6276TIP3   OH218749   5.443   1.462   5.316
 6276TIP3    H118750   5.366   1.402   5.310
 6276TIP3    H218751   5.427   1.522   5.240
 6277TIP3   OH218752   5.508   1.291   3.954
 6277TIP3    H118753   5.537   1.365   3.898
 6277TIP3    H218754   5.428   1.331   3.992
 6278TIP3   OH218755   5.337   0.757   4.367
 6278TIP3    H118756   5.327   0.688   4.435
 6278TIP3    H218757   5.433   0.752   4.350
 6279TIP3   OH218758   4.248   1.151   5.459
 6279TIP3    H118759   4.304   1.083   5.499
 6279TIP3    H218760   4.271   1.228   5.513
 6280TIP3   OH218761   4.533   0.796   4.146
 6280TIP3    H118762   4.550   0.703   4.122
 6280TIP3    H218763   4.513   0.787   4.242
 6281TIP3   OH218764   4.479   0.804   4.420
 6281TIP3    H118765   4.558   0.778   4.469
 6281TIP3    H218766   4.483   0.902   4.426
 6282TIP3   OH218767   4.214   0.496   4.624
 6282TIP3    H118768   4.148   0.544   4.680
 6282TIP3    H218769   4.231   0.564   4.556
 6283TIP3   OH218770   4.750   0.997   4.365
 6283TIP3    H118771   4.663   1.027   4.397
 6283TIP3    H218772   4.772   1.069   4.304
 6284TIP3   OH218773   4.963   0.052   4.788
 6284TIP3    H118774   5.009   0.133   4.756
 6284TIP3    H218775   4.956   0.072   4.882
 6285TIP3   OH218776   5.221   0.376   5.592
 6285TIP3    H118777   5.228   0.448   5.658
 6285TIP3    H218778   5.253   0.301   5.645
 6286TIP3   OH218779   4.494   1.076   4.434
 6286TIP3    H118780   4.465   1.147   4.373
 6286TIP3    H218781   4.480   1.119   4.521
 6287TIP3   OH218782   5.490   0.486   4.957
 6287TIP3    H118783   5.414   0.427   4.969
 6287TIP3    H218784   5.563   0.437   5.003
 6288TIP3   OH218785   4.212   0.700   4.425
 6288TIP3    H118786   4.284   0.765   4.435
 6288TIP3    H218787   4.254   0.641   4.359
 6289TIP3   OH218788   4.136  -0.005   4.534
 6289TIP3    H118789   4.143   0.092   4.527
 6289TIP3    H218790   4.075  -0.025   4.462
 6290TIP3   OH218791   5.465   1.438   4.904
 6290TIP3    H118792   5.423   1.488   4.831
 6290TIP3    H218793   5.560   1.455   4.884
 6291TIP3   OH218794   4.074   0.914   4.808
 6291TIP3    H118795   4.015   0.948   4.877
 6291TIP3    H218796   4.041   0.961   4.728
 6292TIP3   OH218797   4.241   1.469   5.883
 6292TIP3    H118798   4.327   1.469   5.931
 6292TIP3    H218799   4.221   1.374   5.883
 6293TIP3   OH218800   4.717   1.421   5.930
 6293TIP3    H118801   4.811   1.401   5.933
 6293TIP3    H218802   4.688   1.360   5.859
 6294TIP3   OH218803   4.690   1.002   4.052
 6294TIP3    H118804   4.643   0.924   4.090
 6294TIP3    H218805   4.774   0.962   4.024
 6295TIP3   OH218806   5.353   1.339   5.665
 6295TIP3    H118807   5.351   1.265   5.731
 6295TIP3    H218808   5.434   1.387   5.691
 6296TIP3   OH218809   4.366   0.870   6.082
 6296TIP3    H118810   4.376   0.774   6.094
 6296TIP3    H218811   4.280   0.875   6.035
 6297TIP3   OH218812   4.346   0.512   4.283
 6297TIP3    H118813   4.405   0.485   4.355
 6297TIP3    H218814   4.412   0.519   4.210
 6298TIP3   OH218815   4.976   0.958   5.858
 6298TIP3    H118816   4.933   0.977   5.772
 6298TIP3    H218817   5.006   0.865   5.847
 6299TIP3   OH218818   4.854   0.716   4.089
 6299TIP3    H118819   4.862   0.728   4.185
 6299TIP3    H218820   4.857   0.618   4.082
 6300TIP3   OH218821   5.466   0.970   5.467
 6300TIP3    H118822   5.544   1.008   5.422
 6300TIP3    H218823   5.398   1.037   5.446
 6301TIP3   OH218824   4.493   0.595   6.064
 6301TIP3    H118825   4.578   0.558   6.037
 6301TIP3    H218826   4.518   0.642   6.147
 6302TIP3   OH218827   4.546   0.426   4.497
 6302TIP3    H118828   4.527   0.387   4.583
 6302TIP3    H218829   4.587   0.350   4.449
 6303TIP3   OH218830   4.833   0.494   5.732
 6303TIP3    H118831   4.751   0.547   5.731
 6303TIP3    H218832   4.878   0.524   5.650
 6304TIP3   OH218833   4.655   0.222   4.342
 6304TIP3    H118834   4.630   0.227   4.247
 6304TIP3    H218835   4.752   0.222   4.334
 6305TIP3   OH218836   5.346   0.890   5.861
 6305TIP3    H118837   5.417   0.850   5.809
 6305TIP3    H218838   5.336   0.825   5.933
 6306TIP3   OH218839   5.477   0.548   4.004
 6306TIP3    H118840   5.452   0.511   3.917
 6306TIP3    H218841   5.442   0.640   3.990
 6307TIP3   OH218842   4.943   0.287   5.870
 6307TIP3    H118843   4.929   0.204   5.823
 6307TIP3    H218844   4.904   0.354   5.809
 6308TIP3   OH218845   4.979   0.595   5.528
 6308TIP3    H118846   5.062   0.615   5.482
 6308TIP3    H218847   4.918   0.660   5.487
 6309TIP3   OH218848   5.548   0.558   5.873
 6309TIP3    H118849   5.577   0.518   5.957
 6309TIP3    H218850   5.620   0.619   5.853
 6310TIP3   OH218851   5.595   0.823   5.652
 6310TIP3    H118852   5.533   0.877   5.597
 6310TIP3    H218853   5.679   0.850   5.609
 6311TIP3   OH218854   4.792   0.403   6.079
 6311TIP3    H118855   4.763   0.321   6.120
 6311TIP3    H218856   4.852   0.371   6.010
 6312TIP3   OH218857   5.182   0.379   5.973
 6312TIP3    H118858   5.191   0.360   6.068
 6312TIP3    H218859   5.097   0.335   5.950
 6313TIP3   OH218860   4.461   1.279   4.248
 6313TIP3    H118861   4.557   1.269   4.231
 6313TIP3    H218862   4.437   1.332   4.170
 6314TIP3   OH218863   3.943   0.661   4.460
 6314TIP3    H118864   4.038   0.683   4.446
 6314TIP3    H218865   3.937   0.572   4.418
 6315TIP3   OH218866   3.861   1.270   4.880
 6315TIP3    H118867   3.795   1.210   4.839
 6315TIP3    H218868   3.904   1.210   4.943
 6316TIP3   OH218869   3.994   1.114   5.064
 6316TIP3    H118870   3.982   1.047   5.134
 6316TIP3    H218871   4.046   1.180   5.114
 6317TIP3   OH218872   5.722   1.524   4.867
 6317TIP3    H118873   5.754   1.556   4.953
 6317TIP3    H218874   5.787   1.560   4.805
 6318TIP3   OH218875   5.752   1.543   5.153
 6318TIP3    H118876   5.705   1.458   5.143
 6318TIP3    H218877   5.826   1.514   5.209
 6319TIP3   OH218878   5.793   1.234   5.714
 6319TIP3    H118879   5.723   1.241   5.780
 6319TIP3    H218880   5.842   1.318   5.725
 6320TIP3   OH218881   5.614   0.728   4.336
 6320TIP3    H118882   5.676   0.798   4.306
 6320TIP3    H218883   5.661   0.696   4.416
 6321TIP3   OH218884   5.747   0.603   4.543
 6321TIP3    H118885   5.678   0.570   4.605
 6321TIP3    H218886   5.814   0.643   4.602
 6322TIP3   OH218887   5.794   0.994   4.972
 6322TIP3    H118888   5.849   0.925   4.930
 6322TIP3    H218889   5.796   1.065   4.905
 6323TIP3   OH218890   5.622   1.297   5.164
 6323TIP3    H118891   5.548   1.331   5.216
 6323TIP3    H218892   5.577   1.249   5.091
 6324TIP3   OH218893   5.676   0.509   4.182
 6324TIP3    H118894   5.604   0.518   4.115
 6324TIP3    H218895   5.651   0.584   4.241
 6325TIP3   OH218896   5.549   0.162   4.132
 6325TIP3    H118897   5.530   0.239   4.077
 6325TIP3    H218898   5.483   0.099   4.100
 6326TIP3   OH218899   5.548   0.480   4.688
 6326TIP3    H118900   5.541   0.384   4.668
 6326TIP3    H218901   5.533   0.483   4.785
 6327TIP3   OH218902   4.176   0.532   5.436
 6327TIP3    H118903   4.174   0.496   5.345
 6327TIP3    H218904   4.274   0.533   5.453
 6328TIP3   OH218905   5.820   0.894   5.522
 6328TIP3    H118906   5.896   0.831   5.524
 6328TIP3    H218907   5.855   0.966   5.466
 6329TIP3   OH218908   6.002   0.713   5.586
 6329TIP3    H118909   5.938   0.644   5.613
 6329TIP3    H218910   6.084   0.660   5.592
 6330TIP3   OH218911   5.545   0.230   4.562
 6330TIP3    H118912   5.591   0.147   4.584
 6330TIP3    H218913   5.597   0.256   4.483
 6331TIP3   OH218914   5.705   0.363   5.077
 6331TIP3    H118915   5.790   0.385   5.031
 6331TIP3    H218916   5.725   0.398   5.166
 6332TIP3   OH218917   5.768   0.505   5.314
 6332TIP3    H118918   5.686   0.543   5.352
 6332TIP3    H218919   5.800   0.581   5.260
 6333TIP3   OH218920   4.362   0.244   6.144
 6333TIP3    H118921   4.450   0.208   6.117
 6333TIP3    H218922   4.318   0.161   6.165
 6334TIP3   OH218923   4.149   0.197   5.495
 6334TIP3    H118924   4.210   0.197   5.419
 6334TIP3    H218925   4.187   0.266   5.551
 6335TIP3   OH218926   5.313   1.393   4.528
 6335TIP3    H118927   5.353   1.374   4.441
 6335TIP3    H218928   5.371   1.463   4.560
 6336TIP3   OH218929   4.405   1.195   5.903
 6336TIP3    H118930   4.311   1.173   5.887
 6336TIP3    H218931   4.413   1.178   5.998
 6337TIP3   OH218932   4.586   1.232   5.453
 6337TIP3    H118933   4.537   1.307   5.414
 6337TIP3    H218934   4.671   1.245   5.407
 6338TIP3   OH218935   5.024   1.470   5.587
 6338TIP3    H118936   5.064   1.468   5.677
 6338TIP3    H218937   5.091   1.522   5.538
 6339TIP3   OH218938   5.208   1.624   5.453
 6339TIP3    H118939   5.260   1.570   5.391
 6339TIP3    H218940   5.277   1.660   5.511
 6340TIP3   OH218941   4.259   1.483   5.480
 6340TIP3    H118942   4.168   1.512   5.456
 6340TIP3    H218943   4.273   1.536   5.559
 6341TIP3   OH218944   4.496   1.465   5.337
 6341TIP3    H118945   4.408   1.476   5.380
 6341TIP3    H218946   4.477   1.497   5.247
 6342TIP3   OH218947   4.919   1.491   5.135
 6342TIP3    H118948   4.850   1.502   5.067
 6342TIP3    H218949   4.927   1.581   5.170
 6343TIP3   OH218950   5.188   1.438   5.195
 6343TIP3    H118951   5.094   1.449   5.168
 6343TIP3    H218952   5.233   1.495   5.132
 6344TIP3   OH218953   5.397   1.623   5.096
 6344TIP3    H118954   5.379   1.705   5.046
 6344TIP3    H218955   5.424   1.561   5.024
 6345TIP3   OH218956   4.169   1.276   5.218
 6345TIP3    H118957   4.195   1.247   5.308
 6345TIP3    H218958   4.242   1.234   5.167
 6346TIP3   OH218959   4.366   1.150   5.080
 6346TIP3    H118960   4.381   1.066   5.130
 6346TIP3    H218961   4.458   1.185   5.076
 6347TIP3   OH218962   4.633   1.241   5.085
 6347TIP3    H118963   4.663   1.149   5.074
 6347TIP3    H218964   4.681   1.263   5.167
 6348TIP3   OH218965   3.956   1.056   4.611
 6348TIP3    H118966   3.870   1.024   4.577
 6348TIP3    H218967   3.950   1.149   4.584
 6349TIP3   OH218968   4.726   1.232   4.199
 6349TIP3    H118969   4.820   1.240   4.169
 6349TIP3    H218970   4.699   1.162   4.134
 6350TIP3   OH218971   5.452   1.356   4.293
 6350TIP3    H118972   5.446   1.259   4.277
 6350TIP3    H218973   5.409   1.390   4.211
 6351TIP3   OH218974   4.033   1.068   4.247
 6351TIP3    H118975   4.042   1.093   4.340
 6351TIP3    H218976   4.120   1.026   4.229
 6352TIP3   OH218977   5.668   1.503   5.479
 6352TIP3    H118978   5.593   1.472   5.423
 6352TIP3    H218979   5.653   1.599   5.477
 6353TIP3   OH218980   6.944   0.873   4.235
 6353TIP3    H118981   6.914   0.964   4.214
 6353TIP3    H218982   6.864   0.824   4.211
 6354TIP3   OH218983   6.952   0.872   4.619
 6354TIP3    H118984   6.973   0.845   4.710
 6354TIP3    H218985   6.898   0.797   4.588
 6355TIP3   OH218986   6.236   0.772   4.984
 6355TIP3    H118987   6.280   0.709   5.044
 6355TIP3    H218988   6.310   0.796   4.925
 6356TIP3   OH218989   7.188   1.179   4.306
 6356TIP3    H118990   7.169   1.112   4.372
 6356TIP3    H218991   7.219   1.254   4.359
 6357TIP3   OH218992   6.207   1.188   4.720
 6357TIP3    H118993   6.208   1.099   4.678
 6357TIP3    H218994   6.304   1.201   4.724
 6358TIP3   OH218995   5.907   0.379   4.491
 6358TIP3    H118996   5.866   0.466   4.511
 6358TIP3    H218997   5.827   0.324   4.485
 6359TIP3   OH218998   5.987   0.679   4.670
 6359TIP3    H118999   6.036   0.598   4.699
 6359TIP3    H219000   6.058   0.731   4.628
 6360TIP3   OH219001   6.838   1.633   4.324
 6360TIP3    H119002   6.879   1.566   4.266
 6360TIP3    H219003   6.836   1.587   4.409
 6361TIP3   OH219004   6.733   1.106   4.676
 6361TIP3    H119005   6.760   1.031   4.621
 6361TIP3    H219006   6.821   1.144   4.697
 6362TIP3   OH219007   7.155   0.582   4.711
 6362TIP3    H119008   7.178   0.488   4.696
 6362TIP3    H219009   7.111   0.599   4.625
 6363TIP3   OH219010   7.163   0.400   4.286
 6363TIP3    H119011   7.256   0.370   4.291
 6363TIP3    H219012   7.152   0.417   4.191
 6364TIP3   OH219013   6.127   0.461   4.764
 6364TIP3    H119014   6.215   0.444   4.806
 6364TIP3    H219015   6.141   0.415   4.679
 6365TIP3   OH219016   6.586   0.654   4.550
 6365TIP3    H119017   6.674   0.631   4.585
 6365TIP3    H219018   6.541   0.569   4.545
 6366TIP3   OH219019   7.842   0.706   4.796
 6366TIP3    H119020   7.747   0.730   4.800
 6366TIP3    H219021   7.845   0.629   4.856
 6367TIP3   OH219022   6.833   1.094   4.104
 6367TIP3    H119023   6.788   1.081   4.019
 6367TIP3    H219024   6.787   1.176   4.135
 6368TIP3   OH219025   6.598   1.019   4.899
 6368TIP3    H119026   6.535   1.087   4.932
 6368TIP3    H219027   6.636   1.063   4.820
 6369TIP3   OH219028   6.376   0.376   4.849
 6369TIP3    H119029   6.440   0.439   4.887
 6369TIP3    H219030   6.434   0.313   4.805
 6370TIP3   OH219031   6.424   1.216   4.996
 6370TIP3    H119032   6.397   1.302   4.958
 6370TIP3    H219033   6.345   1.196   5.050
 6371TIP3   OH219034   5.811   0.905   4.228
 6371TIP3    H119035   5.772   0.935   4.145
 6371TIP3    H219036   5.844   0.990   4.266
 6372TIP3   OH219037   7.253   1.422   4.467
 6372TIP3    H119038   7.163   1.413   4.507
 6372TIP3    H219039   7.245   1.508   4.422
 6373TIP3   OH219040   6.954   1.465   4.139
 6373TIP3    H119041   7.004   1.382   4.121
 6373TIP3    H219042   7.017   1.530   4.099
 6374TIP3   OH219043   7.098   1.248   4.055
 6374TIP3    H119044   7.051   1.170   4.025
 6374TIP3    H219045   7.139   1.217   4.138
 6375TIP3   OH219046   7.480   1.332   4.812
 6375TIP3    H119047   7.466   1.254   4.753
 6375TIP3    H219048   7.460   1.406   4.752
 6376TIP3   OH219049   6.766   0.727   4.070
 6376TIP3    H119050   6.688   0.786   4.053
 6376TIP3    H219051   6.812   0.729   3.985
 6377TIP3   OH219052   6.730   0.512   3.780
 6377TIP3    H119053   6.793   0.569   3.828
 6377TIP3    H219054   6.784   0.433   3.765
 6378TIP3   OH219055   7.668   0.969   4.656
 6378TIP3    H119056   7.587   1.025   4.659
 6378TIP3    H219057   7.702   0.994   4.567
 6379TIP3   OH219058   7.117   0.808   4.035
 6379TIP3    H119059   7.062   0.830   4.114
 6379TIP3    H219060   7.203   0.790   4.080
 6380TIP3   OH219061   7.346   0.860   4.953
 6380TIP3    H119062   7.345   0.943   5.004
 6380TIP3    H219063   7.257   0.864   4.910
 6381TIP3   OH219064   6.475   1.220   4.607
 6381TIP3    H119065   6.432   1.139   4.571
 6381TIP3    H219066   6.566   1.186   4.621
 6382TIP3   OH219067   6.488   0.773   4.825
 6382TIP3    H119068   6.471   0.777   4.729
 6382TIP3    H219069   6.529   0.861   4.840
 6383TIP3   OH219070   7.013   1.415   4.591
 6383TIP3    H119071   7.002   1.494   4.647
 6383TIP3    H219072   6.996   1.341   4.653
 6384TIP3   OH219073   6.629   1.333   5.139
 6384TIP3    H119074   6.567   1.393   5.186
 6384TIP3    H219075   6.566   1.278   5.088
 6385TIP3   OH219076   6.946   0.681   3.861
 6385TIP3    H119077   7.007   0.739   3.911
 6385TIP3    H219078   6.977   0.698   3.768
 6386TIP3   OH219079   6.389   0.880   5.253
 6386TIP3    H119080   6.392   0.970   5.293
 6386TIP3    H219081   6.293   0.867   5.246
 6387TIP3   OH219082   6.710   1.339   4.139
 6387TIP3    H119083   6.790   1.394   4.148
 6387TIP3    H219084   6.646   1.401   4.103
 6388TIP3   OH219085   6.420   1.496   5.227
 6388TIP3    H119086   6.385   1.496   5.136
 6388TIP3    H219087   6.340   1.477   5.280
 6389TIP3   OH219088   6.189   0.556   4.218
 6389TIP3    H119089   6.149   0.639   4.184
 6389TIP3    H219090   6.203   0.581   4.311
 6390TIP3   OH219091   7.277   1.271   3.467
 6390TIP3    H119092   7.284   1.368   3.451
 6390TIP3    H219093   7.370   1.243   3.454
 6391TIP3   OH219094   5.999   1.032   5.173
 6391TIP3    H119095   5.936   1.008   5.102
 6391TIP3    H219096   6.038   0.945   5.197
 6392TIP3   OH219097   5.857   1.221   4.804
 6392TIP3    H119098   5.953   1.211   4.791
 6392TIP3    H219099   5.853   1.300   4.860
 6393TIP3   OH219100   7.718   1.682   4.862
 6393TIP3    H119101   7.718   1.586   4.876
 6393TIP3    H219102   7.634   1.706   4.908
 6394TIP3   OH219103   6.823   1.462   4.994
 6394TIP3    H119104   6.819   1.554   5.026
 6394TIP3    H219105   6.752   1.420   5.049
 6395TIP3   OH219106   6.589   1.588   3.948
 6395TIP3    H119107   6.541   1.572   3.865
 6395TIP3    H219108   6.555   1.675   3.975
 6396TIP3   OH219109   6.023   1.437   4.334
 6396TIP3    H119110   6.070   1.426   4.420
 6396TIP3    H219111   5.976   1.352   4.327
 6397TIP3   OH219112   6.786   1.492   3.584
 6397TIP3    H119113   6.844   1.422   3.549
 6397TIP3    H219114   6.821   1.504   3.675
 6398TIP3   OH219115   6.839   1.541   3.853
 6398TIP3    H119116   6.751   1.550   3.896
 6398TIP3    H219117   6.891   1.505   3.926
 6399TIP3   OH219118   7.604   0.785   5.125
 6399TIP3    H119119   7.526   0.841   5.109
 6399TIP3    H219120   7.598   0.724   5.050
 6400TIP3   OH219121   6.202   1.218   5.159
 6400TIP3    H119122   6.253   1.199   5.240
 6400TIP3    H219123   6.130   1.152   5.165
 6401TIP3   OH219124   7.362   0.607   5.061
 6401TIP3    H119125   7.354   0.646   5.149
 6401TIP3    H219126   7.350   0.687   5.006
 6402TIP3   OH219127   7.040   0.698   3.607
 6402TIP3    H119128   7.001   0.687   3.519
 6402TIP3    H219129   7.121   0.748   3.586
 6403TIP3   OH219130   6.558   0.551   4.969
 6403TIP3    H119131   6.499   0.570   5.045
 6403TIP3    H219132   6.543   0.631   4.914
 6404TIP3   OH219133   6.455   0.409   4.484
 6404TIP3    H119134   6.360   0.402   4.507
 6404TIP3    H219135   6.450   0.446   4.395
 6405TIP3   OH219136   6.889   0.528   4.208
 6405TIP3    H119137   6.840   0.601   4.164
 6405TIP3    H219138   6.954   0.504   4.139
 6406TIP3   OH219139   7.081   0.797   5.280
 6406TIP3    H119140   7.054   0.741   5.357
 6406TIP3    H219141   7.175   0.815   5.303
 6407TIP3   OH219142   7.052   0.585   4.456
 6407TIP3    H119143   6.993   0.617   4.385
 6407TIP3    H219144   7.084   0.503   4.411
 6408TIP3   OH219145   6.356   0.592   5.165
 6408TIP3    H119146   6.384   0.656   5.232
 6408TIP3    H219147   6.291   0.538   5.213
 6409TIP3   OH219148   5.970   0.178   4.277
 6409TIP3    H119149   5.953   0.209   4.186
 6409TIP3    H219150   5.909   0.232   4.329
 6410TIP3   OH219151   7.080   0.794   4.864
 6410TIP3    H119152   7.114   0.723   4.805
 6410TIP3    H219153   7.050   0.740   4.940
 6411TIP3   OH219154   6.181   0.355   4.504
 6411TIP3    H119155   6.083   0.356   4.491
 6411TIP3    H219156   6.197   0.261   4.527
 6412TIP3   OH219157   7.413   2.026   4.962
 6412TIP3    H119158   7.410   2.051   4.867
 6412TIP3    H219159   7.492   2.075   4.992
 6413TIP3   OH219160   6.366   1.137   5.378
 6413TIP3    H119161   6.446   1.166   5.427
 6413TIP3    H219162   6.301   1.134   5.451
 6414TIP3   OH219163   6.834   0.579   4.647
 6414TIP3    H119164   6.909   0.548   4.593
 6414TIP3    H219165   6.843   0.526   4.728
 6415TIP3   OH219166   6.826   0.479   4.937
 6415TIP3    H119167   6.731   0.505   4.946
 6415TIP3    H219168   6.871   0.554   4.981
 6416TIP3   OH219169   6.537   0.882   4.026
 6416TIP3    H119170   6.461   0.824   4.007
 6416TIP3    H219171   6.517   0.910   4.119
 6417TIP3   OH219172   7.438   1.116   4.645
 6417TIP3    H119173   7.462   1.167   4.565
 6417TIP3    H219174   7.353   1.074   4.618
 6418TIP3   OH219175   6.917   0.273   3.861
 6418TIP3    H119176   6.930   0.177   3.890
 6418TIP3    H219177   7.013   0.295   3.852
 6419TIP3   OH219178   6.944   1.197   5.017
 6419TIP3    H119179   6.969   1.180   5.109
 6419TIP3    H219180   6.902   1.285   5.022
 6420TIP3   OH219181   7.064   0.474   4.012
 6420TIP3    H119182   7.164   0.474   4.000
 6420TIP3    H219183   7.037   0.541   3.951
 6421TIP3   OH219184   6.685   1.025   3.844
 6421TIP3    H119185   6.638   1.112   3.845
 6421TIP3    H219186   6.631   0.974   3.908
 6422TIP3   OH219187   6.115   0.821   5.311
 6422TIP3    H119188   6.146   0.813   5.404
 6422TIP3    H219189   6.059   0.742   5.301
 6423TIP3   OH219190   6.843   0.937   5.327
 6423TIP3    H119191   6.777   0.876   5.289
 6423TIP3    H219192   6.926   0.900   5.292
 6424TIP3   OH219193   7.100   1.457   4.915
 6424TIP3    H119194   7.003   1.455   4.928
 6424TIP3    H219195   7.128   1.509   4.993
 6425TIP3   OH219196   7.483   0.542   3.829
 6425TIP3    H119197   7.429   0.495   3.762
 6425TIP3    H219198   7.488   0.631   3.786
 6426TIP3   OH219199   7.729   1.396   4.897
 6426TIP3    H119200   7.632   1.391   4.886
 6426TIP3    H219201   7.757   1.362   4.810
 6427TIP3   OH219202   7.212   1.349   3.732
 6427TIP3    H119203   7.185   1.280   3.794
 6427TIP3    H219204   7.225   1.300   3.649
 6428TIP3   OH219205   7.206   0.981   4.564
 6428TIP3    H119206   7.113   0.953   4.578
 6428TIP3    H219207   7.240   0.902   4.516
 6429TIP3   OH219208   6.340   1.204   4.287
 6429TIP3    H119209   6.316   1.290   4.248
 6429TIP3    H219210   6.262   1.180   4.338
 6430TIP3   OH219211   5.902   0.529   4.025
 6430TIP3    H119212   5.939   0.618   4.045
 6430TIP3    H219213   5.821   0.532   4.081
 6431TIP3   OH219214   6.458   0.953   4.275
 6431TIP3    H119215   6.429   1.047   4.282
 6431TIP3    H219216   6.436   0.924   4.366
 6432TIP3   OH219217   6.605   1.549   4.789
 6432TIP3    H119218   6.650   1.620   4.739
 6432TIP3    H219219   6.681   1.508   4.834
 6433TIP3   OH219220   6.249   1.449   4.168
 6433TIP3    H119221   6.165   1.458   4.217
 6433TIP3    H219222   6.283   1.541   4.172
 6434TIP3   OH219223   6.991   1.180   4.748
 6434TIP3    H119224   6.982   1.180   4.846
 6434TIP3    H219225   7.071   1.127   4.736
 6435TIP3   OH219226   6.970   1.075   3.633
 6435TIP3    H119227   7.024   1.050   3.711
 6435TIP3    H219228   6.882   1.051   3.663
 6436TIP3   OH219229   7.241   1.713   4.798
 6436TIP3    H119230   7.161   1.658   4.792
 6436TIP3    H219231   7.225   1.777   4.726
 6437TIP3   OH219232   7.306   1.547   3.450
 6437TIP3    H119233   7.342   1.622   3.399
 6437TIP3    H219234   7.226   1.591   3.486
 6438TIP3   OH219235   7.132   1.003   3.841
 6438TIP3    H119236   7.122   0.941   3.916
 6438TIP3    H219237   7.230   1.004   3.833
 6439TIP3   OH219238   6.047   1.409   4.947
 6439TIP3    H119239   6.101   1.330   4.965
 6439TIP3    H219240   6.073   1.465   5.021
 6440TIP3   OH219241   6.333   1.055   3.633
 6440TIP3    H119242   6.345   0.962   3.608
 6440TIP3    H219243   6.315   1.047   3.729
 6441TIP3   OH219244   6.279   1.060   3.905
 6441TIP3    H119245   6.349   1.039   3.968
 6441TIP3    H219246   6.278   1.159   3.911
 6442TIP3   OH219247   6.015   0.757   4.109
 6442TIP3    H119248   5.953   0.804   4.169
 6442TIP3    H219249   6.029   0.828   4.043
 6443TIP3   OH219250   6.545   1.256   3.849
 6443TIP3    H119251   6.459   1.278   3.889
 6443TIP3    H219252   6.561   1.335   3.796
 6444TIP3   OH219253   6.777   0.295   4.290
 6444TIP3    H119254   6.811   0.376   4.247
 6444TIP3    H219255   6.752   0.330   4.376
 6445TIP3   OH219256   7.016   0.632   5.075
 6445TIP3    H119257   7.020   0.704   5.141
 6445TIP3    H219258   7.047   0.557   5.129
 6446TIP3   OH219259   6.290   1.332   3.921
 6446TIP3    H119260   6.261   1.403   3.860
 6446TIP3    H219261   6.274   1.374   4.009
 6447TIP3   OH219262   7.288   0.741   4.443
 6447TIP3    H119263   7.210   0.685   4.456
 6447TIP3    H219264   7.359   0.691   4.490
 6448TIP3   OH219265   6.010   0.957   3.911
 6448TIP3    H119266   6.079   1.026   3.921
 6448TIP3    H219267   6.054   0.900   3.844
 6449TIP3   OH219268   5.949   0.270   4.027
 6449TIP3    H119269   5.906   0.357   4.012
 6449TIP3    H219270   5.916   0.218   3.952
 6450TIP3   OH219271   7.262   1.692   4.389
 6450TIP3    H119272   7.219   1.738   4.314
 6450TIP3    H219273   7.357   1.711   4.369
 6451TIP3   OH219274   5.869   1.178   4.293
 6451TIP3    H119275   5.805   1.208   4.359
 6451TIP3    H219276   5.835   1.222   4.212
 6452TIP3   OH219277   6.039   1.725   5.373
 6452TIP3    H119278   6.126   1.728   5.420
 6452TIP3    H219279   6.026   1.629   5.369
 6453TIP3   OH219280   6.509   1.681   5.413
 6453TIP3    H119281   6.604   1.664   5.424
 6453TIP3    H219282   6.487   1.616   5.344
 6454TIP3   OH219283   6.495   1.257   3.539
 6454TIP3    H119284   6.441   1.185   3.579
 6454TIP3    H219285   6.571   1.207   3.507
 6455TIP3   OH219286   7.152   1.590   5.151
 6455TIP3    H119287   7.146   1.520   5.220
 6455TIP3    H219288   7.229   1.642   5.180
 6456TIP3   OH219289   6.931   1.295   3.456
 6456TIP3    H119290   6.974   1.231   3.517
 6456TIP3    H219291   6.988   1.292   3.377
 6457TIP3   OH219292   6.163   1.126   5.563
 6457TIP3    H119293   6.172   1.033   5.590
 6457TIP3    H219294   6.076   1.125   5.518
 6458TIP3   OH219295   6.145   0.768   3.770
 6458TIP3    H119296   6.206   0.748   3.844
 6458TIP3    H219297   6.210   0.775   3.696
 6459TIP3   OH219298   6.773   1.213   5.346
 6459TIP3    H119299   6.730   1.233   5.260
 6459TIP3    H219300   6.802   1.121   5.334
 6460TIP3   OH219301   6.660   0.974   3.574
 6460TIP3    H119302   6.660   0.986   3.671
 6460TIP3    H219303   6.658   0.876   3.568
 6461TIP3   OH219304   7.262   1.225   4.953
 6461TIP3    H119305   7.338   1.267   4.909
 6461TIP3    H219306   7.193   1.292   4.936
 6462TIP3   OH219307   6.283   0.852   5.555
 6462TIP3    H119308   6.370   0.818   5.531
 6462TIP3    H219309   6.302   0.897   5.640
 6463TIP3   OH219310   6.335   0.685   3.978
 6463TIP3    H119311   6.346   0.652   4.069
 6463TIP3    H219312   6.382   0.616   3.926
 6464TIP3   OH219313   6.630   0.748   5.217
 6464TIP3    H119314   6.548   0.801   5.220
 6464TIP3    H219315   6.673   0.781   5.136
 6465TIP3   OH219316   6.450   0.481   3.841
 6465TIP3    H119317   6.423   0.474   3.748
 6465TIP3    H219318   6.547   0.476   3.832
 6466TIP3   OH219319   7.136   1.145   5.347
 6466TIP3    H119320   7.212   1.112   5.298
 6466TIP3    H219321   7.130   1.082   5.421
 6467TIP3   OH219322   7.271   0.799   3.491
 6467TIP3    H119323   7.251   0.762   3.403
 6467TIP3    H219324   7.239   0.891   3.476
 6468TIP3   OH219325   6.746   0.545   5.352
 6468TIP3    H119326   6.723   0.464   5.307
 6468TIP3    H219327   6.703   0.614   5.296
 6469TIP3   OH219328   6.778   0.854   5.018
 6469TIP3    H119329   6.857   0.876   4.967
 6469TIP3    H219330   6.713   0.916   4.979
 6470TIP3   OH219331   7.349   0.810   5.357
 6470TIP3    H119332   7.373   0.778   5.447
 6470TIP3    H219333   7.406   0.886   5.345
 6471TIP3   OH219334   7.389   1.076   5.136
 6471TIP3    H119335   7.327   1.131   5.082
 6471TIP3    H219336   7.474   1.108   5.095
 6472TIP3   OH219337   6.590   0.661   5.563
 6472TIP3    H119338   6.558   0.582   5.607
 6472TIP3    H219339   6.650   0.624   5.496
 6473TIP3   OH219340   6.982   0.627   5.466
 6473TIP3    H119341   6.971   0.609   5.560
 6473TIP3    H219342   6.898   0.593   5.429
 6474TIP3   OH219343   6.261   1.535   3.735
 6474TIP3    H119344   6.356   1.525   3.715
 6474TIP3    H219345   6.234   1.588   3.657
 6475TIP3   OH219346   5.741   0.918   3.946
 6475TIP3    H119347   5.836   0.939   3.933
 6475TIP3    H219348   5.735   0.829   3.905
 6476TIP3   OH219349   5.655   1.530   4.368
 6476TIP3    H119350   5.591   1.469   4.326
 6476TIP3    H219351   5.700   1.470   4.430
 6477TIP3   OH219352   5.788   1.375   4.553
 6477TIP3    H119353   5.778   1.303   4.618
 6477TIP3    H219354   5.842   1.438   4.604
 6478TIP3   OH219355   7.518   1.779   4.353
 6478TIP3    H119356   7.545   1.812   4.440
 6478TIP3    H219357   7.584   1.817   4.294
 6479TIP3   OH219358   7.544   1.800   4.636
 6479TIP3    H119359   7.499   1.713   4.630
 6479TIP3    H219360   7.621   1.775   4.690
 6480TIP3   OH219361   7.594   1.475   5.210
 6480TIP3    H119362   7.521   1.487   5.274
 6480TIP3    H219363   7.636   1.563   5.212
 6481TIP3   OH219364   7.410   0.990   3.823
 6481TIP3    H119365   7.475   1.057   3.792
 6481TIP3    H219366   7.456   0.954   3.902
 6482TIP3   OH219367   7.539   0.859   4.027
 6482TIP3    H119368   7.471   0.825   4.089
 6482TIP3    H219369   7.606   0.896   4.088
 6483TIP3   OH219370   7.595   1.252   4.462
 6483TIP3    H119371   7.646   1.183   4.414
 6483TIP3    H219372   7.592   1.324   4.396
 6484TIP3   OH219373   7.419   1.550   4.654
 6484TIP3    H119374   7.346   1.593   4.704
 6484TIP3    H219375   7.370   1.505   4.582
 6485TIP3   OH219376   7.469   0.767   3.674
 6485TIP3    H119377   7.399   0.774   3.605
 6485TIP3    H219378   7.444   0.844   3.730
 6486TIP3   OH219379   7.344   0.423   3.620
 6486TIP3    H119380   7.324   0.498   3.563
 6486TIP3    H219381   7.282   0.357   3.589
 6487TIP3   OH219382   7.345   0.736   4.175
 6487TIP3    H119383   7.337   0.641   4.155
 6487TIP3    H219384   7.329   0.740   4.272
 6488TIP3   OH219385   5.972   0.791   4.924
 6488TIP3    H119386   5.972   0.754   4.833
 6488TIP3    H219387   6.069   0.792   4.943
 6489TIP3   OH219388   7.622   1.159   5.026
 6489TIP3    H119389   7.696   1.095   5.019
 6489TIP3    H219390   7.646   1.227   4.962
 6490TIP3   OH219391   7.802   0.969   5.067
 6490TIP3    H119392   7.735   0.902   5.093
 6490TIP3    H219393   7.882   0.913   5.078
 6491TIP3   OH219394   7.337   0.486   4.050
 6491TIP3    H119395   7.385   0.403   4.068
 6491TIP3    H219396   7.387   0.516   3.972
 6492TIP3   OH219397   7.502   0.618   4.565
 6492TIP3    H119398   7.587   0.640   4.520
 6492TIP3    H219399   7.520   0.656   4.653
 6493TIP3   OH219400   7.564   0.763   4.800
 6493TIP3    H119401   7.482   0.800   4.838
 6493TIP3    H219402   7.596   0.839   4.747
 6494TIP3   OH219403   6.155   0.498   5.628
 6494TIP3    H119404   6.243   0.466   5.599
 6494TIP3    H219405   6.118   0.415   5.659
 6495TIP3   OH219406   5.948   0.451   4.982
 6495TIP3    H119407   6.007   0.455   4.904
 6495TIP3    H219408   5.986   0.520   5.039
 6496TIP3   OH219409   7.099   1.648   4.006
 6496TIP3    H119410   7.153   1.640   3.924
 6496TIP3    H219411   7.148   1.716   4.056
 6497TIP3   OH219412   6.198   1.459   5.393
 6497TIP3    H119413   6.108   1.425   5.380
 6497TIP3    H219414   6.216   1.434   5.485
 6498TIP3   OH219415   6.379   1.490   4.940
 6498TIP3    H119416   6.326   1.559   4.897
 6498TIP3    H219417   6.465   1.505   4.896
 6499TIP3   OH219418   6.818   1.730   5.075
 6499TIP3    H119419   6.860   1.727   5.164
 6499TIP3    H219420   6.885   1.781   5.025
 6500TIP3   OH219421   7.000   1.883   4.938
 6500TIP3    H119422   7.070   1.833   4.894
 6500TIP3    H219423   7.053   1.940   4.999
 6501TIP3   OH219424   6.060   1.754   4.959
 6501TIP3    H119425   5.966   1.778   4.941
 6501TIP3    H219426   6.070   1.787   5.050
 6502TIP3   OH219427   6.277   1.750   4.794
 6502TIP3    H119428   6.200   1.761   4.855
 6502TIP3    H219429   6.235   1.705   4.720
 6503TIP3   OH219430   6.719   1.744   4.624
 6503TIP3    H119431   6.664   1.764   4.546
 6503TIP3    H219432   6.733   1.833   4.663
 6504TIP3   OH219433   6.988   1.685   4.675
 6504TIP3    H119434   6.894   1.703   4.655
 6504TIP3    H219435   7.033   1.756   4.626
 6505TIP3   OH219436   7.188   1.875   4.583
 6505TIP3    H119437   7.176   1.960   4.536
 6505TIP3    H219438   7.217   1.816   4.509
 6506TIP3   OH219439   5.968   1.532   4.710
 6506TIP3    H119440   5.996   1.502   4.799
 6506TIP3    H219441   6.037   1.488   4.656
 6507TIP3   OH219442   6.163   1.408   4.569
 6507TIP3    H119443   6.175   1.323   4.617
 6507TIP3    H219444   6.257   1.437   4.559
 6508TIP3   OH219445   6.433   1.497   4.573
 6508TIP3    H119446   6.456   1.402   4.557
 6508TIP3    H219447   6.490   1.513   4.651
 6509TIP3   OH219448   5.751   1.311   4.091
 6509TIP3    H119449   5.663   1.281   4.060
 6509TIP3    H219450   5.747   1.404   4.060
 6510TIP3   OH219451   6.528   1.489   3.682
 6510TIP3    H119452   6.615   1.513   3.645
 6510TIP3    H219453   6.505   1.415   3.621
 6511TIP3   OH219454   7.248   1.616   3.775
 6511TIP3    H119455   7.239   1.518   3.764
 6511TIP3    H219456   7.201   1.647   3.695
 6512TIP3   OH219457   5.827   1.325   3.732
 6512TIP3    H119458   5.828   1.352   3.825
 6512TIP3    H219459   5.916   1.285   3.720
 6513TIP3   OH219460   7.468   1.755   4.962
 6513TIP3    H119461   7.390   1.726   4.909
 6513TIP3    H219462   7.450   1.851   4.967
 6514TIP3   OH219463   8.034   1.027   4.469
 6514TIP3    H119464   8.065   0.958   4.530
 6514TIP3    H219465   8.110   1.086   4.467
 6515TIP3   OH219466   7.991   1.421   4.203
 6515TIP3    H119467   7.982   1.324   4.204
 6515TIP3    H219468   8.086   1.426   4.178
 6516TIP3   OH219469   7.703   0.633   3.978
 6516TIP3    H119470   7.661   0.720   3.994
 6516TIP3    H219471   7.623   0.580   3.962
 6517TIP3   OH219472   7.772   0.926   4.157
 6517TIP3    H119473   7.823   0.849   4.191
 6517TIP3    H219474   7.837   0.970   4.102
 6518TIP3   OH219475   7.923   0.723   4.260
 6518TIP3    H119476   8.009   0.701   4.301
 6518TIP3    H219477   7.937   0.680   4.173
 6519TIP3   OH219478   8.379   1.288   4.366
 6519TIP3    H119479   8.314   1.342   4.417
 6519TIP3    H219480   8.387   1.343   4.286
 6520TIP3   OH219481   8.165   0.624   4.343
 6520TIP3    H119482   8.233   0.687   4.377
 6520TIP3    H219483   8.219   0.564   4.290
 6521TIP3   OH219484   8.203   1.469   4.476
 6521TIP3    H119485   8.186   1.557   4.436
 6521TIP3    H219486   8.122   1.460   4.531
 6522TIP3   OH219487   7.607   1.163   3.715
 6522TIP3    H119488   7.568   1.192   3.631
 6522TIP3    H219489   7.640   1.248   3.752
 6523TIP3   OH219490   8.150   1.037   3.949
 6523TIP3    H119491   8.093   0.994   3.881
 6523TIP3    H219492   8.225   0.977   3.948
 6524TIP3   OH219493   8.248   1.409   4.103
 6524TIP3    H119494   8.269   1.373   4.015
 6524TIP3    H219495   8.318   1.476   4.112
 6525TIP3   OH219496   8.290   1.039   4.303
 6525TIP3    H119497   8.321   1.032   4.211
 6525TIP3    H219498   8.322   1.129   4.326
 6526TIP3   OH219499   8.397   1.548   4.661
 6526TIP3    H119500   8.349   1.628   4.688
 6526TIP3    H219501   8.334   1.507   4.599
 6527TIP3   OH219502   8.172   1.147   4.728
 6527TIP3    H119503   8.177   1.235   4.770
 6527TIP3    H219504   8.077   1.127   4.742
 6528TIP3   OH219505   8.213   1.766   4.713
 6528TIP3    H119506   8.182   1.764   4.620
 6528TIP3    H219507   8.132   1.741   4.763
 6529TIP3   OH219508   8.010   0.913   3.751
 6529TIP3    H119509   7.937   0.947   3.694
 6529TIP3    H219510   7.990   0.819   3.758
 6530TIP3   OH219511   7.795   1.286   4.660
 6530TIP3    H119512   7.728   1.268   4.591
 6530TIP3    H219513   7.831   1.197   4.679
 6531TIP3   OH219514   7.654   1.479   4.290
 6531TIP3    H119515   7.749   1.473   4.278
 6531TIP3    H219516   7.647   1.558   4.346
 6532TIP3   OH219517   8.361   1.847   3.467
 6532TIP3    H119518   8.297   1.824   3.398
 6532TIP3    H219519   8.341   1.941   3.483
 6533TIP3   OH219520   7.820   1.693   3.814
 6533TIP3    H119521   7.861   1.682   3.902
 6533TIP3    H219522   7.767   1.611   3.809
 6534TIP3   OH219523   7.994   1.475   4.648
 6534TIP3    H119524   8.046   1.455   4.728
 6534TIP3    H219525   7.921   1.409   4.654
 6535TIP3   OH219526   8.330   0.812   4.456
 6535TIP3    H119527   8.267   0.830   4.528
 6535TIP3    H219528   8.322   0.892   4.400
 6536TIP3   OH219529   8.219   0.717   3.919
 6536TIP3    H119530   8.138   0.703   3.971
 6536TIP3    H219531   8.222   0.635   3.869
 6537TIP3   OH219532   8.143   0.852   4.654
 6537TIP3    H119533   8.172   0.914   4.723
 6537TIP3    H219534   8.082   0.794   4.702
 6538TIP3   OH219535   7.744   0.421   3.756
 6538TIP3    H119536   7.758   0.463   3.668
 6538TIP3    H219537   7.694   0.491   3.801
 6539TIP3   OH219538   7.976   0.613   4.016
 6539TIP3    H119539   7.882   0.608   3.991
 6539TIP3    H219540   8.000   0.519   4.030
 6540TIP3   OH219541   8.058   0.575   3.495
 6540TIP3    H119542   7.997   0.545   3.426
 6540TIP3    H219543   8.114   0.636   3.446
 6541TIP3   OH219544   8.157   1.391   4.866
 6541TIP3    H119545   8.239   1.423   4.910
 6541TIP3    H219546   8.095   1.393   4.942
 6542TIP3   OH219547   8.021   1.143   4.177
 6542TIP3    H119548   8.069   1.122   4.095
 6542TIP3    H219549   8.070   1.091   4.243
 6543TIP3   OH219550   7.913   1.070   4.796
 6543TIP3    H119551   7.932   1.062   4.891
 6543TIP3    H219552   7.849   0.999   4.781
 6544TIP3   OH219553   8.131   1.476   3.788
 6544TIP3    H119554   8.111   1.565   3.754
 6544TIP3    H219555   8.050   1.453   3.835
 6545TIP3   OH219556   7.689   0.776   3.505
 6545TIP3    H119557   7.740   0.857   3.530
 6545TIP3    H219558   7.617   0.779   3.571
 6546TIP3   OH219559   8.180   1.210   3.704
 6546TIP3    H119560   8.195   1.299   3.742
 6546TIP3    H219561   8.170   1.158   3.785
 6547TIP3   OH219562   8.403   1.825   4.301
 6547TIP3    H119563   8.428   1.871   4.218
 6547TIP3    H219564   8.482   1.772   4.317
 6548TIP3   OH219565   8.053   1.709   3.660
 6548TIP3    H119566   7.966   1.718   3.703
 6548TIP3    H219567   8.086   1.802   3.666
 6549TIP3   OH219568   7.839   1.666   4.432
 6549TIP3    H119569   7.894   1.593   4.464
 6549TIP3    H219570   7.869   1.739   4.488
 6550TIP3   OH219571   8.110   1.364   3.123
 6550TIP3    H119572   8.139   1.299   3.055
 6550TIP3    H219573   8.112   1.312   3.205
 6551TIP3   OH219574   8.099   1.306   3.407
 6551TIP3    H119575   8.113   1.283   3.501
 6551TIP3    H219576   8.088   1.404   3.412
 6552TIP3   OH219577   7.803   1.010   3.597
 6552TIP3    H119578   7.739   1.057   3.653
 6552TIP3    H219579   7.820   1.078   3.528
 6553TIP3   OH219580   8.061   1.576   3.415
 6553TIP3    H119581   8.072   1.646   3.349
 6553TIP3    H219582   8.061   1.626   3.499
 6554TIP3   OH219583   7.804   1.214   3.399
 6554TIP3    H119584   7.865   1.289   3.403
 6554TIP3    H219585   7.853   1.156   3.337
 6555TIP3   OH219586   7.728   0.506   3.503
 6555TIP3    H119587   7.737   0.603   3.499
 6555TIP3    H219588   7.658   0.489   3.438
 6556TIP3   OH219589   7.665   1.429   3.781
 6556TIP3    H119590   7.606   1.462   3.850
 6556TIP3    H219591   7.631   1.474   3.701
 6557TIP3   OH219592   7.834   1.982   4.858
 6557TIP3    H119593   7.921   1.980   4.904
 6557TIP3    H219594   7.812   1.887   4.856
 6558TIP3   OH219595   8.316   1.946   4.899
 6558TIP3    H119596   8.408   1.912   4.907
 6558TIP3    H219597   8.283   1.884   4.830
 6559TIP3   OH219598   7.956   1.384   5.058
 6559TIP3    H119599   7.967   1.287   5.068
 6559TIP3    H219600   7.870   1.389   5.011
 6560TIP3   OH219601   7.939   1.027   3.252
 6560TIP3    H119602   7.994   0.984   3.322
 6560TIP3    H219603   8.005   1.038   3.182
 6561TIP3   OH219604   8.081   1.112   5.039
 6561TIP3    H119605   8.167   1.077   5.011
 6561TIP3    H219606   8.106   1.157   5.123
 6562TIP3   OH219607   8.111   0.910   3.441
 6562TIP3    H119608   8.103   0.929   3.536
 6562TIP3    H219609   8.207   0.899   3.432
 6563TIP3   OH219610   8.409   1.011   4.717
 6563TIP3    H119611   8.333   1.072   4.713
 6563TIP3    H219612   8.419   0.981   4.626
 6564TIP3   OH219613   8.384   0.917   5.043
 6564TIP3    H119614   8.358   0.824   5.054
 6564TIP3    H219615   8.424   0.918   4.955
 6565TIP3   OH219616   8.109   1.785   3.218
 6565TIP3    H119617   8.132   1.868   3.173
 6565TIP3    H219618   8.027   1.766   3.170
 6566TIP3   OH219619   7.535   1.175   3.433
 6566TIP3    H119620   7.630   1.195   3.420
 6566TIP3    H219621   7.528   1.086   3.392
 6567TIP3   OH219622   7.454   1.785   3.852
 6567TIP3    H119623   7.387   1.725   3.812
 6567TIP3    H219624   7.496   1.724   3.916
 6568TIP3   OH219625   7.585   1.628   4.037
 6568TIP3    H119626   7.574   1.560   4.106
 6568TIP3    H219627   7.637   1.694   4.087
 6569TIP3   OH219628   7.769   1.042   4.410
 6569TIP3    H119629   7.765   1.009   4.318
 6569TIP3    H219630   7.866   1.044   4.425
 6570TIP3   OH219631   7.959   0.759   5.117
 6570TIP3    H119632   8.045   0.719   5.090
 6570TIP3    H219633   7.909   0.679   5.135
 6571TIP3   OH219634   7.747   0.703   4.474
 6571TIP3    H119635   7.803   0.710   4.393
 6571TIP3    H219636   7.775   0.781   4.523
 6572TIP3   OH219637   7.996   1.712   4.880
 6572TIP3    H119638   7.904   1.686   4.860
 6572TIP3    H219639   8.003   1.689   4.973
 6573TIP3   OH219640   8.174   1.746   4.431
 6573TIP3    H119641   8.124   1.816   4.385
 6573TIP3    H219642   8.263   1.766   4.395
 6574TIP3   OH219643   7.847   1.996   4.454
 6574TIP3    H119644   7.757   2.028   4.430
 6574TIP3    H219645   7.861   2.045   4.536
 6575TIP3   OH219646   8.077   1.969   4.308
 6575TIP3    H119647   7.990   1.982   4.351
 6575TIP3    H219648   8.058   2.003   4.218
 6576TIP3   OH219649   8.529   2.140   4.058
 6576TIP3    H119650   8.436   2.125   4.042
 6576TIP3    H219651   8.535   2.159   4.153
 6577TIP3   OH219652   7.757   1.792   4.196
 6577TIP3    H119653   7.786   1.765   4.286
 6577TIP3    H219654   7.824   1.743   4.143
 6578TIP3   OH219655   7.933   1.643   4.056
 6578TIP3    H119656   7.948   1.561   4.108
 6578TIP3    H219657   8.023   1.682   4.059
 6579TIP3   OH219658   8.181   1.741   4.072
 6579TIP3    H119659   8.247   1.691   4.022
 6579TIP3    H219660   8.237   1.788   4.135
 6580TIP3   OH219661   7.550   1.568   3.581
 6580TIP3    H119662   7.463   1.536   3.549
 6580TIP3    H219663   7.542   1.662   3.556
 6581TIP3   OH219664   7.628   1.582   3.221
 6581TIP3    H119665   7.629   1.603   3.316
 6581TIP3    H219666   7.717   1.542   3.208
 6582TIP3   OH219667   1.190   1.918   5.412
 6582TIP3    H119668   1.162   2.010   5.393
 6582TIP3    H219669   1.112   1.869   5.381
 6583TIP3   OH219670   1.194   1.916   5.800
 6583TIP3    H119671   1.228   1.897   5.890
 6583TIP3    H219672   1.149   1.834   5.777
 6584TIP3   OH219673   0.475   1.847   6.171
 6584TIP3    H119674   0.520   1.779   6.225
 6584TIP3    H219675   0.551   1.886   6.125
 6585TIP3   OH219676   1.437   2.220   5.483
 6585TIP3    H119677   1.420   2.160   5.556
 6585TIP3    H219678   1.466   2.301   5.530
 6586TIP3   OH219679   0.466   2.221   5.889
 6586TIP3    H119680   0.464   2.123   5.889
 6586TIP3    H219681   0.562   2.235   5.874
 6587TIP3   OH219682   0.259   1.735   5.875
 6587TIP3    H119683   0.287   1.648   5.907
 6587TIP3    H219684   0.250   1.723   5.780
 6588TIP3   OH219685   1.078   2.676   5.486
 6588TIP3    H119686   1.130   2.608   5.439
 6588TIP3    H219687   1.070   2.641   5.575
 6589TIP3   OH219688   0.989   2.140   5.847
 6589TIP3    H119689   1.034   2.068   5.800
 6589TIP3    H219690   1.069   2.190   5.875
 6590TIP3   OH219691   2.006   1.463   5.846
 6590TIP3    H119692   2.033   1.546   5.891
 6590TIP3    H219693   2.025   1.485   5.753
 6591TIP3   OH219694   1.400   1.642   5.876
 6591TIP3    H119695   1.443   1.556   5.896
 6591TIP3    H219696   1.368   1.625   5.786
 6592TIP3   OH219697   0.781   1.299   5.827
 6592TIP3    H119698   0.739   1.360   5.761
 6592TIP3    H219699   0.709   1.235   5.842
 6593TIP3   OH219700   1.438   1.397   5.463
 6593TIP3    H119701   1.509   1.383   5.530
 6593TIP3    H219702   1.491   1.432   5.389
 6594TIP3   OH219703   0.810   1.699   5.747
 6594TIP3    H119704   0.906   1.680   5.758
 6594TIP3    H219705   0.775   1.612   5.719
 6595TIP3   OH219706   2.075   1.670   6.020
 6595TIP3    H119707   1.992   1.720   6.001
 6595TIP3    H219708   2.107   1.717   6.099
 6596TIP3   OH219709   1.081   2.140   5.280
 6596TIP3    H119710   1.038   2.132   5.194
 6596TIP3    H219711   1.039   2.223   5.312
 6597TIP3   OH219712   0.839   2.063   6.068
 6597TIP3    H119713   0.781   2.133   6.104
 6597TIP3    H219714   0.883   2.109   5.994
 6598TIP3   OH219715   1.640   1.401   5.646
 6598TIP3    H119716   1.614   1.368   5.733
 6598TIP3    H219717   1.691   1.481   5.670
 6599TIP3   OH219718   0.633   1.454   6.005
 6599TIP3    H119719   0.690   1.512   6.058
 6599TIP3    H219720   0.699   1.412   5.947
 6600TIP3   OH219721   0.670   2.259   6.172
 6600TIP3    H119722   0.650   2.346   6.131
 6600TIP3    H219723   0.589   2.248   6.226
 6601TIP3   OH219724   0.068   1.946   5.406
 6601TIP3    H119725   0.032   1.968   5.318
 6601TIP3    H219726   0.093   2.034   5.440
 6602TIP3   OH219727   1.503   2.463   5.640
 6602TIP3    H119728   1.414   2.457   5.683
 6602TIP3    H219729   1.496   2.550   5.597
 6603TIP3   OH219730   1.798   1.355   6.008
 6603TIP3    H119731   1.712   1.387   5.978
 6603TIP3    H219732   1.859   1.392   5.941
 6604TIP3   OH219733   1.127   1.008   5.994
 6604TIP3    H119734   1.127   0.911   5.982
 6604TIP3    H219735   1.087   1.011   6.083
 6605TIP3   OH219736   1.211   2.500   5.318
 6605TIP3    H119737   1.264   2.421   5.293
 6605TIP3    H219738   1.270   2.570   5.281
 6606TIP3   OH219739   1.355   2.283   5.226
 6606TIP3    H119740   1.296   2.210   5.204
 6606TIP3    H219741   1.392   2.255   5.313
 6607TIP3   OH219742   1.727   2.373   5.991
 6607TIP3    H119743   1.716   2.298   5.929
 6607TIP3    H219744   1.709   2.449   5.932
 6608TIP3   OH219745   1.019   1.766   5.249
 6608TIP3    H119746   0.941   1.822   5.231
 6608TIP3    H219747   1.066   1.771   5.164
 6609TIP3   OH219748   0.977   1.557   4.961
 6609TIP3    H119749   1.041   1.610   5.011
 6609TIP3    H219750   1.037   1.496   4.913
 6610TIP3   OH219751   1.922   2.010   5.835
 6610TIP3    H119752   1.840   2.064   5.838
 6610TIP3    H219753   1.956   2.038   5.747
 6611TIP3   OH219754   1.369   1.849   5.218
 6611TIP3    H119755   1.314   1.876   5.296
 6611TIP3    H219756   1.454   1.829   5.262
 6612TIP3   OH219757   1.603   1.888   6.138
 6612TIP3    H119758   1.602   1.972   6.189
 6612TIP3    H219759   1.518   1.896   6.090
 6613TIP3   OH219760   0.601   1.845   5.634
 6613TIP3    H119761   0.564   1.788   5.564
 6613TIP3    H219762   0.679   1.795   5.665
 6614TIP3   OH219763   0.730   2.242   5.790
 6614TIP3    H119764   0.715   2.225   5.695
 6614TIP3    H219765   0.822   2.210   5.803
 6615TIP3   OH219766   0.731   1.821   5.993
 6615TIP3    H119767   0.766   1.798   5.904
 6615TIP3    H219768   0.774   1.908   6.011
 6616TIP3   OH219769   1.268   2.462   5.772
 6616TIP3    H119770   1.242   2.544   5.817
 6616TIP3    H219771   1.245   2.392   5.836
 6617TIP3   OH219772   0.876   2.375   6.317
 6617TIP3    H119773   0.814   2.437   6.361
 6617TIP3    H219774   0.812   2.322   6.265
 6618TIP3   OH219775   1.208   1.709   5.045
 6618TIP3    H119776   1.266   1.771   5.094
 6618TIP3    H219777   1.234   1.730   4.952
 6619TIP3   OH219778   0.644   1.942   6.423
 6619TIP3    H119779   0.656   2.029   6.468
 6619TIP3    H219780   0.558   1.956   6.382
 6620TIP3   OH219781   0.958   2.386   5.319
 6620TIP3    H119782   1.039   2.440   5.331
 6620TIP3    H219783   0.896   2.452   5.285
 6621TIP3   OH219784   0.668   2.543   6.402
 6621TIP3    H119785   0.638   2.549   6.309
 6621TIP3    H219786   0.584   2.528   6.450
 6622TIP3   OH219787   1.723   0.947   5.095
 6622TIP3    H119788   1.642   0.971   5.145
 6622TIP3    H219789   1.739   1.031   5.046
 6623TIP3   OH219790   0.468   1.683   5.436
 6623TIP3    H119791   0.408   1.739   5.381
 6623TIP3    H219792   0.407   1.613   5.462
 6624TIP3   OH219793   1.524   2.315   4.641
 6624TIP3    H119794   1.531   2.412   4.629
 6624TIP3    H219795   1.618   2.288   4.631
 6625TIP3   OH219796   0.269   2.060   6.338
 6625TIP3    H119797   0.238   2.020   6.255
 6625TIP3    H219798   0.219   2.013   6.407
 6626TIP3   OH219799   0.101   2.292   5.968
 6626TIP3    H119800   0.178   2.233   5.960
 6626TIP3    H219801   0.135   2.357   6.032
 6627TIP3   OH219802   1.966   2.724   6.043
 6627TIP3    H119803   1.963   2.628   6.056
 6627TIP3    H219804   1.882   2.750   6.086
 6628TIP3   OH219805   1.074   2.503   6.175
 6628TIP3    H119806   1.070   2.596   6.206
 6628TIP3    H219807   1.001   2.463   6.227
 6629TIP3   OH219808   0.836   2.630   5.124
 6629TIP3    H119809   0.788   2.623   5.040
 6629TIP3    H219810   0.806   2.717   5.158
 6630TIP3   OH219811   0.271   2.486   5.508
 6630TIP3    H119812   0.322   2.478   5.592
 6630TIP3    H219813   0.208   2.412   5.519
 6631TIP3   OH219814   1.033   2.536   4.761
 6631TIP3    H119815   1.093   2.467   4.727
 6631TIP3    H219816   1.068   2.550   4.852
 6632TIP3   OH219817   1.088   2.585   5.030
 6632TIP3    H119818   1.000   2.596   5.073
 6632TIP3    H219819   1.143   2.562   5.106
 6633TIP3   OH219820   1.854   1.848   6.317
 6633TIP3    H119821   1.773   1.860   6.267
 6633TIP3    H219822   1.869   1.751   6.307
 6634TIP3   OH219823   0.450   2.266   6.339
 6634TIP3    H119824   0.509   2.243   6.413
 6634TIP3    H219825   0.381   2.195   6.344
 6635TIP3   OH219826   1.395   1.195   6.318
 6635TIP3    H119827   1.469   1.167   6.375
 6635TIP3    H219828   1.316   1.177   6.373
 6636TIP3   OH219829   1.619   1.624   6.229
 6636TIP3    H119830   1.572   1.623   6.316
 6636TIP3    H219831   1.600   1.714   6.196
 6637TIP3   OH219832   1.283   1.741   4.786
 6637TIP3    H119833   1.250   1.727   4.696
 6637TIP3    H219834   1.362   1.796   4.769
 6638TIP3   OH219835   0.996   1.136   5.091
 6638TIP3    H119836   0.965   1.127   5.184
 6638TIP3    H219837   0.958   1.053   5.054
 6639TIP3   OH219838   0.806   1.615   6.150
 6639TIP3    H119839   0.750   1.636   6.228
 6639TIP3    H219840   0.785   1.693   6.093
 6640TIP3   OH219841   0.663   1.473   5.656
 6640TIP3    H119842   0.571   1.502   5.650
 6640TIP3    H219843   0.678   1.438   5.565
 6641TIP3   OH219844   1.156   1.566   5.381
 6641TIP3    H119845   1.107   1.640   5.339
 6641TIP3    H219846   1.214   1.536   5.308
 6642TIP3   OH219847   1.334   1.844   6.460
 6642TIP3    H119848   1.313   1.772   6.524
 6642TIP3    H219849   1.427   1.863   6.484
 6643TIP3   OH219850   1.312   1.594   5.621
 6643TIP3    H119851   1.250   1.626   5.552
 6643TIP3    H219852   1.347   1.516   5.573
 6644TIP3   OH219853   0.611   1.669   6.330
 6644TIP3    H119854   0.612   1.717   6.414
 6644TIP3    H219855   0.573   1.582   6.352
 6645TIP3   OH219856   0.644   1.116   5.062
 6645TIP3    H119857   0.650   1.115   5.160
 6645TIP3    H219858   0.606   1.204   5.047
 6646TIP3   OH219859   1.320   1.840   6.041
 6646TIP3    H119860   1.355   1.769   5.982
 6646TIP3    H219861   1.290   1.786   6.117
 6647TIP3   OH219862   1.030   1.312   5.701
 6647TIP3    H119863   0.947   1.307   5.752
 6647TIP3    H219864   1.097   1.313   5.772
 6648TIP3   OH219865   0.697   1.363   5.412
 6648TIP3    H119866   0.793   1.374   5.394
 6648TIP3    H219867   0.655   1.387   5.326
 6649TIP3   OH219868   1.489   1.381   5.915
 6649TIP3    H119869   1.461   1.395   6.008
 6649TIP3    H219870   1.416   1.322   5.885
 6650TIP3   OH219871   0.545   1.382   5.180
 6650TIP3    H119872   0.475   1.353   5.118
 6650TIP3    H219873   0.600   1.435   5.118
 6651TIP3   OH219874   1.662   3.070   6.138
 6651TIP3    H119875   1.657   3.096   6.044
 6651TIP3    H219876   1.741   3.119   6.167
 6652TIP3   OH219877   0.636   2.194   6.541
 6652TIP3    H119878   0.713   2.222   6.594
 6652TIP3    H219879   0.567   2.192   6.610
 6653TIP3   OH219880   1.075   1.635   5.810
 6653TIP3    H119881   1.153   1.600   5.764
 6653TIP3    H219882   1.083   1.595   5.899
 6654TIP3   OH219883   1.063   1.547   6.089
 6654TIP3    H119884   0.975   1.586   6.109
 6654TIP3    H219885   1.123   1.604   6.141
 6655TIP3   OH219886   0.793   1.919   5.197
 6655TIP3    H119887   0.717   1.859   5.183
 6655TIP3    H219888   0.772   1.956   5.286
 6656TIP3   OH219889   1.690   2.157   5.822
 6656TIP3    H119890   1.715   2.210   5.743
 6656TIP3    H219891   1.605   2.117   5.794
 6657TIP3   OH219892   1.247   1.233   5.060
 6657TIP3    H119893   1.151   1.214   5.071
 6657TIP3    H219894   1.255   1.327   5.088
 6658TIP3   OH219895   1.183   2.238   6.198
 6658TIP3    H119896   1.224   2.232   6.286
 6658TIP3    H219897   1.150   2.329   6.196
 6659TIP3   OH219898   1.316   1.482   5.165
 6659TIP3    H119899   1.412   1.491   5.181
 6659TIP3    H219900   1.295   1.564   5.116
 6660TIP3   OH219901   0.499   1.949   5.873
 6660TIP3    H119902   0.522   1.927   5.781
 6660TIP3    H219903   0.544   1.876   5.919
 6661TIP3   OH219904   0.936   2.071   5.019
 6661TIP3    H119905   0.887   2.157   5.020
 6661TIP3    H219906   0.882   2.018   5.081
 6662TIP3   OH219907   1.093   1.980   6.513
 6662TIP3    H119908   1.027   1.921   6.473
 6662TIP3    H219909   1.177   1.945   6.475
 6663TIP3   OH219910   1.348   2.494   6.098
 6663TIP3    H119911   1.251   2.499   6.109
 6663TIP3    H219912   1.377   2.550   6.172
 6664TIP3   OH219913   1.756   1.576   4.998
 6664TIP3    H119914   1.696   1.532   4.933
 6664TIP3    H219915   1.752   1.667   4.960
 6665TIP3   OH219916   1.978   2.431   6.080
 6665TIP3    H119917   1.880   2.426   6.070
 6665TIP3    H219918   2.005   2.403   5.990
 6666TIP3   OH219919   1.462   2.394   4.908
 6666TIP3    H119920   1.432   2.329   4.973
 6666TIP3    H219921   1.473   2.342   4.827
 6667TIP3   OH219922   1.456   2.022   5.739
 6667TIP3    H119923   1.362   1.998   5.753
 6667TIP3    H219924   1.488   1.942   5.693
 6668TIP3   OH219925   0.588   2.248   5.494
 6668TIP3    H119926   0.589   2.332   5.444
 6668TIP3    H219927   0.495   2.244   5.518
 6669TIP3   OH219928   0.145   1.560   5.218
 6669TIP3    H119929   0.187   1.648   5.226
 6669TIP3    H219930   0.095   1.556   5.301
 6670TIP3   OH219931   0.714   2.010   5.437
 6670TIP3    H119932   0.682   2.102   5.453
 6670TIP3    H219933   0.679   1.965   5.516
 6671TIP3   OH219934   0.854   2.585   5.974
 6671TIP3    H119935   0.870   2.679   5.956
 6671TIP3    H219936   0.938   2.557   6.013
 6672TIP3   OH219937   0.504   2.488   5.349
 6672TIP3    H119938   0.419   2.499   5.395
 6672TIP3    H219939   0.540   2.580   5.355
 6673TIP3   OH219940   1.237   2.225   5.930
 6673TIP3    H119941   1.227   2.223   6.027
 6673TIP3    H219942   1.322   2.181   5.918
 6674TIP3   OH219943   1.220   2.117   4.809
 6674TIP3    H119944   1.273   2.090   4.887
 6674TIP3    H219945   1.130   2.098   4.840
 6675TIP3   OH219946   1.487   2.756   5.972
 6675TIP3    H119947   1.406   2.704   5.965
 6675TIP3    H219948   1.474   2.822   5.900
 6676TIP3   OH219949   1.554   2.591   4.626
 6676TIP3    H119950   1.590   2.665   4.574
 6676TIP3    H219951   1.475   2.635   4.664
 6677TIP3   OH219952   1.381   2.040   5.016
 6677TIP3    H119953   1.372   1.982   5.095
 6677TIP3    H219954   1.478   2.046   5.009
 6678TIP3   OH219955   0.283   2.450   6.126
 6678TIP3    H119956   0.349   2.390   6.164
 6678TIP3    H219957   0.310   2.535   6.164
 6679TIP3   OH219958   0.583   2.098   4.808
 6679TIP3    H119959   0.596   2.004   4.786
 6679TIP3    H219960   0.563   2.092   4.904
 6680TIP3   OH219961   0.528   2.106   5.080
 6680TIP3    H119962   0.600   2.085   5.141
 6680TIP3    H219963   0.526   2.204   5.086
 6681TIP3   OH219964   0.267   1.802   5.287
 6681TIP3    H119965   0.199   1.845   5.343
 6681TIP3    H219966   0.277   1.869   5.217
 6682TIP3   OH219967   1.419   1.431   6.175
 6682TIP3    H119968   1.497   1.476   6.211
 6682TIP3    H219969   1.412   1.351   6.231
 6683TIP3   OH219970   1.303   1.184   5.342
 6683TIP3    H119971   1.285   1.207   5.249
 6683TIP3    H219972   1.340   1.268   5.377
 6684TIP3   OH219973   0.792   2.300   5.026
 6684TIP3    H119974   0.706   2.324   5.064
 6684TIP3    H219975   0.814   2.382   4.980
 6685TIP3   OH219976   0.977   1.366   5.439
 6685TIP3    H119977   1.039   1.440   5.416
 6685TIP3    H219978   0.994   1.358   5.535
 6686TIP3   OH219979   1.252   1.677   6.250
 6686TIP3    H119980   1.276   1.735   6.325
 6686TIP3    H219981   1.310   1.600   6.264
 6687TIP3   OH219982   1.147   1.104   5.550
 6687TIP3    H119983   1.130   1.190   5.594
 6687TIP3    H219984   1.204   1.132   5.475
 6688TIP3   OH219985   0.537   2.375   5.100
 6688TIP3    H119986   0.510   2.447   5.038
 6688TIP3    H219987   0.524   2.420   5.187
 6689TIP3   OH219988   0.640   1.105   5.335
 6689TIP3    H119989   0.647   1.195   5.371
 6689TIP3    H219990   0.733   1.077   5.345
 6690TIP3   OH219991   1.886   1.581   6.239
 6690TIP3    H119992   1.788   1.577   6.239
 6690TIP3    H219993   1.906   1.556   6.148
 6691TIP3   OH219994   1.541   1.775   5.620
 6691TIP3    H119995   1.464   1.718   5.635
 6691TIP3    H219996   1.612   1.729   5.669
 6692TIP3   OH219997   0.262   2.003   5.087
 6692TIP3    H119998   0.329   2.073   5.096
 6692TIP3    H219999   0.307   1.946   5.021
 6693TIP3   OH220000   1.515   2.732   5.569
 6693TIP3    H120001   1.472   2.778   5.493
 6693TIP3    H220002   1.609   2.751   5.548
 6694TIP3   OH220003   0.114   2.211   5.473
 6694TIP3    H120004   0.061   2.256   5.541
 6694TIP3    H220005   0.088   2.261   5.392
 6695TIP3   OH220006   0.307   2.783   6.527
 6695TIP3    H120007   0.383   2.794   6.589
 6695TIP3    H220008   0.294   2.688   6.531
 6696TIP3   OH220009   0.761   2.719   6.598
 6696TIP3    H120010   0.857   2.710   6.597
 6696TIP3    H220011   0.736   2.660   6.524
 6697TIP3   OH220012   0.742   2.301   4.713
 6697TIP3    H120013   0.688   2.230   4.755
 6697TIP3    H220014   0.820   2.251   4.685
 6698TIP3   OH220015   1.401   2.634   6.328
 6698TIP3    H120016   1.397   2.565   6.398
 6698TIP3    H220017   1.478   2.687   6.356
 6699TIP3   OH220018   1.179   2.339   4.631
 6699TIP3    H120019   1.226   2.279   4.692
 6699TIP3    H220020   1.237   2.339   4.553
 6700TIP3   OH220021   0.432   2.173   6.720
 6700TIP3    H120022   0.458   2.079   6.719
 6700TIP3    H220023   0.346   2.166   6.767
 6701TIP3   OH220024   0.400   1.818   4.947
 6701TIP3    H120025   0.457   1.793   5.022
 6701TIP3    H220026   0.468   1.823   4.875
 6702TIP3   OH220027   1.021   2.259   6.522
 6702TIP3    H120028   0.979   2.282   6.436
 6702TIP3    H220029   1.051   2.167   6.507
 6703TIP3   OH220030   0.908   2.019   4.750
 6703TIP3    H120031   0.909   2.032   4.847
 6703TIP3    H220032   0.904   1.921   4.746
 6704TIP3   OH220033   1.511   2.269   6.130
 6704TIP3    H120034   1.589   2.309   6.086
 6704TIP3    H220035   1.445   2.340   6.115
 6705TIP3   OH220036   0.536   1.918   6.740
 6705TIP3    H120037   0.607   1.856   6.722
 6705TIP3    H220038   0.554   1.942   6.834
 6706TIP3   OH220039   0.592   1.728   5.160
 6706TIP3    H120040   0.566   1.690   5.246
 6706TIP3    H220041   0.633   1.652   5.114
 6707TIP3   OH220042   0.890   1.804   6.405
 6707TIP3    H120043   0.804   1.852   6.400
 6707TIP3    H220044   0.932   1.830   6.320
 6708TIP3   OH220045   0.703   1.518   5.008
 6708TIP3    H120046   0.676   1.531   4.914
 6708TIP3    H220047   0.800   1.523   4.999
 6709TIP3   OH220048   1.383   2.189   6.526
 6709TIP3    H120049   1.462   2.161   6.477
 6709TIP3    H220050   1.380   2.124   6.598
 6710TIP3   OH220051   1.519   1.844   4.672
 6710TIP3    H120052   1.497   1.804   4.585
 6710TIP3    H220053   1.488   1.936   4.654
 6711TIP3   OH220054   0.991   1.576   6.510
 6711TIP3    H120055   0.992   1.510   6.438
 6711TIP3    H220056   0.956   1.655   6.462
 6712TIP3   OH220057   0.968   1.383   6.301
 6712TIP3    H120058   1.013   1.428   6.226
 6712TIP3    H220059   0.883   1.361   6.260
 6713TIP3   OH220060   1.020   1.896   6.189
 6713TIP3    H120061   1.106   1.923   6.153
 6713TIP3    H220062   0.960   1.963   6.148
 6714TIP3   OH220063   1.599   1.866   6.575
 6714TIP3    H120064   1.651   1.785   6.587
 6714TIP3    H220065   1.665   1.928   6.540
 6715TIP3   OH220066   1.641   2.118   6.311
 6715TIP3    H120067   1.583   2.174   6.254
 6715TIP3    H220068   1.729   2.141   6.274
 6716TIP3   OH220069   0.863   1.706   6.737
 6716TIP3    H120070   0.779   1.659   6.728
 6716TIP3    H220071   0.910   1.678   6.656
 6717TIP3   OH220072   1.103   1.160   6.396
 6717TIP3    H120073   1.076   1.247   6.359
 6717TIP3    H220074   1.029   1.148   6.460
 6718TIP3   OH220075   1.256   1.627   6.606
 6718TIP3    H120076   1.256   1.607   6.701
 6718TIP3    H220077   1.165   1.602   6.581
 6719TIP3   OH220078   1.491   1.577   6.461
 6719TIP3    H120079   1.417   1.581   6.525
 6719TIP3    H220080   1.566   1.550   6.519
 6720TIP3   OH220081   1.718   1.522   6.615
 6720TIP3    H120082   1.731   1.426   6.631
 6720TIP3    H220083   1.714   1.559   6.705
 6721TIP3   OH220084   1.227   1.157   6.639
 6721TIP3    H120085   1.308   1.102   6.635
 6721TIP3    H220086   1.189   1.139   6.552
 6722TIP3   OH220087   1.284   1.369   6.793
 6722TIP3    H120088   1.264   1.292   6.735
 6722TIP3    H220089   1.199   1.417   6.793
 6723TIP3   OH220090   0.508   2.572   4.908
 6723TIP3    H120091   0.604   2.567   4.891
 6723TIP3    H220092   0.482   2.630   4.833
 6724TIP3   OH220093   0.001   1.950   5.138
 6724TIP3    H120094   0.093   1.977   5.115
 6724TIP3    H220095  -0.010   1.870   5.083
 6725TIP3   OH220096  -0.102   2.566   5.547
 6725TIP3    H120097  -0.191   2.529   5.557
 6725TIP3    H220098  -0.052   2.510   5.610
 6726TIP3   OH220099   0.041   2.418   5.729
 6726TIP3    H120100   0.041   2.357   5.806
 6726TIP3    H220101   0.093   2.491   5.770
 6727TIP3   OH220102   1.772   2.814   5.531
 6727TIP3    H120103   1.793   2.855   5.617
 6727TIP3    H220104   1.826   2.867   5.470
 6728TIP3   OH220105   1.790   2.844   5.813
 6728TIP3    H120106   1.749   2.756   5.807
 6728TIP3    H220107   1.869   2.823   5.865
 6729TIP3   OH220108   1.842   2.520   6.385
 6729TIP3    H120109   1.770   2.532   6.450
 6729TIP3    H220110   1.885   2.608   6.387
 6730TIP3   OH220111   1.660   2.031   4.999
 6730TIP3    H120112   1.723   2.100   4.970
 6730TIP3    H220113   1.706   1.996   5.079
 6731TIP3   OH220114   1.788   1.896   5.204
 6731TIP3    H120115   1.720   1.861   5.265
 6731TIP3    H220116   1.853   1.936   5.265
 6732TIP3   OH220117   1.843   2.296   5.638
 6732TIP3    H120118   1.894   2.230   5.588
 6732TIP3    H220119   1.840   2.372   5.576
 6733TIP3   OH220120   1.667   2.592   5.833
 6733TIP3    H120121   1.595   2.638   5.880
 6733TIP3    H220122   1.619   2.550   5.758
 6734TIP3   OH220123   1.722   1.808   4.851
 6734TIP3    H120124   1.650   1.813   4.783
 6734TIP3    H220125   1.697   1.885   4.906
 6735TIP3   OH220126   1.598   1.476   4.800
 6735TIP3    H120127   1.544   1.522   4.734
 6735TIP3    H220128   1.572   1.383   4.785
 6736TIP3   OH220129   1.597   1.762   5.352
 6736TIP3    H120130   1.605   1.666   5.346
 6736TIP3    H220131   1.581   1.776   5.448
 6737TIP3   OH220132   0.231   1.946   6.049
 6737TIP3    H120133   0.236   1.886   5.972
 6737TIP3    H220134   0.326   1.959   6.064
 6738TIP3   OH220135   1.888   2.185   6.210
 6738TIP3    H120136   1.959   2.118   6.196
 6738TIP3    H220137   1.912   2.255   6.147
 6739TIP3   OH220138   2.067   1.981   6.214
 6739TIP3    H120139   1.994   1.933   6.259
 6739TIP3    H220140   2.142   1.920   6.231
 6740TIP3   OH220141   1.539   1.207   4.777
 6740TIP3    H120142   1.606   1.183   4.844
 6740TIP3    H220143   1.460   1.159   4.805
 6741TIP3   OH220144   1.595   1.475   5.243
 6741TIP3    H120145   1.637   1.387   5.255
 6741TIP3    H220146   1.652   1.512   5.173
 6742TIP3   OH220147   1.754   1.642   5.742
 6742TIP3    H120148   1.839   1.668   5.699
 6742TIP3    H220149   1.768   1.683   5.830
 6743TIP3   OH220150   1.825   1.792   5.971
 6743TIP3    H120151   1.749   1.828   6.020
 6743TIP3    H220152   1.859   1.872   5.925
 6744TIP3   OH220153   2.276   1.386   6.528
 6744TIP3    H120154   2.338   1.323   6.484
 6744TIP3    H220155   2.244   1.438   6.451
 6745TIP3   OH220156   1.706   1.225   5.280
 6745TIP3    H120157   1.752   1.210   5.366
 6745TIP3    H220158   1.642   1.152   5.280
 6746TIP3   OH220159   2.143   1.519   6.334
 6746TIP3    H120160   2.059   1.565   6.355
 6746TIP3    H220161   2.108   1.449   6.275
 6747TIP3   OH220162   1.779   1.157   4.920
 6747TIP3    H120163   1.821   1.090   4.863
 6747TIP3    H220164   1.844   1.230   4.919
 6748TIP3   OH220165   1.357   2.680   5.183
 6748TIP3    H120166   1.410   2.682   5.101
 6748TIP3    H220167   1.387   2.760   5.229
 6749TIP3   OH220168   0.438   2.497   6.565
 6749TIP3    H120169   0.394   2.414   6.542
 6749TIP3    H220170   0.458   2.485   6.659
 6750TIP3   OH220171   0.629   2.526   6.119
 6750TIP3    H120172   0.583   2.604   6.079
 6750TIP3    H220173   0.713   2.535   6.069
 6751TIP3   OH220174   1.066   2.769   6.252
 6751TIP3    H120175   1.107   2.772   6.341
 6751TIP3    H220176   1.133   2.820   6.201
 6752TIP3   OH220177   1.254   2.917   6.121
 6752TIP3    H120178   1.327   2.877   6.073
 6752TIP3    H220179   1.302   2.979   6.179
 6753TIP3   OH220180   2.045   1.286   6.212
 6753TIP3    H120181   1.956   1.280   6.174
 6753TIP3    H220182   2.077   1.193   6.201
 6754TIP3   OH220183   0.314   2.767   6.150
 6754TIP3    H120184   0.225   2.800   6.125
 6754TIP3    H220185   0.331   2.823   6.228
 6755TIP3   OH220186   0.549   2.758   6.000
 6755TIP3    H120187   0.461   2.770   6.043
 6755TIP3    H220188   0.529   2.789   5.909
 6756TIP3   OH220189   1.223   2.742   5.842
 6756TIP3    H120190   1.139   2.787   5.827
 6756TIP3    H220191   1.284   2.805   5.799
 6757TIP3   OH220192   1.436   2.918   5.759
 6757TIP3    H120193   1.422   3.004   5.715
 6757TIP3    H220194   1.465   2.862   5.684
 6758TIP3   OH220195   0.213   2.579   5.877
 6758TIP3    H120196   0.230   2.556   5.970
 6758TIP3    H220197   0.286   2.530   5.833
 6759TIP3   OH220198   0.399   2.439   5.741
 6759TIP3    H120199   0.416   2.359   5.796
 6759TIP3    H220200   0.490   2.477   5.737
 6760TIP3   OH220201   0.655   2.515   5.754
 6760TIP3    H120202   0.708   2.434   5.764
 6760TIP3    H220203   0.706   2.578   5.807
 6761TIP3   OH220204   1.269   1.209   5.840
 6761TIP3    H120205   1.224   1.135   5.885
 6761TIP3    H220206   1.337   1.163   5.787
 6762TIP3   OH220207   1.769   1.076   5.735
 6762TIP3    H120208   1.806   1.132   5.663
 6762TIP3    H220209   1.675   1.101   5.733
 6763TIP3   OH220210   1.868   1.175   5.499
 6763TIP3    H120211   1.944   1.126   5.461
 6763TIP3    H220212   1.900   1.267   5.487
 6764TIP3   OH220213   0.939   0.999   5.690
 6764TIP3    H120214   1.019   1.040   5.652
 6764TIP3    H220215   0.956   1.005   5.786
 6765TIP3   OH220216   1.486   1.089   5.707
 6765TIP3    H120217   1.482   1.048   5.620
 6765TIP3    H220218   1.472   1.011   5.766
 6766TIP3   OH220219   1.521   1.014   5.275
 6766TIP3    H120220   1.435   1.056   5.295
 6766TIP3    H220221   1.509   0.926   5.316
 6767TIP3   OH220222   0.000   2.356   5.275
 6767TIP3    H120223  -0.067   2.312   5.221
 6767TIP3    H220224  -0.014   2.449   5.247
 6768TIP3   OH220225   0.916   1.110   5.355
 6768TIP3    H120226   0.966   1.050   5.412
 6768TIP3    H220227   0.947   1.198   5.386
 6769TIP3   OH220228   0.775   2.534   4.857
 6769TIP3    H120229   0.863   2.558   4.822
 6769TIP3    H220230   0.754   2.459   4.797
 6770TIP3   OH220231   1.501   2.661   4.948
 6770TIP3    H120232   1.489   2.564   4.938
 6770TIP3    H220233   1.450   2.693   4.870
 6771TIP3   OH220234   0.079   2.373   4.914
 6771TIP3    H120235   0.085   2.410   5.002
 6771TIP3    H220236   0.167   2.331   4.901
 6772TIP3   OH220237   1.785   1.252   6.643
 6772TIP3    H120238   1.799   1.221   6.735
 6772TIP3    H220239   1.876   1.249   6.607
 6773TIP3   OH220240   1.715   2.800   6.138
 6773TIP3    H120241   1.639   2.771   6.085
 6773TIP3    H220242   1.699   2.896   6.142
 6774TIP3   OH220243   2.987   2.173   4.898
 6774TIP3    H120244   2.960   2.266   4.880
 6774TIP3    H220245   2.907   2.126   4.871
 6775TIP3   OH220246   2.990   2.173   5.288
 6775TIP3    H120247   3.025   2.158   5.378
 6775TIP3    H220248   2.943   2.090   5.270
 6776TIP3   OH220249   2.284   2.066   5.652
 6776TIP3    H120250   2.312   1.997   5.714
 6776TIP3    H220251   2.359   2.126   5.654
 6777TIP3   OH220252   3.233   2.477   4.971
 6777TIP3    H120253   3.217   2.415   5.043
 6777TIP3    H220254   3.262   2.557   5.020
 6778TIP3   OH220255   2.258   2.477   5.368
 6778TIP3    H120256   2.250   2.379   5.372
 6778TIP3    H220257   2.355   2.487   5.366
 6779TIP3   OH220258   1.965   1.675   5.152
 6779TIP3    H120259   1.923   1.760   5.176
 6779TIP3    H220260   1.890   1.631   5.108
 6780TIP3   OH220261   2.021   1.969   5.334
 6780TIP3    H120262   2.073   1.893   5.368
 6780TIP3    H220263   2.088   2.021   5.286
 6781TIP3   OH220264   2.877   2.935   4.980
 6781TIP3    H120265   2.923   2.862   4.935
 6781TIP3    H220266   2.869   2.902   5.071
 6782TIP3   OH220267   2.784   2.401   5.332
 6782TIP3    H120268   2.830   2.327   5.288
 6782TIP3    H220269   2.864   2.449   5.363
 6783TIP3   OH220270   3.803   1.720   5.333
 6783TIP3    H120271   3.830   1.804   5.376
 6783TIP3    H220272   3.822   1.741   5.240
 6784TIP3   OH220273   3.196   1.897   5.362
 6784TIP3    H120274   3.241   1.814   5.384
 6784TIP3    H220275   3.166   1.879   5.271
 6785TIP3   OH220276   2.539   1.559   5.327
 6785TIP3    H120277   2.520   1.634   5.267
 6785TIP3    H220278   2.485   1.489   5.286
 6786TIP3   OH220279   3.234   1.648   4.948
 6786TIP3    H120280   3.304   1.637   5.017
 6786TIP3    H220281   3.287   1.687   4.876
 6787TIP3   OH220282   2.168   1.762   5.438
 6787TIP3    H120283   2.251   1.747   5.487
 6787TIP3    H220284   2.186   1.708   5.358
 6788TIP3   OH220285   2.610   1.959   5.229
 6788TIP3    H120286   2.704   1.935   5.243
 6788TIP3    H220287   2.572   1.874   5.197
 6789TIP3   OH220288   3.872   1.930   5.503
 6789TIP3    H120289   3.788   1.977   5.484
 6789TIP3    H220290   3.894   1.969   5.589
 6790TIP3   OH220291   2.531   1.543   5.764
 6790TIP3    H120292   2.474   1.584   5.697
 6790TIP3    H220293   2.479   1.562   5.845
 6791TIP3   OH220294   2.877   2.396   4.767
 6791TIP3    H120295   2.834   2.387   4.681
 6791TIP3    H220296   2.834   2.478   4.799
 6792TIP3   OH220297   2.636   2.319   5.554
 6792TIP3    H120298   2.579   2.389   5.593
 6792TIP3    H220299   2.682   2.369   5.483
 6793TIP3   OH220300   3.433   1.657   5.135
 6793TIP3    H120301   3.404   1.631   5.223
 6793TIP3    H220302   3.486   1.737   5.155
 6794TIP3   OH220303   2.404   1.658   5.547
 6794TIP3    H120304   2.461   1.734   5.573
 6794TIP3    H220305   2.457   1.621   5.473
 6795TIP3   OH220306   2.466   2.515   5.654
 6795TIP3    H120307   2.447   2.606   5.621
 6795TIP3    H220308   2.386   2.502   5.710
 6796TIP3   OH220309   1.857   2.204   4.891
 6796TIP3    H120310   1.816   2.234   4.808
 6796TIP3    H220311   1.887   2.290   4.929
 6797TIP3   OH220312   3.298   2.721   5.126
 6797TIP3    H120313   3.210   2.713   5.170
 6797TIP3    H220314   3.290   2.809   5.085
 6798TIP3   OH220315   3.596   1.611   5.494
 6798TIP3    H120316   3.509   1.646   5.466
 6798TIP3    H220317   3.656   1.649   5.426
 6799TIP3   OH220318   2.882   1.259   5.479
 6799TIP3    H120319   2.867   1.165   5.502
 6799TIP3    H220320   2.808   1.301   5.527
 6800TIP3   OH220321   3.001   2.761   4.802
 6800TIP3    H120322   3.053   2.680   4.782
 6800TIP3    H220323   3.062   2.829   4.765
 6801TIP3   OH220324   3.147   2.544   4.717
 6801TIP3    H120325   3.093   2.468   4.692
 6801TIP3    H220326   3.186   2.514   4.802
 6802TIP3   OH220327   3.527   2.631   5.477
 6802TIP3    H120328   3.511   2.554   5.419
 6802TIP3    H220329   3.505   2.706   5.417
 6803TIP3   OH220330   2.814   2.021   4.736
 6803TIP3    H120331   2.736   2.077   4.718
 6803TIP3    H220332   2.863   2.029   4.652
 6804TIP3   OH220333   2.775   1.813   4.446
 6804TIP3    H120334   2.838   1.866   4.499
 6804TIP3    H220335   2.838   1.754   4.399
 6805TIP3   OH220336   3.721   2.271   5.324
 6805TIP3    H120337   3.637   2.321   5.328
 6805TIP3    H220338   3.751   2.296   5.234
 6806TIP3   OH220339   3.166   2.106   4.704
 6806TIP3    H120340   3.111   2.132   4.781
 6806TIP3    H220341   3.251   2.086   4.748
 6807TIP3   OH220342   3.398   2.144   5.620
 6807TIP3    H120343   3.401   2.223   5.679
 6807TIP3    H220344   3.311   2.157   5.578
 6808TIP3   OH220345   2.397   2.102   5.123
 6808TIP3    H120346   2.361   2.045   5.053
 6808TIP3    H220347   2.476   2.052   5.154
 6809TIP3   OH220348   2.527   2.515   5.270
 6809TIP3    H120349   2.512   2.484   5.180
 6809TIP3    H220350   2.617   2.481   5.289
 6810TIP3   OH220351   2.532   2.078   5.473
 6810TIP3    H120352   2.569   2.058   5.385
 6810TIP3    H220353   2.575   2.164   5.495
 6811TIP3   OH220354   3.063   2.713   5.257
 6811TIP3    H120355   3.046   2.797   5.305
 6811TIP3    H220356   3.041   2.645   5.324
 6812TIP3   OH220357   2.670   2.655   5.787
 6812TIP3    H120358   2.609   2.707   5.843
 6812TIP3    H220359   2.610   2.585   5.754
 6813TIP3   OH220360   3.004   1.966   4.532
 6813TIP3    H120361   3.063   2.027   4.582
 6813TIP3    H220362   3.030   1.987   4.439
 6814TIP3   OH220363   2.427   2.186   5.909
 6814TIP3    H120364   2.433   2.277   5.945
 6814TIP3    H220365   2.332   2.168   5.923
 6815TIP3   OH220366   2.753   2.641   4.805
 6815TIP3    H120367   2.834   2.694   4.814
 6815TIP3    H220368   2.691   2.706   4.769
 6816TIP3   OH220369   2.460   2.805   5.890
 6816TIP3    H120370   2.428   2.805   5.798
 6816TIP3    H220371   2.379   2.779   5.941
 6817TIP3   OH220372   3.520   1.205   4.581
 6817TIP3    H120373   3.440   1.231   4.631
 6817TIP3    H220374   3.537   1.287   4.530
 6818TIP3   OH220375   2.269   1.945   4.914
 6818TIP3    H120376   2.199   1.995   4.866
 6818TIP3    H220377   2.219   1.868   4.944
 6819TIP3   OH220378   3.320   2.572   4.128
 6819TIP3    H120379   3.328   2.669   4.116
 6819TIP3    H220380   3.414   2.545   4.117
 6820TIP3   OH220381   2.042   2.334   5.837
 6820TIP3    H120382   1.976   2.315   5.767
 6820TIP3    H220383   2.081   2.247   5.856
 6821TIP3   OH220384   1.899   2.524   5.472
 6821TIP3    H120385   1.995   2.528   5.463
 6821TIP3    H220386   1.881   2.606   5.521
 6822TIP3   OH220387   3.765   2.982   5.529
 6822TIP3    H120388   3.762   2.885   5.543
 6822TIP3    H220389   3.680   3.008   5.572
 6823TIP3   OH220390   2.869   2.768   5.648
 6823TIP3    H120391   2.865   2.858   5.687
 6823TIP3    H220392   2.801   2.723   5.704
 6824TIP3   OH220393   2.635   2.890   4.613
 6824TIP3    H120394   2.585   2.879   4.529
 6824TIP3    H220395   2.602   2.977   4.644
 6825TIP3   OH220396   2.070   2.739   4.997
 6825TIP3    H120397   2.119   2.732   5.082
 6825TIP3    H220398   2.009   2.664   5.005
 6826TIP3   OH220399   2.830   2.793   4.247
 6826TIP3    H120400   2.890   2.723   4.213
 6826TIP3    H220401   2.865   2.806   4.338
 6827TIP3   OH220402   2.884   2.842   4.516
 6827TIP3    H120403   2.796   2.852   4.558
 6827TIP3    H220404   2.938   2.813   4.591
 6828TIP3   OH220405   3.658   2.106   5.802
 6828TIP3    H120406   3.570   2.126   5.768
 6828TIP3    H220407   3.664   2.010   5.789
 6829TIP3   OH220408   2.248   2.516   5.818
 6829TIP3    H120409   2.297   2.501   5.902
 6829TIP3    H220410   2.173   2.454   5.827
 6830TIP3   OH220411   2.648   1.338   5.612
 6830TIP3    H120412   2.558   1.310   5.583
 6830TIP3    H220413   2.624   1.420   5.659
 6831TIP3   OH220414   3.184   1.447   5.803
 6831TIP3    H120415   3.253   1.428   5.869
 6831TIP3    H220416   3.101   1.435   5.854
 6832TIP3   OH220417   3.419   1.887   5.723
 6832TIP3    H120418   3.366   1.881   5.805
 6832TIP3    H220419   3.395   1.975   5.688
 6833TIP3   OH220420   3.079   2.001   4.274
 6833TIP3    H120421   3.046   1.985   4.184
 6833TIP3    H220422   3.160   2.051   4.256
 6834TIP3   OH220423   2.801   1.389   4.585
 6834TIP3    H120424   2.767   1.384   4.676
 6834TIP3    H220425   2.745   1.325   4.538
 6835TIP3   OH220426   2.577   1.855   5.622
 6835TIP3    H120427   2.543   1.884   5.709
 6835TIP3    H220428   2.562   1.937   5.569
 6836TIP3   OH220429   2.465   1.739   5.139
 6836TIP3    H120430   2.372   1.717   5.160
 6836TIP3    H220431   2.474   1.696   5.051
 6837TIP3   OH220432   2.950   1.819   4.867
 6837TIP3    H120433   2.901   1.894   4.826
 6837TIP3    H220434   3.009   1.792   4.794
 6838TIP3   OH220435   3.154   2.086   5.925
 6838TIP3    H120436   3.107   2.046   6.000
 6838TIP3    H220437   3.223   2.136   5.970
 6839TIP3   OH220438   3.109   1.849   5.107
 6839TIP3    H120439   3.047   1.884   5.040
 6839TIP3    H220440   3.142   1.771   5.058
 6840TIP3   OH220441   2.391   1.882   5.836
 6840TIP3    H120442   2.443   1.945   5.888
 6840TIP3    H220443   2.389   1.804   5.893
 6841TIP3   OH220444   2.457   1.358   4.550
 6841TIP3    H120445   2.441   1.363   4.647
 6841TIP3    H220446   2.380   1.409   4.518
 6842TIP3   OH220447   1.995   1.397   5.418
 6842TIP3    H120448   2.064   1.436   5.476
 6842TIP3    H220449   2.042   1.382   5.335
 6843TIP3   OH220450   1.954   1.385   4.933
 6843TIP3    H120451   1.999   1.425   4.854
 6843TIP3    H220452   1.895   1.459   4.956
 6844TIP3   OH220453   3.115   2.097   5.524
 6844TIP3    H120454   3.151   2.025   5.468
 6844TIP3    H220455   3.086   2.046   5.603
 6845TIP3   OH220456   2.792   1.550   5.196
 6845TIP3    H120457   2.713   1.557   5.253
 6845TIP3    H220458   2.864   1.559   5.262
 6846TIP3   OH220459   2.226   1.622   5.207
 6846TIP3    H120460   2.131   1.631   5.180
 6846TIP3    H220461   2.247   1.530   5.185
 6847TIP3   OH220462   2.492   1.606   4.900
 6847TIP3    H120463   2.584   1.634   4.882
 6847TIP3    H220464   2.444   1.634   4.819
 6848TIP3   OH220465   3.288   1.636   5.394
 6848TIP3    H120466   3.265   1.649   5.490
 6848TIP3    H220467   3.212   1.581   5.367
 6849TIP3   OH220468   2.347   1.640   4.675
 6849TIP3    H120469   2.275   1.600   4.623
 6849TIP3    H220470   2.397   1.685   4.603
 6850TIP3   OH220471   3.458   3.327   5.624
 6850TIP3    H120472   3.452   3.352   5.531
 6850TIP3    H220473   3.535   3.379   5.654
 6851TIP3   OH220474   2.410   2.435   6.043
 6851TIP3    H120475   2.493   2.464   6.087
 6851TIP3    H220476   2.348   2.441   6.118
 6852TIP3   OH220477   2.872   1.888   5.298
 6852TIP3    H120478   2.954   1.858   5.255
 6852TIP3    H220479   2.880   1.851   5.387
 6853TIP3   OH220480   2.386   1.378   5.184
 6853TIP3    H120481   2.351   1.302   5.235
 6853TIP3    H220482   2.438   1.334   5.116
 6854TIP3   OH220483   2.849   1.792   5.590
 6854TIP3    H120484   2.761   1.832   5.604
 6854TIP3    H220485   2.909   1.853   5.639
 6855TIP3   OH220486   2.589   2.175   4.684
 6855TIP3    H120487   2.513   2.114   4.670
 6855TIP3    H220488   2.567   2.212   4.773
 6856TIP3   OH220489   3.487   2.414   5.309
 6856TIP3    H120490   3.510   2.467   5.230
 6856TIP3    H220491   3.401   2.374   5.283
 6857TIP3   OH220492   3.053   1.489   4.549
 6857TIP3    H120493   2.956   1.475   4.558
 6857TIP3    H220494   3.064   1.583   4.572
 6858TIP3   OH220495   2.996   2.498   5.692
 6858TIP3    H120496   3.013   2.481   5.787
 6858TIP3    H220497   2.940   2.577   5.702
 6859TIP3   OH220498   3.115   1.738   4.650
 6859TIP3    H120499   3.210   1.748   4.667
 6859TIP3    H220500   3.093   1.820   4.601
 6860TIP3   OH220501   2.274   2.192   5.357
 6860TIP3    H120502   2.318   2.169   5.272
 6860TIP3    H220503   2.330   2.145   5.421
 6861TIP3   OH220504   2.731   2.327   4.506
 6861TIP3    H120505   2.682   2.413   4.508
 6861TIP3    H220506   2.677   2.274   4.568
 6862TIP3   OH220507   2.162   2.122   5.975
 6862TIP3    H120508   2.182   2.108   6.069
 6862TIP3    H220509   2.094   2.054   5.959
 6863TIP3   OH220510   2.889   2.202   6.013
 6863TIP3    H120511   2.856   2.185   5.924
 6863TIP3    H220512   2.929   2.291   6.001
 6864TIP3   OH220513   3.144   2.761   5.585
 6864TIP3    H120514   3.047   2.751   5.594
 6864TIP3    H220515   3.164   2.812   5.666
 6865TIP3   OH220516   3.551   1.834   4.487
 6865TIP3    H120517   3.490   1.790   4.423
 6865TIP3    H220518   3.548   1.924   4.447
 6866TIP3   OH220519   3.776   2.692   5.565
 6866TIP3    H120520   3.678   2.685   5.556
 6866TIP3    H220521   3.802   2.661   5.475
 6867TIP3   OH220522   3.258   2.650   4.395
 6867TIP3    H120523   3.228   2.585   4.460
 6867TIP3    H220524   3.269   2.599   4.313
 6868TIP3   OH220525   3.252   2.281   5.221
 6868TIP3    H120526   3.159   2.257   5.240
 6868TIP3    H220527   3.284   2.199   5.179
 6869TIP3   OH220528   2.383   2.506   4.980
 6869TIP3    H120529   2.380   2.588   4.927
 6869TIP3    H220530   2.290   2.496   5.003
 6870TIP3   OH220531   1.949   1.808   4.693
 6870TIP3    H120532   1.992   1.894   4.713
 6870TIP3    H220533   1.871   1.813   4.753
 6871TIP3   OH220534   2.510   2.267   4.924
 6871TIP3    H120535   2.478   2.358   4.941
 6871TIP3    H220536   2.476   2.221   5.003
 6872TIP3   OH220537   2.652   2.847   5.451
 6872TIP3    H120538   2.695   2.920   5.402
 6872TIP3    H220539   2.727   2.813   5.502
 6873TIP3   OH220540   2.301   2.744   4.836
 6873TIP3    H120541   2.215   2.755   4.882
 6873TIP3    H220542   2.335   2.836   4.840
 6874TIP3   OH220543   3.032   2.481   5.423
 6874TIP3    H120544   3.021   2.483   5.521
 6874TIP3    H220545   3.117   2.438   5.415
 6875TIP3   OH220546   3.016   2.376   4.296
 6875TIP3    H120547   3.070   2.349   4.374
 6875TIP3    H220548   2.927   2.354   4.327
 6876TIP3   OH220549   3.286   3.013   5.460
 6876TIP3    H120550   3.204   2.960   5.454
 6876TIP3    H220551   3.270   3.078   5.388
 6877TIP3   OH220552   3.351   2.849   4.114
 6877TIP3    H120553   3.388   2.925   4.066
 6877TIP3    H220554   3.271   2.892   4.150
 6878TIP3   OH220555   2.371   1.622   5.979
 6878TIP3    H120556   2.275   1.628   5.993
 6878TIP3    H220557   2.400   1.571   6.057
 6879TIP3   OH220558   3.177   2.299   4.504
 6879TIP3    H120559   3.168   2.240   4.581
 6879TIP3    H220560   3.274   2.303   4.496
 6880TIP3   OH220561   2.090   2.710   5.610
 6880TIP3    H120562   2.147   2.644   5.652
 6880TIP3    H220563   2.115   2.791   5.657
 6881TIP3   OH220564   2.380   2.355   4.295
 6881TIP3    H120565   2.391   2.261   4.273
 6881TIP3    H220566   2.359   2.349   4.391
 6882TIP3   OH220567   2.323   2.361   4.566
 6882TIP3    H120568   2.394   2.340   4.628
 6882TIP3    H220569   2.322   2.460   4.573
 6883TIP3   OH220570   2.054   2.054   4.773
 6883TIP3    H120571   1.988   2.099   4.829
 6883TIP3    H220572   2.067   2.122   4.704
 6884TIP3   OH220573   3.226   1.677   5.655
 6884TIP3    H120574   3.287   1.731   5.708
 6884TIP3    H220575   3.206   1.603   5.715
 6885TIP3   OH220576   3.095   1.436   4.833
 6885TIP3    H120577   3.084   1.463   4.740
 6885TIP3    H220578   3.136   1.517   4.871
 6886TIP3   OH220579   2.589   2.557   4.513
 6886TIP3    H120580   2.502   2.580   4.551
 6886TIP3    H220581   2.608   2.639   4.464
 6887TIP3   OH220582   2.772   1.617   4.926
 6887TIP3    H120583   2.835   1.690   4.909
 6887TIP3    H220584   2.780   1.608   5.023
 6888TIP3   OH220585   3.044   1.933   5.732
 6888TIP3    H120586   3.070   1.997   5.803
 6888TIP3    H220587   3.099   1.857   5.758
 6889TIP3   OH220588   2.923   1.343   5.032
 6889TIP3    H120589   2.918   1.417   5.096
 6889TIP3    H220590   2.987   1.380   4.967
 6890TIP3   OH220591   2.334   2.631   4.586
 6890TIP3    H120592   2.306   2.702   4.524
 6890TIP3    H220593   2.320   2.675   4.673
 6891TIP3   OH220594   2.438   1.345   4.825
 6891TIP3    H120595   2.423   1.436   4.860
 6891TIP3    H220596   2.535   1.339   4.840
 6892TIP3   OH220597   3.684   1.835   5.722
 6892TIP3    H120598   3.585   1.836   5.729
 6892TIP3    H220599   3.694   1.805   5.631
 6893TIP3   OH220600   3.338   2.031   5.106
 6893TIP3    H120601   3.261   1.975   5.124
 6893TIP3    H220602   3.409   1.986   5.156
 6894TIP3   OH220603   2.051   2.256   4.577
 6894TIP3    H120604   2.115   2.329   4.586
 6894TIP3    H220605   2.098   2.203   4.509
 6895TIP3   OH220606   1.991   1.537   4.707
 6895TIP3    H120607   2.001   1.634   4.709
 6895TIP3    H220608   1.903   1.529   4.669
 6896TIP3   OH220609   3.309   2.990   5.052
 6896TIP3    H120610   3.266   3.037   4.977
 6896TIP3    H220611   3.403   3.009   5.032
 6897TIP3   OH220612   2.385   1.257   5.579
 6897TIP3    H120613   2.352   1.224   5.493
 6897TIP3    H220614   2.373   1.180   5.637
 6898TIP3   OH220615   1.910   2.466   4.958
 6898TIP3    H120616   1.856   2.504   5.029
 6898TIP3    H220617   1.878   2.516   4.879
 6899TIP3   OH220618   2.082   3.027   6.037
 6899TIP3    H120619   2.169   3.029   6.083
 6899TIP3    H220620   2.065   2.932   6.033
 6900TIP3   OH220621   2.556   2.977   6.083
 6900TIP3    H120622   2.651   2.962   6.086
 6900TIP3    H220623   2.530   2.918   6.010
 6901TIP3   OH220624   2.539   2.558   4.200
 6901TIP3    H120625   2.485   2.487   4.242
 6901TIP3    H220626   2.616   2.507   4.171
 6902TIP3   OH220627   3.194   2.882   5.838
 6902TIP3    H120628   3.225   2.800   5.881
 6902TIP3    H220629   3.269   2.943   5.853
 6903TIP3   OH220630   2.976   2.595   4.119
 6903TIP3    H120631   3.019   2.533   4.181
 6903TIP3    H220632   3.035   2.593   4.042
 6904TIP3   OH220633   2.208   2.427   6.237
 6904TIP3    H120634   2.223   2.331   6.241
 6904TIP3    H220635   2.122   2.431   6.190
 6905TIP3   OH220636   2.189   2.071   4.432
 6905TIP3    H120637   2.248   2.049   4.506
 6905TIP3    H220638   2.256   2.078   4.359
 6906TIP3   OH220639   2.705   2.275   4.237
 6906TIP3    H120640   2.705   2.288   4.334
 6906TIP3    H220641   2.700   2.177   4.232
 6907TIP3   OH220642   3.311   2.519   5.617
 6907TIP3    H120643   3.382   2.569   5.574
 6907TIP3    H220644   3.236   2.582   5.610
 6908TIP3   OH220645   2.329   2.158   6.221
 6908TIP3    H120646   2.413   2.127   6.184
 6908TIP3    H220647   2.358   2.194   6.308
 6909TIP3   OH220648   2.388   1.983   4.646
 6909TIP3    H120649   2.362   1.950   4.734
 6909TIP3    H220650   2.428   1.905   4.604
 6910TIP3   OH220651   2.644   2.022   5.860
 6910TIP3    H120652   2.583   2.097   5.876
 6910TIP3    H220653   2.709   2.065   5.799
 6911TIP3   OH220654   2.499   1.772   4.490
 6911TIP3    H120655   2.472   1.786   4.397
 6911TIP3    H220656   2.596   1.781   4.483
 6912TIP3   OH220657   3.314   2.101   4.159
 6912TIP3    H120658   3.294   2.060   4.073
 6912TIP3    H220659   3.282   2.193   4.140
 6913TIP3   OH220660   2.785   1.836   6.005
 6913TIP3    H120661   2.790   1.759   5.945
 6913TIP3    H220662   2.742   1.903   5.947
 6914TIP3   OH220663   2.792   1.618   5.810
 6914TIP3    H120664   2.819   1.666   5.729
 6914TIP3    H220665   2.697   1.600   5.791
 6915TIP3   OH220666   2.810   2.152   5.691
 6915TIP3    H120667   2.898   2.177   5.661
 6915TIP3    H220668   2.754   2.219   5.645
 6916TIP3   OH220669   3.398   2.130   6.070
 6916TIP3    H120670   3.457   2.054   6.070
 6916TIP3    H220671   3.450   2.199   6.027
 6917TIP3   OH220672   3.447   2.359   5.792
 6917TIP3    H120673   3.380   2.416   5.746
 6917TIP3    H220674   3.529   2.395   5.753
 6918TIP3   OH220675   2.666   1.940   6.242
 6918TIP3    H120676   2.598   1.871   6.251
 6918TIP3    H220677   2.700   1.924   6.152
 6919TIP3   OH220678   2.920   1.381   5.883
 6919TIP3    H120679   2.873   1.464   5.859
 6919TIP3    H220680   2.850   1.314   5.872
 6920TIP3   OH220681   3.053   1.882   6.093
 6920TIP3    H120682   3.041   1.880   6.189
 6920TIP3    H220683   2.961   1.868   6.063
 6921TIP3   OH220684   3.283   1.811   5.944
 6921TIP3    H120685   3.209   1.839   6.002
 6921TIP3    H220686   3.356   1.801   6.007
 6922TIP3   OH220687   3.524   1.783   6.102
 6922TIP3    H120688   3.530   1.687   6.119
 6922TIP3    H220689   3.512   1.820   6.192
 6923TIP3   OH220690   2.500   1.719   6.293
 6923TIP3    H120691   2.512   1.628   6.260
 6923TIP3    H220692   2.539   1.712   6.383
 6924TIP3   OH220693   3.011   1.389   6.142
 6924TIP3    H120694   3.080   1.319   6.133
 6924TIP3    H220695   2.973   1.387   6.052
 6925TIP3   OH220696   3.077   1.603   6.303
 6925TIP3    H120697   3.056   1.536   6.235
 6925TIP3    H220698   3.002   1.666   6.293
 6926TIP3   OH220699   2.304   2.829   4.395
 6926TIP3    H120700   2.400   2.825   4.378
 6926TIP3    H220701   2.277   2.887   4.321
 6927TIP3   OH220702   1.782   2.219   4.610
 6927TIP3    H120703   1.877   2.241   4.598
 6927TIP3    H220704   1.777   2.131   4.568
 6928TIP3   OH220705   1.705   2.828   5.028
 6928TIP3    H120706   1.637   2.770   4.988
 6928TIP3    H220707   1.746   2.767   5.092
 6929TIP3   OH220708   1.840   2.670   5.211
 6929TIP3    H120709   1.820   2.607   5.282
 6929TIP3    H220710   1.891   2.736   5.261
 6930TIP3   OH220711   3.568   3.070   5.018
 6930TIP3    H120712   3.585   3.111   5.105
 6930TIP3    H220713   3.617   3.130   4.959
 6931TIP3   OH220714   3.586   3.099   5.299
 6931TIP3    H120715   3.543   3.011   5.294
 6931TIP3    H220716   3.663   3.078   5.354
 6932TIP3   OH220717   3.635   2.777   5.876
 6932TIP3    H120718   3.562   2.786   5.940
 6932TIP3    H220719   3.676   2.866   5.878
 6933TIP3   OH220720   3.456   2.289   4.487
 6933TIP3    H120721   3.520   2.357   4.457
 6933TIP3    H220722   3.501   2.253   4.566
 6934TIP3   OH220723   3.584   2.155   4.691
 6934TIP3    H120724   3.515   2.117   4.751
 6934TIP3    H220725   3.648   2.194   4.754
 6935TIP3   OH220726   3.642   2.555   5.126
 6935TIP3    H120727   3.691   2.487   5.075
 6935TIP3    H220728   3.637   2.629   5.062
 6936TIP3   OH220729   3.462   2.849   5.318
 6936TIP3    H120730   3.391   2.894   5.367
 6936TIP3    H220731   3.413   2.806   5.245
 6937TIP3   OH220732   3.518   2.066   4.338
 6937TIP3    H120733   3.446   2.069   4.271
 6937TIP3    H220734   3.492   2.142   4.393
 6938TIP3   OH220735   3.389   1.738   4.291
 6938TIP3    H120736   3.344   1.779   4.217
 6938TIP3    H220737   3.366   1.644   4.278
 6939TIP3   OH220738   3.393   2.019   4.838
 6939TIP3    H120739   3.402   1.923   4.832
 6939TIP3    H220740   3.378   2.033   4.934
 6940TIP3   OH220741   2.019   2.083   5.589
 6940TIP3    H120742   2.016   2.054   5.495
 6940TIP3    H220743   2.117   2.087   5.603
 6941TIP3   OH220744   3.690   2.444   5.694
 6941TIP3    H120745   3.760   2.377   5.680
 6941TIP3    H220746   3.713   2.514   5.630
 6942TIP3   OH220747   3.869   2.240   5.696
 6942TIP3    H120748   3.794   2.195   5.741
 6942TIP3    H220749   3.941   2.177   5.717
 6943TIP3   OH220750   3.336   1.471   4.273
 6943TIP3    H120751   3.414   1.445   4.328
 6943TIP3    H220752   3.266   1.412   4.305
 6944TIP3   OH220753   3.391   1.733   4.729
 6944TIP3    H120754   3.434   1.645   4.742
 6944TIP3    H220755   3.448   1.769   4.659
 6945TIP3   OH220756   3.550   1.898   5.228
 6945TIP3    H120757   3.635   1.924   5.187
 6945TIP3    H220758   3.563   1.940   5.316
 6946TIP3   OH220759   3.621   2.048   5.456
 6946TIP3    H120760   3.545   2.081   5.509
 6946TIP3    H220761   3.652   2.131   5.414
 6947TIP3   OH220762   2.234   1.767   6.249
 6947TIP3    H120763   2.331   1.767   6.259
 6947TIP3    H220764   2.212   1.683   6.294
 6948TIP3   OH220765   4.076   1.646   6.014
 6948TIP3    H120766   4.135   1.581   5.970
 6948TIP3    H220767   4.041   1.696   5.937
 6949TIP3   OH220768   3.501   1.483   4.768
 6949TIP3    H120769   3.549   1.468   4.852
 6949TIP3    H220770   3.440   1.407   4.768
 6950TIP3   OH220771   2.200   1.467   5.588
 6950TIP3    H120772   2.264   1.394   5.598
 6950TIP3    H220773   2.260   1.544   5.581
 6951TIP3   OH220774   1.999   1.738   5.662
 6951TIP3    H120775   2.050   1.741   5.579
 6951TIP3    H220776   2.020   1.823   5.701
 6952TIP3   OH220777   3.940   1.778   5.821
 6952TIP3    H120778   3.858   1.824   5.848
 6952TIP3    H220779   3.902   1.710   5.762
 6953TIP3   OH220780   3.576   1.413   4.404
 6953TIP3    H120781   3.619   1.345   4.349
 6953TIP3    H220782   3.642   1.485   4.404
 6954TIP3   OH220783   1.985   1.232   5.155
 6954TIP3    H120784   1.896   1.235   5.193
 6954TIP3    H220785   1.978   1.299   5.083
 6955TIP3   OH220786   3.145   2.944   4.669
 6955TIP3    H120787   3.201   2.943   4.589
 6955TIP3    H220788   3.185   3.017   4.721
 6956TIP3   OH220789   2.203   1.314   5.973
 6956TIP3    H120790   2.156   1.320   6.058
 6956TIP3    H220791   2.141   1.359   5.914
 6957TIP3   OH220792   2.243   2.752   6.053
 6957TIP3    H120793   2.148   2.730   6.040
 6957TIP3    H220794   2.254   2.739   6.147
 6958TIP3   OH220795   2.425   2.787   5.602
 6958TIP3    H120796   2.380   2.865   5.563
 6958TIP3    H220797   2.513   2.800   5.560
 6959TIP3   OH220798   2.862   3.031   5.740
 6959TIP3    H120799   2.904   3.030   5.829
 6959TIP3    H220800   2.928   3.082   5.689
 6960TIP3   OH220801   3.045   3.182   5.604
 6960TIP3    H120802   3.115   3.137   5.555
 6960TIP3    H220803   3.098   3.240   5.663
 6961TIP3   OH220804   3.842   1.542   5.698
 6961TIP3    H120805   3.752   1.538   5.661
 6961TIP3    H220806   3.872   1.449   5.688
 6962TIP3   OH220807   2.098   3.037   5.632
 6962TIP3    H120808   2.008   3.068   5.608
 6962TIP3    H220809   2.115   3.095   5.708
 6963TIP3   OH220810   2.335   3.020   5.487
 6963TIP3    H120811   2.247   3.032   5.529
 6963TIP3    H220812   2.317   3.054   5.396
 6964TIP3   OH220813   2.762   3.046   5.283
 6964TIP3    H120814   2.692   3.064   5.216
 6964TIP3    H220815   2.774   3.135   5.322
 6965TIP3   OH220816   3.031   2.984   5.333
 6965TIP3    H120817   2.937   3.004   5.317
 6965TIP3    H220818   3.074   3.060   5.290
 6966TIP3   OH220819   3.234   3.176   5.247
 6966TIP3    H120820   3.220   3.262   5.202
 6966TIP3    H220821   3.261   3.119   5.172
 6967TIP3   OH220822   2.011   2.833   5.366
 6967TIP3    H120823   2.035   2.806   5.458
 6967TIP3    H220824   2.085   2.792   5.317
 6968TIP3   OH220825   2.208   2.707   5.229
 6968TIP3    H120826   2.223   2.624   5.280
 6968TIP3    H220827   2.299   2.744   5.228
 6969TIP3   OH220828   2.472   2.796   5.239
 6969TIP3    H120829   2.504   2.704   5.233
 6969TIP3    H220830   2.522   2.825   5.318
 6970TIP3   OH220831   3.044   1.454   5.312
 6970TIP3    H120832   3.006   1.384   5.368
 6970TIP3    H220833   3.124   1.411   5.276
 6971TIP3   OH220834   3.564   1.330   5.217
 6971TIP3    H120835   3.603   1.386   5.146
 6971TIP3    H220836   3.473   1.365   5.221
 6972TIP3   OH220837   3.663   1.434   4.985
 6972TIP3    H120838   3.738   1.383   4.948
 6972TIP3    H220839   3.698   1.526   4.972
 6973TIP3   OH220840   2.296   1.162   5.330
 6973TIP3    H120841   2.203   1.131   5.336
 6973TIP3    H220842   2.343   1.077   5.328
 6974TIP3   OH220843   2.088   1.037   4.983
 6974TIP3    H120844   2.110   1.098   4.910
 6974TIP3    H220845   2.055   1.100   5.051
 6975TIP3   OH220846   2.743   1.196   5.214
 6975TIP3    H120847   2.799   1.253   5.158
 6975TIP3    H220848   2.761   1.233   5.301
 6976TIP3   OH220849   3.276   1.344   5.201
 6976TIP3    H120850   3.293   1.306   5.114
 6976TIP3    H220851   3.268   1.264   5.257
 6977TIP3   OH220852   3.315   1.271   4.761
 6977TIP3    H120853   3.233   1.318   4.784
 6977TIP3    H220854   3.300   1.185   4.804
 6978TIP3   OH220855   1.799   2.612   4.759
 6978TIP3    H120856   1.711   2.583   4.728
 6978TIP3    H220857   1.794   2.706   4.734
 6979TIP3   OH220858   2.201   1.195   4.745
 6979TIP3    H120859   2.251   1.136   4.686
 6979TIP3    H220860   2.271   1.251   4.783
 6980TIP3   OH220861   2.718   1.359   4.850
 6980TIP3    H120862   2.784   1.336   4.918
 6980TIP3    H220863   2.722   1.457   4.863
 6981TIP3   OH220864   2.572   2.790   4.346
 6981TIP3    H120865   2.659   2.815   4.309
 6981TIP3    H220866   2.550   2.716   4.285
 6982TIP3   OH220867   3.295   2.918   4.437
 6982TIP3    H120868   3.285   2.820   4.427
 6982TIP3    H220869   3.245   2.950   4.359
 6983TIP3   OH220870   2.502   1.439   6.219
 6983TIP3    H120871   2.466   1.372   6.280
 6983TIP3    H220872   2.596   1.441   6.250
 6984TIP3   OH220873   2.750   1.443   6.342
 6984TIP3    H120874   2.838   1.426   6.303
 6984TIP3    H220875   2.743   1.370   6.408
 6985TIP3   OH220876   1.871   2.625   4.397
 6985TIP3    H120877   1.874   2.656   4.489
 6985TIP3    H220878   1.960   2.585   4.385
 6986TIP3   OH220879   3.579   1.507   6.131
 6986TIP3    H120880   3.597   1.478   6.223
 6986TIP3    H220881   3.669   1.504   6.092
 6987TIP3   OH220882   3.514   3.057   5.623
 6987TIP3    H120883   3.436   3.028   5.570
 6987TIP3    H220884   3.496   3.153   5.628
 6988TIP3   OH220885   4.784   2.432   4.387
 6988TIP3    H120886   4.752   2.522   4.365
 6988TIP3    H220887   4.708   2.380   4.353
 6989TIP3   OH220888   4.786   2.431   4.773
 6989TIP3    H120889   4.819   2.408   4.861
 6989TIP3    H220890   4.741   2.350   4.745
 6990TIP3   OH220891   4.081   2.322   5.135
 6990TIP3    H120892   4.111   2.253   5.197
 6990TIP3    H220893   4.156   2.383   5.137
 6991TIP3   OH220894   5.030   2.736   4.455
 6991TIP3    H120895   5.010   2.671   4.524
 6991TIP3    H220896   5.059   2.813   4.508
 6992TIP3   OH220897   4.057   2.736   4.856
 6992TIP3    H120898   4.047   2.638   4.859
 6992TIP3    H220899   4.154   2.744   4.850
 6993TIP3   OH220900   3.761   1.933   4.640
 6993TIP3    H120901   3.716   2.017   4.662
 6993TIP3    H220902   3.688   1.887   4.595
 6994TIP3   OH220903   3.817   2.225   4.822
 6994TIP3    H120904   3.869   2.148   4.855
 6994TIP3    H220905   3.880   2.268   4.762
 6995TIP3   OH220906   4.679   3.196   4.470
 6995TIP3    H120907   4.720   3.122   4.421
 6995TIP3    H220908   4.664   3.156   4.557
 6996TIP3   OH220909   4.579   2.657   4.820
 6996TIP3    H120910   4.621   2.583   4.773
 6996TIP3    H220911   4.661   2.705   4.847
 6997TIP3   OH220912   5.595   1.972   4.820
 6997TIP3    H120913   5.623   2.057   4.859
 6997TIP3    H220914   5.620   1.984   4.727
 6998TIP3   OH220915   4.996   2.152   4.851
 6998TIP3    H120916   5.039   2.066   4.865
 6998TIP3    H220917   4.962   2.140   4.760
 6999TIP3   OH220918   4.338   1.817   4.814
 6999TIP3    H120919   4.316   1.890   4.752
 6999TIP3    H220920   4.287   1.744   4.772
 7000TIP3   OH220921   5.027   1.912   4.434
 7000TIP3    H120922   5.098   1.898   4.501
 7000TIP3    H220923   5.080   1.944   4.359
 7001TIP3   OH220924   3.965   2.019   4.924
 7001TIP3    H120925   4.048   2.001   4.973
 7001TIP3    H220926   3.980   1.964   4.844
 7002TIP3   OH220927   4.405   2.216   4.719
 7002TIP3    H120928   4.499   2.192   4.730
 7002TIP3    H220929   4.367   2.132   4.686
 7003TIP3   OH220930   5.666   2.182   4.997
 7003TIP3    H120931   5.585   2.233   4.979
 7003TIP3    H220932   5.707   2.234   5.069
 7004TIP3   OH220933   4.328   1.801   5.252
 7004TIP3    H120934   4.270   1.839   5.183
 7004TIP3    H220935   4.274   1.819   5.332
 7005TIP3   OH220936   4.671   2.651   4.256
 7005TIP3    H120937   4.630   2.639   4.169
 7005TIP3    H220938   4.627   2.734   4.286
 7006TIP3   OH220939   4.434   2.578   5.041
 7006TIP3    H120940   4.374   2.647   5.077
 7006TIP3    H220941   4.477   2.625   4.967
 7007TIP3   OH220942   5.229   1.919   4.614
 7007TIP3    H120943   5.240   1.857   4.687
 7007TIP3    H220944   5.284   1.995   4.643
 7008TIP3   OH220945   4.202   1.915   5.033
 7008TIP3    H120946   4.262   1.989   5.057
 7008TIP3    H220947   4.252   1.876   4.958
 7009TIP3   OH220948   4.266   2.775   5.142
 7009TIP3    H120949   4.242   2.863   5.106
 7009TIP3    H220950   4.186   2.757   5.196
 7010TIP3   OH220951   3.653   2.461   4.378
 7010TIP3    H120952   3.612   2.491   4.295
 7010TIP3    H220953   3.684   2.547   4.415
 7011TIP3   OH220954   5.095   2.978   4.616
 7011TIP3    H120955   5.006   2.970   4.657
 7011TIP3    H220956   5.087   3.065   4.572
 7012TIP3   OH220957   5.379   1.880   4.983
 7012TIP3    H120958   5.294   1.894   4.939
 7012TIP3    H220959   5.444   1.909   4.915
 7013TIP3   OH220960   4.681   1.515   4.970
 7013TIP3    H120961   4.662   1.420   4.985
 7013TIP3    H220962   4.604   1.556   5.015
 7014TIP3   OH220963   4.795   3.020   4.289
 7014TIP3    H120964   4.846   2.938   4.270
 7014TIP3    H220965   4.857   3.086   4.251
 7015TIP3   OH220966   4.941   2.805   4.203
 7015TIP3    H120967   4.898   2.725   4.170
 7015TIP3    H220968   4.980   2.773   4.288
 7016TIP3   OH220969   5.317   2.887   4.963
 7016TIP3    H120970   5.306   2.811   4.902
 7016TIP3    H220971   5.300   2.963   4.904
 7017TIP3   OH220972   4.614   2.282   4.224
 7017TIP3    H120973   4.534   2.336   4.204
 7017TIP3    H220974   4.659   2.281   4.138
 7018TIP3   OH220975   4.571   2.072   3.931
 7018TIP3    H120976   4.637   2.123   3.981
 7018TIP3    H220977   4.629   2.008   3.885
 7019TIP3   OH220978   5.515   2.524   4.810
 7019TIP3    H120979   5.431   2.576   4.813
 7019TIP3    H220980   5.548   2.550   4.722
 7020TIP3   OH220981   4.962   2.366   4.190
 7020TIP3    H120982   4.907   2.390   4.268
 7020TIP3    H220983   5.046   2.342   4.233
 7021TIP3   OH220984   5.194   2.398   5.109
 7021TIP3    H120985   5.193   2.482   5.158
 7021TIP3    H220986   5.107   2.402   5.065
 7022TIP3   OH220987   4.193   2.360   4.611
 7022TIP3    H120988   4.153   2.303   4.542
 7022TIP3    H220989   4.270   2.307   4.640
 7023TIP3   OH220990   4.323   2.773   4.756
 7023TIP3    H120991   4.304   2.742   4.666
 7023TIP3    H220992   4.412   2.736   4.773
 7024TIP3   OH220993   4.332   2.333   4.964
 7024TIP3    H120994   4.363   2.310   4.874
 7024TIP3    H220995   4.373   2.420   4.980
 7025TIP3   OH220996   4.857   2.972   4.742
 7025TIP3    H120997   4.841   3.054   4.792
 7025TIP3    H220998   4.837   2.902   4.807
 7026TIP3   OH220999   4.469   2.888   5.291
 7026TIP3    H121000   4.406   2.950   5.335
 7026TIP3    H221001   4.405   2.836   5.238
 7027TIP3   OH221002   4.798   2.224   4.018
 7027TIP3    H121003   4.858   2.285   4.068
 7027TIP3    H221004   4.825   2.245   3.925
 7028TIP3   OH221005   4.224   2.440   5.395
 7028TIP3    H121006   4.229   2.530   5.433
 7028TIP3    H221007   4.128   2.422   5.409
 7029TIP3   OH221008   4.549   2.898   4.293
 7029TIP3    H121009   4.631   2.951   4.300
 7029TIP3    H221010   4.487   2.961   4.254
 7030TIP3   OH221011   4.263   3.054   5.377
 7030TIP3    H121012   4.228   3.060   5.286
 7030TIP3    H221013   4.182   3.032   5.428
 7031TIP3   OH221014   5.327   1.466   4.073
 7031TIP3    H121015   5.238   1.481   4.110
 7031TIP3    H221016   5.335   1.543   4.012
 7032TIP3   OH221017   4.062   2.205   4.409
 7032TIP3    H121018   3.992   2.251   4.358
 7032TIP3    H221019   4.021   2.120   4.425
 7033TIP3   OH221020   5.118   2.830   3.615
 7033TIP3    H121021   5.127   2.927   3.600
 7033TIP3    H221022   5.211   2.801   3.604
 7034TIP3   OH221023   3.840   2.589   5.323
 7034TIP3    H121024   3.771   2.573   5.256
 7034TIP3    H221025   3.876   2.500   5.339
 7035TIP3   OH221026   3.693   2.784   4.956
 7035TIP3    H121027   3.790   2.789   4.952
 7035TIP3    H221028   3.672   2.865   5.005
 7036TIP3   OH221029   5.549   3.233   5.012
 7036TIP3    H121030   5.551   3.138   5.030
 7036TIP3    H221031   5.468   3.259   5.060
 7037TIP3   OH221032   4.666   3.016   5.148
 7037TIP3    H121033   4.661   3.109   5.178
 7037TIP3    H221034   4.593   2.976   5.201
 7038TIP3   OH221035   4.432   3.147   4.098
 7038TIP3    H121036   4.380   3.133   4.017
 7038TIP3    H221037   4.397   3.233   4.130
 7039TIP3   OH221038   3.866   2.996   4.483
 7039TIP3    H121039   3.914   2.989   4.569
 7039TIP3    H221040   3.806   2.920   4.489
 7040TIP3   OH221041   4.627   3.050   3.734
 7040TIP3    H121042   4.686   2.979   3.700
 7040TIP3    H221043   4.661   3.062   3.826
 7041TIP3   OH221044   4.681   3.099   4.002
 7041TIP3    H121045   4.592   3.109   4.044
 7041TIP3    H221046   4.732   3.064   4.077
 7042TIP3   OH221047   5.449   2.354   5.298
 7042TIP3    H121048   5.373   2.381   5.244
 7042TIP3    H221049   5.458   2.260   5.274
 7043TIP3   OH221050   4.046   2.771   5.303
 7043TIP3    H121051   4.092   2.757   5.388
 7043TIP3    H221052   3.970   2.709   5.312
 7044TIP3   OH221053   4.445   1.595   5.099
 7044TIP3    H121054   4.357   1.565   5.068
 7044TIP3    H221055   4.417   1.676   5.147
 7045TIP3   OH221056   4.981   1.716   5.295
 7045TIP3    H121057   5.045   1.674   5.355
 7045TIP3    H221058   4.895   1.692   5.336
 7046TIP3   OH221059   5.194   2.151   5.247
 7046TIP3    H121060   5.157   2.219   5.306
 7046TIP3    H221061   5.192   2.202   5.164
 7047TIP3   OH221062   4.875   2.263   3.762
 7047TIP3    H121063   4.842   2.242   3.672
 7047TIP3    H221064   4.960   2.306   3.740
 7048TIP3   OH221065   4.586   1.646   4.067
 7048TIP3    H121066   4.552   1.640   4.158
 7048TIP3    H221067   4.553   1.561   4.031
 7049TIP3   OH221068   4.377   2.112   5.114
 7049TIP3    H121069   4.325   2.132   5.195
 7049TIP3    H221070   4.361   2.193   5.061
 7050TIP3   OH221071   4.261   1.998   4.628
 7050TIP3    H121072   4.168   1.973   4.647
 7050TIP3    H221073   4.271   1.957   4.539
 7051TIP3   OH221074   4.750   2.081   4.359
 7051TIP3    H121075   4.701   2.153   4.313
 7051TIP3    H221076   4.806   2.047   4.286
 7052TIP3   OH221077   4.934   2.342   5.428
 7052TIP3    H121078   4.903   2.279   5.498
 7052TIP3    H221079   5.019   2.371   5.466
 7053TIP3   OH221080   4.906   2.109   4.594
 7053TIP3    H121081   4.843   2.138   4.524
 7053TIP3    H221082   4.942   2.030   4.548
 7054TIP3   OH221083   4.198   2.139   5.321
 7054TIP3    H121084   4.213   2.208   5.388
 7054TIP3    H221085   4.185   2.059   5.375
 7055TIP3   OH221086   4.243   1.617   4.032
 7055TIP3    H121087   4.235   1.617   4.129
 7055TIP3    H221088   4.167   1.673   4.007
 7056TIP3   OH221089   3.790   1.656   4.904
 7056TIP3    H121090   3.861   1.693   4.961
 7056TIP3    H221091   3.837   1.635   4.822
 7057TIP3   OH221092   3.749   1.640   4.421
 7057TIP3    H121093   3.795   1.677   4.343
 7057TIP3    H221094   3.690   1.716   4.441
 7058TIP3   OH221095   4.923   2.354   5.013
 7058TIP3    H121096   4.953   2.282   4.953
 7058TIP3    H221097   4.884   2.301   5.086
 7059TIP3   OH221098   4.595   1.814   4.688
 7059TIP3    H121099   4.512   1.815   4.739
 7059TIP3    H221100   4.662   1.815   4.758
 7060TIP3   OH221101   4.022   1.878   4.695
 7060TIP3    H121102   3.928   1.885   4.666
 7060TIP3    H221103   4.045   1.786   4.671
 7061TIP3   OH221104   4.285   1.869   4.387
 7061TIP3    H121105   4.379   1.885   4.366
 7061TIP3    H221106   4.239   1.892   4.304
 7062TIP3   OH221107   5.081   1.893   4.902
 7062TIP3    H121108   5.034   1.906   4.986
 7062TIP3    H221109   5.021   1.832   4.856
 7063TIP3   OH221110   4.139   1.903   4.161
 7063TIP3    H121111   4.068   1.860   4.110
 7063TIP3    H221112   4.191   1.944   4.088
 7064TIP3   OH221113   5.255   3.584   5.112
 7064TIP3    H121114   5.251   3.609   5.018
 7064TIP3    H221115   5.335   3.632   5.142
 7065TIP3   OH221116   4.209   2.691   5.529
 7065TIP3    H121117   4.287   2.724   5.578
 7065TIP3    H221118   4.142   2.692   5.600
 7066TIP3   OH221119   4.670   2.149   4.785
 7066TIP3    H121120   4.744   2.111   4.735
 7066TIP3    H221121   4.675   2.103   4.871
 7067TIP3   OH221122   4.188   1.635   4.670
 7067TIP3    H121123   4.152   1.557   4.719
 7067TIP3    H221124   4.232   1.592   4.595
 7068TIP3   OH221125   4.642   2.047   5.074
 7068TIP3    H121126   4.551   2.081   5.086
 7068TIP3    H221127   4.696   2.113   5.122
 7069TIP3   OH221128   4.384   2.433   4.170
 7069TIP3    H121129   4.310   2.370   4.157
 7069TIP3    H221130   4.363   2.468   4.260
 7070TIP3   OH221131   5.282   2.670   4.795
 7070TIP3    H121132   5.307   2.722   4.716
 7070TIP3    H221133   5.197   2.629   4.768
 7071TIP3   OH221134   4.840   1.744   4.036
 7071TIP3    H121135   4.744   1.724   4.042
 7071TIP3    H221136   4.846   1.838   4.060
 7072TIP3   OH221137   4.778   2.752   5.170
 7072TIP3    H121138   4.812   2.744   5.260
 7072TIP3    H221139   4.742   2.843   5.170
 7073TIP3   OH221140   4.907   1.996   4.141
 7073TIP3    H121141   5.004   2.001   4.153
 7073TIP3    H221142   4.888   2.076   4.088
 7074TIP3   OH221143   4.076   2.456   4.845
 7074TIP3    H121144   4.115   2.428   4.760
 7074TIP3    H221145   4.121   2.398   4.908
 7075TIP3   OH221146   4.528   2.585   3.993
 7075TIP3    H121147   4.478   2.670   3.996
 7075TIP3    H221148   4.474   2.530   4.054
 7076TIP3   OH221149   3.961   2.371   5.457
 7076TIP3    H121150   3.971   2.358   5.554
 7076TIP3    H221151   3.886   2.312   5.438
 7077TIP3   OH221152   4.688   2.490   5.479
 7077TIP3    H121153   4.620   2.433   5.438
 7077TIP3    H221154   4.770   2.454   5.439
 7078TIP3   OH221155   4.941   3.007   5.071
 7078TIP3    H121156   4.844   3.012   5.081
 7078TIP3    H221157   4.970   3.064   5.145
 7079TIP3   OH221158   5.348   2.090   3.972
 7079TIP3    H121159   5.287   2.045   3.909
 7079TIP3    H221160   5.345   2.180   3.932
 7080TIP3   OH221161   5.567   2.941   5.052
 7080TIP3    H121162   5.469   2.937   5.040
 7080TIP3    H221163   5.596   2.915   4.962
 7081TIP3   OH221164   5.055   2.907   3.882
 7081TIP3    H121165   5.025   2.840   3.946
 7081TIP3    H221166   5.065   2.855   3.800
 7082TIP3   OH221167   5.049   2.534   4.713
 7082TIP3    H121168   4.955   2.511   4.727
 7082TIP3    H221169   5.081   2.454   4.667
 7083TIP3   OH221170   4.179   2.763   4.470
 7083TIP3    H121171   4.175   2.845   4.416
 7083TIP3    H221172   4.086   2.749   4.489
 7084TIP3   OH221173   3.744   2.065   4.179
 7084TIP3    H121174   3.787   2.151   4.200
 7084TIP3    H221175   3.666   2.069   4.239
 7085TIP3   OH221176   4.307   2.525   4.412
 7085TIP3    H121177   4.274   2.615   4.430
 7085TIP3    H221178   4.272   2.476   4.489
 7086TIP3   OH221179   4.449   3.105   4.938
 7086TIP3    H121180   4.488   3.179   4.887
 7086TIP3    H221181   4.526   3.070   4.984
 7087TIP3   OH221182   4.096   3.000   4.323
 7087TIP3    H121183   4.011   3.010   4.369
 7087TIP3    H221184   4.130   3.092   4.326
 7088TIP3   OH221185   4.830   2.739   4.902
 7088TIP3    H121186   4.820   2.737   5.000
 7088TIP3    H221187   4.912   2.690   4.890
 7089TIP3   OH221188   4.813   2.636   3.783
 7089TIP3    H121189   4.866   2.610   3.861
 7089TIP3    H221190   4.725   2.607   3.811
 7090TIP3   OH221191   5.081   3.270   4.946
 7090TIP3    H121192   4.998   3.218   4.938
 7090TIP3    H221193   5.068   3.336   4.875
 7091TIP3   OH221194   5.147   3.110   3.594
 7091TIP3    H121195   5.189   3.191   3.559
 7091TIP3    H221196   5.068   3.150   3.635
 7092TIP3   OH221197   4.164   1.882   5.465
 7092TIP3    H121198   4.067   1.887   5.478
 7092TIP3    H221199   4.191   1.827   5.540
 7093TIP3   OH221200   4.973   2.563   3.994
 7093TIP3    H121201   4.962   2.499   4.067
 7093TIP3    H221202   5.070   2.562   3.984
 7094TIP3   OH221203   3.888   2.966   5.095
 7094TIP3    H121204   3.942   2.901   5.141
 7094TIP3    H221205   3.906   3.047   5.145
 7095TIP3   OH221206   4.175   2.612   3.782
 7095TIP3    H121207   4.186   2.518   3.758
 7095TIP3    H221208   4.154   2.605   3.877
 7096TIP3   OH221209   4.118   2.618   4.053
 7096TIP3    H121210   4.190   2.593   4.112
 7096TIP3    H221211   4.119   2.717   4.062
 7097TIP3   OH221212   3.851   2.310   4.260
 7097TIP3    H121213   3.784   2.356   4.316
 7097TIP3    H221214   3.863   2.378   4.191
 7098TIP3   OH221215   4.996   1.957   5.163
 7098TIP3    H121216   5.083   1.990   5.190
 7098TIP3    H221217   4.989   1.871   5.211
 7099TIP3   OH221218   4.881   1.697   4.320
 7099TIP3    H121219   4.872   1.716   4.225
 7099TIP3    H221220   4.924   1.779   4.353
 7100TIP3   OH221221   4.386   2.815   4.001
 7100TIP3    H121222   4.298   2.837   4.038
 7100TIP3    H221223   4.402   2.895   3.949
 7101TIP3   OH221224   4.569   1.880   4.419
 7101TIP3    H121225   4.634   1.952   4.400
 7101TIP3    H221226   4.578   1.872   4.516
 7102TIP3   OH221227   4.836   2.193   5.214
 7102TIP3    H121228   4.865   2.240   5.295
 7102TIP3    H221229   4.885   2.108   5.218
 7103TIP3   OH221230   4.713   1.598   4.518
 7103TIP3    H121231   4.699   1.678   4.571
 7103TIP3    H221232   4.776   1.632   4.450
 7104TIP3   OH221233   4.132   2.889   4.073
 7104TIP3    H121234   4.102   2.960   4.012
 7104TIP3    H221235   4.116   2.932   4.160
 7105TIP3   OH221236   4.229   1.605   4.309
 7105TIP3    H121237   4.227   1.696   4.346
 7105TIP3    H221238   4.325   1.588   4.315
 7106TIP3   OH221239   5.470   2.091   5.216
 7106TIP3    H121240   5.374   2.080   5.203
 7106TIP3    H221241   5.504   2.068   5.128
 7107TIP3   OH221242   5.134   2.288   4.594
 7107TIP3    H121243   5.057   2.229   4.603
 7107TIP3    H221244   5.204   2.240   4.642
 7108TIP3   OH221245   3.848   2.513   4.063
 7108TIP3    H121246   3.916   2.582   4.072
 7108TIP3    H221247   3.893   2.457   3.996
 7109TIP3   OH221248   3.787   1.794   4.198
 7109TIP3    H121249   3.793   1.892   4.197
 7109TIP3    H221250   3.707   1.780   4.146
 7110TIP3   OH221251   5.104   3.249   4.540
 7110TIP3    H121252   5.061   3.295   4.465
 7110TIP3    H221253   5.198   3.268   4.520
 7111TIP3   OH221254   4.181   1.515   5.066
 7111TIP3    H121255   4.150   1.481   4.979
 7111TIP3    H221256   4.169   1.437   5.124
 7112TIP3   OH221257   3.708   2.724   4.446
 7112TIP3    H121258   3.652   2.761   4.516
 7112TIP3    H221259   3.675   2.773   4.367
 7113TIP3   OH221260   3.878   3.282   5.523
 7113TIP3    H121261   3.965   3.282   5.569
 7113TIP3    H221262   3.858   3.187   5.520
 7114TIP3   OH221263   4.354   3.232   5.571
 7114TIP3    H121264   4.449   3.219   5.569
 7114TIP3    H221265   4.326   3.172   5.498
 7115TIP3   OH221266   4.335   2.814   3.688
 7115TIP3    H121267   4.280   2.743   3.729
 7115TIP3    H221268   4.412   2.761   3.660
 7116TIP3   OH221269   4.993   3.148   5.302
 7116TIP3    H121270   4.989   3.079   5.371
 7116TIP3    H221271   5.071   3.201   5.330
 7117TIP3   OH221272   4.773   2.852   3.608
 7117TIP3    H121273   4.810   2.786   3.669
 7117TIP3    H221274   4.832   2.846   3.531
 7118TIP3   OH221275   4.006   2.686   5.721
 7118TIP3    H121276   4.019   2.589   5.729
 7118TIP3    H221277   3.919   2.690   5.676
 7119TIP3   OH221278   3.985   2.328   3.918
 7119TIP3    H121279   4.043   2.302   3.992
 7119TIP3    H221280   4.052   2.334   3.846
 7120TIP3   OH221281   4.613   2.771   5.495
 7120TIP3    H121282   4.570   2.794   5.410
 7120TIP3    H221283   4.643   2.679   5.481
 7121TIP3   OH221284   4.502   2.532   3.724
 7121TIP3    H121285   4.501   2.545   3.821
 7121TIP3    H221286   4.500   2.434   3.718
 7122TIP3   OH221287   5.105   2.782   5.106
 7122TIP3    H121288   5.181   2.823   5.060
 7122TIP3    H221289   5.036   2.851   5.091
 7123TIP3   OH221290   4.126   2.422   5.709
 7123TIP3    H121291   4.202   2.371   5.680
 7123TIP3    H221292   4.155   2.455   5.796
 7124TIP3   OH221293   4.186   2.240   4.133
 7124TIP3    H121294   4.160   2.202   4.219
 7124TIP3    H221295   4.225   2.164   4.087
 7125TIP3   OH221296   4.466   2.306   5.370
 7125TIP3    H121297   4.383   2.359   5.369
 7125TIP3    H221298   4.512   2.339   5.290
 7126TIP3   OH221299   4.294   2.034   3.977
 7126TIP3    H121300   4.269   2.043   3.882
 7126TIP3    H221301   4.392   2.036   3.970
 7127TIP3   OH221302   4.974   2.703   5.499
 7127TIP3    H121303   5.053   2.676   5.451
 7127TIP3    H221304   4.971   2.640   5.573
 7128TIP3   OH221305   5.109   2.359   3.646
 7128TIP3    H121306   5.090   2.316   3.560
 7128TIP3    H221307   5.076   2.450   3.625
 7129TIP3   OH221308   4.586   2.092   5.486
 7129TIP3    H121309   4.583   2.014   5.427
 7129TIP3    H221310   4.541   2.161   5.432
 7130TIP3   OH221311   4.588   1.877   5.298
 7130TIP3    H121312   4.613   1.920   5.215
 7130TIP3    H221313   4.494   1.854   5.281
 7131TIP3   OH221314   4.609   2.414   5.171
 7131TIP3    H121315   4.694   2.435   5.131
 7131TIP3    H221316   4.549   2.478   5.126
 7132TIP3   OH221317   5.190   2.376   5.540
 7132TIP3    H121318   5.243   2.322   5.602
 7132TIP3    H221319   5.255   2.438   5.505
 7133TIP3   OH221320   5.235   2.627   5.283
 7133TIP3    H121321   5.175   2.683   5.228
 7133TIP3    H221322   5.322   2.654   5.246
 7134TIP3   OH221323   4.468   2.192   5.727
 7134TIP3    H121324   4.397   2.127   5.741
 7134TIP3    H221325   4.495   2.171   5.635
 7135TIP3   OH221326   4.720   1.640   5.367
 7135TIP3    H121327   4.669   1.720   5.344
 7135TIP3    H221328   4.652   1.570   5.356
 7136TIP3   OH221329   4.835   2.151   5.590
 7136TIP3    H121330   4.812   2.129   5.682
 7136TIP3    H221331   4.751   2.126   5.547
 7137TIP3   OH221332   4.300   1.976   5.779
 7137TIP3    H121333   4.303   1.884   5.747
 7137TIP3    H221334   4.337   1.966   5.870
 7138TIP3   OH221335   4.813   1.651   5.626
 7138TIP3    H121336   4.876   1.576   5.618
 7138TIP3    H221337   4.771   1.648   5.538
 7139TIP3   OH221338   4.885   1.868   5.780
 7139TIP3    H121339   4.859   1.795   5.719
 7139TIP3    H221340   4.805   1.925   5.778
 7140TIP3   OH221341   4.101   3.089   3.883
 7140TIP3    H121342   4.197   3.082   3.864
 7140TIP3    H221343   4.074   3.145   3.808
 7141TIP3   OH221344   3.579   2.476   4.096
 7141TIP3    H121345   3.674   2.497   4.084
 7141TIP3    H221346   3.573   2.387   4.055
 7142TIP3   OH221347   3.502   3.084   4.513
 7142TIP3    H121348   3.433   3.026   4.475
 7142TIP3    H221349   3.543   3.023   4.578
 7143TIP3   OH221350   3.635   2.927   4.698
 7143TIP3    H121351   3.616   2.863   4.769
 7143TIP3    H221352   3.685   2.994   4.749
 7144TIP3   OH221353   5.361   3.334   4.504
 7144TIP3    H121354   5.385   3.366   4.592
 7144TIP3    H221355   5.424   3.379   4.447
 7145TIP3   OH221356   5.387   3.356   4.786
 7145TIP3    H121357   5.342   3.269   4.781
 7145TIP3    H221358   5.461   3.332   4.844
 7146TIP3   OH221359   5.435   3.033   5.360
 7146TIP3    H121360   5.363   3.046   5.424
 7146TIP3    H221361   5.479   3.120   5.361
 7147TIP3   OH221362   5.251   2.547   3.974
 7147TIP3    H121363   5.317   2.613   3.944
 7147TIP3    H221364   5.296   2.510   4.053
 7148TIP3   OH221365   5.378   2.414   4.178
 7148TIP3    H121366   5.312   2.374   4.238
 7148TIP3    H221367   5.444   2.450   4.241
 7149TIP3   OH221368   5.436   2.809   4.611
 7149TIP3    H121369   5.486   2.741   4.562
 7149TIP3    H221370   5.431   2.882   4.547
 7150TIP3   OH221371   5.259   3.106   4.805
 7150TIP3    H121372   5.187   3.151   4.855
 7150TIP3    H221373   5.210   3.063   4.733
 7151TIP3   OH221374   5.314   2.324   3.824
 7151TIP3    H121375   5.241   2.324   3.758
 7151TIP3    H221376   5.286   2.400   3.880
 7152TIP3   OH221377   5.183   1.994   3.779
 7152TIP3    H121378   5.138   2.024   3.699
 7152TIP3    H221379   5.161   1.899   3.778
 7153TIP3   OH221380   5.189   2.275   4.324
 7153TIP3    H121381   5.196   2.178   4.314
 7153TIP3    H221382   5.174   2.285   4.420
 7154TIP3   OH221383   3.815   2.340   5.075
 7154TIP3    H121384   3.811   2.309   4.982
 7154TIP3    H221385   3.913   2.343   5.088
 7155TIP3   OH221386   5.480   2.698   5.183
 7155TIP3    H121387   5.552   2.633   5.168
 7155TIP3    H221388   5.504   2.770   5.122
 7156TIP3   OH221389   5.658   2.494   5.190
 7156TIP3    H121390   5.588   2.444   5.237
 7156TIP3    H221391   5.735   2.436   5.205
 7157TIP3   OH221392   5.129   1.727   3.769
 7157TIP3    H121393   5.208   1.698   3.820
 7157TIP3    H221394   5.067   1.654   3.784
 7158TIP3   OH221395   5.188   1.991   4.216
 7158TIP3    H121396   5.228   1.902   4.231
 7158TIP3    H221397   5.245   2.023   4.144
 7159TIP3   OH221398   5.348   2.158   4.718
 7159TIP3    H121399   5.434   2.182   4.675
 7159TIP3    H221400   5.364   2.199   4.805
 7160TIP3   OH221401   5.419   2.308   4.951
 7160TIP3    H121402   5.340   2.348   4.992
 7160TIP3    H221403   5.454   2.385   4.900
 7161TIP3   OH221404   4.034   2.026   5.740
 7161TIP3    H121405   4.131   2.023   5.749
 7161TIP3    H221406   4.009   1.942   5.782
 7162TIP3   OH221407   5.862   1.892   5.499
 7162TIP3    H121408   5.927   1.831   5.461
 7162TIP3    H221409   5.837   1.948   5.422
 7163TIP3   OH221410   5.293   1.741   4.259
 7163TIP3    H121411   5.341   1.721   4.342
 7163TIP3    H221412   5.234   1.663   4.252
 7164TIP3   OH221413   3.996   1.724   5.076
 7164TIP3    H121414   4.058   1.650   5.084
 7164TIP3    H221415   4.057   1.799   5.067
 7165TIP3   OH221416   3.795   1.994   5.149
 7165TIP3    H121417   3.846   1.997   5.066
 7165TIP3    H221418   3.814   2.081   5.187
 7166TIP3   OH221419   5.732   2.034   5.304
 7166TIP3    H121420   5.644   2.071   5.321
 7166TIP3    H221421   5.708   1.960   5.244
 7167TIP3   OH221422   5.376   1.675   3.891
 7167TIP3    H121423   5.418   1.607   3.833
 7167TIP3    H221424   5.442   1.747   3.888
 7168TIP3   OH221425   3.782   1.493   4.645
 7168TIP3    H121426   3.692   1.494   4.680
 7168TIP3    H221427   3.776   1.556   4.570
 7169TIP3   OH221428   4.942   3.203   4.156
 7169TIP3    H121429   4.997   3.198   4.076
 7169TIP3    H221430   4.987   3.273   4.207
 7170TIP3   OH221431   4.002   1.575   5.462
 7170TIP3    H121432   3.952   1.577   5.546
 7170TIP3    H221433   3.938   1.618   5.402
 7171TIP3   OH221434   4.043   3.006   5.540
 7171TIP3    H121435   3.948   2.987   5.523
 7171TIP3    H221436   4.049   2.994   5.635
 7172TIP3   OH221437   4.225   3.045   5.090
 7172TIP3    H121438   4.173   3.119   5.052
 7172TIP3    H221439   4.309   3.061   5.042
 7173TIP3   OH221440   4.661   3.283   5.225
 7173TIP3    H121441   4.702   3.285   5.314
 7173TIP3    H221442   4.725   3.336   5.174
 7174TIP3   OH221443   4.841   3.439   5.091
 7174TIP3    H121444   4.912   3.392   5.045
 7174TIP3    H221445   4.893   3.497   5.151
 7175TIP3   OH221446   5.638   1.793   5.186
 7175TIP3    H121447   5.551   1.778   5.146
 7175TIP3    H221448   5.678   1.703   5.177
 7176TIP3   OH221449   3.901   3.293   5.121
 7176TIP3    H121450   3.809   3.317   5.096
 7176TIP3    H221451   3.914   3.355   5.195
 7177TIP3   OH221452   4.132   3.276   4.973
 7177TIP3    H121453   4.046   3.288   5.017
 7177TIP3    H221454   4.113   3.311   4.883
 7178TIP3   OH221455   4.558   3.303   4.770
 7178TIP3    H121456   4.487   3.320   4.705
 7178TIP3    H221457   4.568   3.392   4.810
 7179TIP3   OH221458   4.826   3.241   4.823
 7179TIP3    H121459   4.732   3.260   4.804
 7179TIP3    H221460   4.870   3.315   4.777
 7180TIP3   OH221461   5.032   3.434   4.734
 7180TIP3    H121462   5.017   3.519   4.687
 7180TIP3    H221463   5.058   3.375   4.660
 7181TIP3   OH221464   3.808   3.091   4.852
 7181TIP3    H121465   3.830   3.063   4.943
 7181TIP3    H221466   3.882   3.048   4.804
 7182TIP3   OH221467   4.005   2.963   4.716
 7182TIP3    H121468   4.019   2.881   4.767
 7182TIP3    H221469   4.095   3.000   4.714
 7183TIP3   OH221470   4.270   3.054   4.723
 7183TIP3    H121471   4.300   2.962   4.716
 7183TIP3    H221472   4.317   3.081   4.804
 7184TIP3   OH221473   4.850   1.715   4.816
 7184TIP3    H121474   4.804   1.642   4.860
 7184TIP3    H221475   4.918   1.669   4.763
 7185TIP3   OH221476   5.361   1.612   4.722
 7185TIP3    H121477   5.399   1.651   4.640
 7185TIP3    H221478   5.265   1.613   4.703
 7186TIP3   OH221479   5.458   1.689   4.478
 7186TIP3    H121480   5.531   1.638   4.437
 7186TIP3    H221481   5.491   1.780   4.462
 7187TIP3   OH221482   4.091   1.421   4.819
 7187TIP3    H121483   3.998   1.388   4.824
 7187TIP3    H221484   4.139   1.335   4.816
 7188TIP3   OH221485   3.879   1.293   4.470
 7188TIP3    H121486   3.910   1.350   4.397
 7188TIP3    H221487   3.852   1.359   4.537
 7189TIP3   OH221488   4.539   1.452   4.703
 7189TIP3    H121489   4.594   1.497   4.636
 7189TIP3    H221490   4.566   1.496   4.784
 7190TIP3   OH221491   5.080   1.601   4.682
 7190TIP3    H121492   5.081   1.560   4.595
 7190TIP3    H221493   5.069   1.522   4.741
 7191TIP3   OH221494   5.112   1.529   4.250
 7191TIP3    H121495   5.023   1.567   4.259
 7191TIP3    H221496   5.100   1.443   4.298
 7192TIP3   OH221497   3.596   2.868   4.245
 7192TIP3    H121498   3.508   2.838   4.214
 7192TIP3    H221499   3.588   2.963   4.224
 7193TIP3   OH221500   3.999   1.448   4.233
 7193TIP3    H121501   4.048   1.387   4.174
 7193TIP3    H221502   4.073   1.503   4.267
 7194TIP3   OH221503   4.505   1.629   4.331
 7194TIP3    H121504   4.567   1.582   4.388
 7194TIP3    H221505   4.527   1.722   4.356
 7195TIP3   OH221506   4.368   3.046   3.831
 7195TIP3    H121507   4.456   3.070   3.795
 7195TIP3    H221508   4.346   2.972   3.771
 7196TIP3   OH221509   5.090   3.174   3.923
 7196TIP3    H121510   5.081   3.076   3.915
 7196TIP3    H221511   5.039   3.204   3.846
 7197TIP3   OH221512   4.299   1.701   5.712
 7197TIP3    H121513   4.261   1.632   5.769
 7197TIP3    H221514   4.392   1.701   5.741
 7198TIP3   OH221515   4.549   1.700   5.832
 7198TIP3    H121516   4.633   1.671   5.793
 7198TIP3    H221517   4.534   1.630   5.899
 7199TIP3   OH221518   3.668   2.885   3.884
 7199TIP3    H121519   3.670   2.909   3.978
 7199TIP3    H221520   3.757   2.843   3.871
 7200TIP3   OH221521   5.381   1.791   5.616
 7200TIP3    H121522   5.394   1.753   5.706
 7200TIP3    H221523   5.470   1.772   5.575
 7201TIP3   OH221524   5.303   3.313   5.115
 7201TIP3    H121525   5.227   3.285   5.061
 7201TIP3    H221526   5.289   3.409   5.118
 7202TIP3   OH221527   6.585   2.697   3.869
 7202TIP3    H121528   6.550   2.784   3.843
 7202TIP3    H221529   6.507   2.642   3.858
 7203TIP3   OH221530   5.875   2.582   4.630
 7203TIP3    H121531   5.908   2.517   4.693
 7203TIP3    H221532   5.956   2.628   4.603
 7204TIP3   OH221533   6.825   2.993   3.942
 7204TIP3    H121534   6.808   2.921   4.005
 7204TIP3    H221535   6.855   3.065   4.001
 7205TIP3   OH221536   5.849   2.990   4.342
 7205TIP3    H121537   5.842   2.892   4.344
 7205TIP3    H221538   5.946   3.000   4.341
 7206TIP3   OH221539   5.555   2.191   4.127
 7206TIP3    H121540   5.508   2.274   4.146
 7206TIP3    H221541   5.485   2.141   4.082
 7207TIP3   OH221542   5.613   2.482   4.310
 7207TIP3    H121543   5.663   2.404   4.341
 7207TIP3    H221544   5.677   2.526   4.252
 7208TIP3   OH221545   6.476   3.453   3.959
 7208TIP3    H121546   6.517   3.381   3.907
 7208TIP3    H221547   6.464   3.410   4.045
 7209TIP3   OH221548   6.367   2.912   4.310
 7209TIP3    H121549   6.393   2.822   4.284
 7209TIP3    H221550   6.456   2.950   4.329
 7210TIP3   OH221551   7.395   2.232   4.307
 7210TIP3    H121552   7.424   2.316   4.346
 7210TIP3    H221553   7.412   2.248   4.212
 7211TIP3   OH221554   6.810   2.427   4.336
 7211TIP3    H121555   6.842   2.336   4.339
 7211TIP3    H221556   6.735   2.419   4.275
 7212TIP3   OH221557   6.132   2.070   4.306
 7212TIP3    H121558   6.115   2.142   4.242
 7212TIP3    H221559   6.085   1.997   4.261
 7213TIP3   OH221560   6.827   2.152   3.919
 7213TIP3    H121561   6.895   2.143   3.990
 7213TIP3    H221562   6.880   2.196   3.850
 7214TIP3   OH221563   5.758   2.273   4.412
 7214TIP3    H121564   5.841   2.252   4.458
 7214TIP3    H221565   5.771   2.219   4.330
 7215TIP3   OH221566   6.189   2.486   4.198
 7215TIP3    H121567   6.282   2.488   4.231
 7215TIP3    H221568   6.179   2.393   4.170
 7216TIP3   OH221569   7.468   2.443   4.474
 7216TIP3    H121570   7.384   2.487   4.452
 7216TIP3    H221571   7.481   2.474   4.565
 7217TIP3   OH221572   6.466   2.912   3.741
 7217TIP3    H121573   6.424   2.896   3.655
 7217TIP3    H221574   6.420   2.993   3.770
 7218TIP3   OH221575   6.227   2.832   4.533
 7218TIP3    H121576   6.170   2.904   4.568
 7218TIP3    H221577   6.273   2.877   4.459
 7219TIP3   OH221578   7.027   2.169   4.107
 7219TIP3    H121579   6.996   2.141   4.195
 7219TIP3    H221580   7.075   2.251   4.128
 7220TIP3   OH221581   5.995   2.161   4.524
 7220TIP3    H121582   6.039   2.248   4.520
 7220TIP3    H221583   6.039   2.116   4.448
 7221TIP3   OH221584   6.059   3.031   4.629
 7221TIP3    H121585   6.036   3.120   4.594
 7221TIP3    H221586   5.980   3.014   4.684
 7222TIP3   OH221587   5.450   2.720   3.865
 7222TIP3    H121588   5.409   2.749   3.781
 7222TIP3    H221589   5.482   2.805   3.902
 7223TIP3   OH221590   6.891   3.238   4.106
 7223TIP3    H121591   6.802   3.227   4.147
 7223TIP3    H221592   6.880   3.324   4.061
 7224TIP3   OH221593   7.186   2.130   4.471
 7224TIP3    H121594   7.098   2.155   4.437
 7224TIP3    H221595   7.245   2.163   4.400
 7225TIP3   OH221596   6.486   1.759   4.440
 7225TIP3    H121597   6.477   1.664   4.461
 7225TIP3    H221598   6.419   1.798   4.497
 7226TIP3   OH221599   6.589   3.279   3.774
 7226TIP3    H121600   6.640   3.196   3.758
 7226TIP3    H221601   6.653   3.344   3.737
 7227TIP3   OH221602   6.736   3.064   3.692
 7227TIP3    H121603   6.692   2.984   3.660
 7227TIP3    H221604   6.777   3.032   3.776
 7228TIP3   OH221605   7.119   3.146   4.449
 7228TIP3    H121606   7.104   3.067   4.393
 7228TIP3    H221607   7.100   3.219   4.386
 7229TIP3   OH221608   6.407   2.537   3.709
 7229TIP3    H121609   6.330   2.592   3.688
 7229TIP3    H221610   6.457   2.538   3.625
 7230TIP3   OH221611   6.366   2.329   3.418
 7230TIP3    H121612   6.432   2.379   3.470
 7230TIP3    H221613   6.425   2.266   3.372
 7231TIP3   OH221614   7.314   2.788   4.299
 7231TIP3    H121615   7.228   2.837   4.302
 7231TIP3    H221616   7.342   2.810   4.207
 7232TIP3   OH221617   6.760   2.622   3.675
 7232TIP3    H121618   6.706   2.647   3.753
 7232TIP3    H221619   6.844   2.597   3.720
 7233TIP3   OH221620   7.008   2.657   4.602
 7233TIP3    H121621   6.995   2.744   4.644
 7233TIP3    H221622   6.918   2.646   4.563
 7234TIP3   OH221623   5.982   2.623   4.093
 7234TIP3    H121624   5.946   2.562   4.026
 7234TIP3    H221625   6.058   2.572   4.128
 7235TIP3   OH221626   6.119   3.035   4.242
 7235TIP3    H121627   6.103   2.996   4.155
 7235TIP3    H221628   6.207   2.997   4.264
 7236TIP3   OH221629   6.116   2.593   4.451
 7236TIP3    H121630   6.164   2.563   4.371
 7236TIP3    H221631   6.170   2.672   4.476
 7237TIP3   OH221632   6.653   3.226   4.232
 7237TIP3    H121633   6.641   3.305   4.288
 7237TIP3    H221634   6.634   3.152   4.293
 7238TIP3   OH221635   6.259   3.161   4.778
 7238TIP3    H121636   6.194   3.220   4.823
 7238TIP3    H221637   6.199   3.102   4.730
 7239TIP3   OH221638   6.595   2.482   3.505
 7239TIP3    H121639   6.656   2.541   3.555
 7239TIP3    H221640   6.622   2.502   3.413
 7240TIP3   OH221641   6.020   2.691   4.890
 7240TIP3    H121642   6.027   2.783   4.924
 7240TIP3    H221643   5.923   2.680   4.894
 7241TIP3   OH221644   6.342   3.158   3.778
 7241TIP3    H121645   6.426   3.208   3.786
 7241TIP3    H221646   6.283   3.223   3.739
 7242TIP3   OH221647   6.055   3.327   4.856
 7242TIP3    H121648   6.018   3.321   4.766
 7242TIP3    H221649   5.976   3.309   4.911
 7243TIP3   OH221650   7.112   1.718   3.556
 7243TIP3    H121651   7.031   1.741   3.605
 7243TIP3    H221652   7.128   1.800   3.505
 7244TIP3   OH221653   5.857   2.460   3.895
 7244TIP3    H121654   5.786   2.504   3.844
 7244TIP3    H221655   5.821   2.373   3.909
 7245TIP3   OH221656   6.914   3.085   3.104
 7245TIP3    H121657   6.922   3.182   3.089
 7245TIP3    H221658   7.007   3.056   3.091
 7246TIP3   OH221659   5.634   2.847   4.809
 7246TIP3    H121660   5.568   2.827   4.740
 7246TIP3    H221661   5.674   2.759   4.827
 7247TIP3   OH221662   5.492   3.038   4.442
 7247TIP3    H121663   5.588   3.035   4.433
 7247TIP3    H221664   5.481   3.117   4.497
 7248TIP3   OH221665   7.353   3.495   4.497
 7248TIP3    H121666   7.354   3.398   4.511
 7248TIP3    H221667   7.270   3.518   4.544
 7249TIP3   OH221668   6.451   3.278   4.624
 7249TIP3    H121669   6.453   3.369   4.660
 7249TIP3    H221670   6.385   3.236   4.683
 7250TIP3   OH221671   6.226   3.403   3.585
 7250TIP3    H121672   6.178   3.388   3.502
 7250TIP3    H221673   6.192   3.490   3.613
 7251TIP3   OH221674   5.662   3.252   3.971
 7251TIP3    H121675   5.710   3.244   4.057
 7251TIP3    H221676   5.609   3.170   3.972
 7252TIP3   OH221677   6.422   3.306   3.222
 7252TIP3    H121678   6.481   3.236   3.186
 7252TIP3    H221679   6.458   3.318   3.312
 7253TIP3   OH221680   6.476   3.356   3.490
 7253TIP3    H121681   6.388   3.365   3.533
 7253TIP3    H221682   6.528   3.317   3.563
 7254TIP3   OH221683   7.242   2.621   4.771
 7254TIP3    H121684   7.159   2.634   4.721
 7254TIP3    H221685   7.257   2.525   4.760
 7255TIP3   OH221686   5.840   3.027   4.791
 7255TIP3    H121687   5.889   3.008   4.874
 7255TIP3    H221688   5.763   2.967   4.799
 7256TIP3   OH221689   6.782   1.963   4.781
 7256TIP3    H121690   6.858   1.938   4.839
 7256TIP3    H221691   6.706   1.944   4.839
 7257TIP3   OH221692   7.009   2.390   4.694
 7257TIP3    H121693   6.960   2.391   4.779
 7257TIP3    H221694   6.990   2.478   4.657
 7258TIP3   OH221695   6.672   2.521   3.249
 7258TIP3    H121696   6.638   2.500   3.161
 7258TIP3    H221697   6.758   2.563   3.227
 7259TIP3   OH221698   6.384   1.899   3.554
 7259TIP3    H121699   6.350   1.896   3.646
 7259TIP3    H221700   6.345   1.817   3.519
 7260TIP3   OH221701   6.146   2.369   4.600
 7260TIP3    H121702   6.130   2.425   4.678
 7260TIP3    H221703   6.160   2.440   4.533
 7261TIP3   OH221704   6.059   2.245   4.115
 7261TIP3    H121705   5.965   2.224   4.132
 7261TIP3    H221706   6.070   2.206   4.025
 7262TIP3   OH221707   6.539   2.330   3.837
 7262TIP3    H121708   6.492   2.405   3.796
 7262TIP3    H221709   6.600   2.302   3.766
 7263TIP3   OH221710   6.729   2.615   4.926
 7263TIP3    H121711   6.705   2.543   4.987
 7263TIP3    H221712   6.823   2.628   4.949
 7264TIP3   OH221713   6.724   2.377   4.066
 7264TIP3    H121714   6.638   2.404   4.031
 7264TIP3    H221715   6.738   2.294   4.016
 7265TIP3   OH221716   5.991   2.393   4.825
 7265TIP3    H121717   6.024   2.473   4.870
 7265TIP3    H221718   5.969   2.334   4.899
 7266TIP3   OH221719   6.041   1.874   3.519
 7266TIP3    H121720   6.032   1.874   3.616
 7266TIP3    H221721   5.963   1.927   3.494
 7267TIP3   OH221722   5.578   1.915   4.397
 7267TIP3    H121723   5.658   1.947   4.444
 7267TIP3    H221724   5.612   1.887   4.310
 7268TIP3   OH221725   5.550   1.897   3.909
 7268TIP3    H121726   5.596   1.933   3.831
 7268TIP3    H221727   5.489   1.972   3.927
 7269TIP3   OH221728   6.752   2.614   4.528
 7269TIP3    H121729   6.754   2.556   4.448
 7269TIP3    H221730   6.675   2.575   4.573
 7270TIP3   OH221731   6.392   2.070   4.171
 7270TIP3    H121732   6.312   2.072   4.227
 7270TIP3    H221733   6.460   2.099   4.234
 7271TIP3   OH221734   5.815   2.131   4.185
 7271TIP3    H121735   5.722   2.138   4.154
 7271TIP3    H221736   5.840   2.040   4.160
 7272TIP3   OH221737   6.081   2.124   3.872
 7272TIP3    H121738   6.175   2.141   3.853
 7272TIP3    H221739   6.036   2.149   3.788
 7273TIP3   OH221740   6.878   2.149   4.374
 7273TIP3    H121741   6.848   2.169   4.466
 7273TIP3    H221742   6.805   2.093   4.344
 7274TIP3   OH221743   5.933   2.164   3.647
 7274TIP3    H121744   5.863   2.117   3.597
 7274TIP3    H221745   5.985   2.201   3.573
 7275TIP3   OH221746   7.050   3.842   4.599
 7275TIP3    H121747   7.048   3.861   4.504
 7275TIP3    H221748   7.132   3.888   4.628
 7276TIP3   OH221749   5.992   2.945   5.013
 7276TIP3    H121750   6.055   3.013   5.046
 7276TIP3    H221751   5.934   2.944   5.092
 7277TIP3   OH221752   5.986   1.891   4.156
 7277TIP3    H121753   5.952   1.814   4.205
 7277TIP3    H221754   6.027   1.849   4.079
 7278TIP3   OH221755   6.407   2.256   4.654
 7278TIP3    H121756   6.371   2.307   4.580
 7278TIP3    H221757   6.495   2.298   4.659
 7279TIP3   OH221758   6.177   2.692   3.653
 7279TIP3    H121759   6.105   2.626   3.642
 7279TIP3    H221760   6.157   2.725   3.744
 7280TIP3   OH221761   7.079   2.930   4.284
 7280TIP3    H121762   7.100   2.980   4.202
 7280TIP3    H221763   6.996   2.883   4.258
 7281TIP3   OH221764   6.636   2.002   3.522
 7281TIP3    H121765   6.539   1.983   3.532
 7281TIP3    H221766   6.644   2.095   3.549
 7282TIP3   OH221767   6.592   3.029   4.656
 7282TIP3    H121768   6.572   2.994   4.745
 7282TIP3    H221769   6.535   3.108   4.658
 7283TIP3   OH221770   6.706   2.252   3.623
 7283TIP3    H121771   6.802   2.258   3.641
 7283TIP3    H221772   6.688   2.334   3.574
 7284TIP3   OH221773   5.873   2.709   4.331
 7284TIP3    H121774   5.907   2.687   4.241
 7284TIP3    H221775   5.936   2.660   4.386
 7285TIP3   OH221776   6.324   2.841   3.478
 7285TIP3    H121777   6.275   2.926   3.482
 7285TIP3    H221778   6.270   2.785   3.539
 7286TIP3   OH221779   5.755   2.633   4.948
 7286TIP3    H121780   5.777   2.622   5.043
 7286TIP3    H221781   5.682   2.570   4.936
 7287TIP3   OH221782   6.479   2.722   4.972
 7287TIP3    H121783   6.433   2.704   4.889
 7287TIP3    H221784   6.571   2.702   4.945
 7288TIP3   OH221785   6.735   3.290   4.542
 7288TIP3    H121786   6.642   3.269   4.561
 7288TIP3    H221787   6.763   3.330   4.627
 7289TIP3   OH221788   7.144   2.346   3.459
 7289TIP3    H121789   7.083   2.302   3.395
 7289TIP3    H221790   7.142   2.436   3.420
 7290TIP3   OH221791   7.369   3.209   4.536
 7290TIP3    H121792   7.272   3.199   4.530
 7290TIP3    H221793   7.395   3.175   4.447
 7291TIP3   OH221794   6.851   3.163   3.370
 7291TIP3    H121795   6.822   3.095   3.433
 7291TIP3    H221796   6.863   3.113   3.287
 7292TIP3   OH221797   6.855   2.788   4.199
 7292TIP3    H121798   6.777   2.750   4.241
 7292TIP3    H221799   6.889   2.709   4.151
 7293TIP3   OH221800   5.974   3.020   3.956
 7293TIP3    H121801   5.970   3.101   3.902
 7293TIP3    H221802   5.881   3.003   3.973
 7294TIP3   OH221803   5.538   2.322   3.664
 7294TIP3    H121804   5.583   2.406   3.687
 7294TIP3    H221805   5.461   2.325   3.725
 7295TIP3   OH221806   6.103   2.782   3.896
 7295TIP3    H121807   6.070   2.872   3.917
 7295TIP3    H221808   6.071   2.731   3.972
 7296TIP3   OH221809   6.245   3.360   4.426
 7296TIP3    H121810   6.290   3.432   4.377
 7296TIP3    H221811   6.319   3.322   4.476
 7297TIP3   OH221812   5.890   3.259   3.808
 7297TIP3    H121813   5.805   3.268   3.856
 7297TIP3    H221814   5.923   3.351   3.812
 7298TIP3   OH221815   6.625   2.988   4.390
 7298TIP3    H121816   6.614   2.994   4.488
 7298TIP3    H221817   6.709   2.940   4.386
 7299TIP3   OH221818   6.608   2.894   3.271
 7299TIP3    H121819   6.664   2.867   3.348
 7299TIP3    H221820   6.521   2.863   3.301
 7300TIP3   OH221821   6.879   3.527   4.438
 7300TIP3    H121822   6.803   3.465   4.440
 7300TIP3    H221823   6.855   3.587   4.364
 7301TIP3   OH221824   6.943   3.362   3.086
 7301TIP3    H121825   6.976   3.435   3.033
 7301TIP3    H221826   6.863   3.404   3.124
 7302TIP3   OH221827   5.988   2.131   4.930
 7302TIP3    H121828   5.892   2.123   4.940
 7302TIP3    H221829   6.019   2.077   5.005
 7303TIP3   OH221830   6.770   2.821   3.481
 7303TIP3    H121831   6.759   2.756   3.553
 7303TIP3    H221832   6.867   2.818   3.471
 7304TIP3   OH221833   5.683   3.223   4.584
 7304TIP3    H121834   5.738   3.152   4.621
 7304TIP3    H221835   5.706   3.297   4.641
 7305TIP3   OH221836   5.965   2.869   3.269
 7305TIP3    H121837   5.983   2.776   3.245
 7305TIP3    H221838   5.948   2.860   3.365
 7306TIP3   OH221839   5.912   2.875   3.542
 7306TIP3    H121840   5.987   2.846   3.595
 7306TIP3    H221841   5.917   2.973   3.551
 7307TIP3   OH221842   5.646   2.566   3.746
 7307TIP3    H121843   5.580   2.611   3.803
 7307TIP3    H221844   5.661   2.634   3.679
 7308TIP3   OH221845   6.805   2.201   4.637
 7308TIP3    H121846   6.885   2.246   4.669
 7308TIP3    H221847   6.800   2.123   4.695
 7309TIP3   OH221848   6.684   1.944   3.805
 7309TIP3    H121849   6.670   1.971   3.713
 7309TIP3    H221850   6.727   2.024   3.843
 7310TIP3   OH221851   6.181   3.070   3.487
 7310TIP3    H121852   6.094   3.094   3.526
 7310TIP3    H221853   6.199   3.149   3.434
 7311TIP3   OH221854   6.360   2.135   3.904
 7311TIP3    H121855   6.425   2.206   3.884
 7311TIP3    H221856   6.372   2.126   4.001
 7312TIP3   OH221857   6.628   2.437   4.727
 7312TIP3    H121858   6.664   2.507   4.784
 7312TIP3    H221859   6.704   2.378   4.714
 7313TIP3   OH221860   6.508   1.854   4.004
 7313TIP3    H121861   6.497   1.933   4.061
 7313TIP3    H221862   6.573   1.888   3.938
 7314TIP3   OH221863   5.927   3.147   3.559
 7314TIP3    H121864   5.898   3.218   3.499
 7314TIP3    H221865   5.912   3.189   3.647
 7315TIP3   OH221866   6.027   1.862   3.795
 7315TIP3    H121867   6.025   1.952   3.832
 7315TIP3    H221868   6.123   1.844   3.803
 7316TIP3   OH221869   7.277   2.353   4.693
 7316TIP3    H121870   7.179   2.351   4.702
 7316TIP3    H221871   7.287   2.310   4.607
 7317TIP3   OH221872   6.938   2.551   4.080
 7317TIP3    H121873   6.860   2.493   4.089
 7317TIP3    H221874   7.004   2.501   4.132
 7318TIP3   OH221875   5.646   2.772   3.547
 7318TIP3    H121876   5.719   2.835   3.559
 7318TIP3    H221877   5.689   2.711   3.483
 7319TIP3   OH221878   5.584   2.051   3.685
 7319TIP3    H121879   5.586   2.149   3.683
 7319TIP3    H221880   5.506   2.031   3.634
 7320TIP3   OH221881   6.899   3.510   4.028
 7320TIP3    H121882   6.856   3.557   3.952
 7320TIP3    H221883   6.993   3.528   4.006
 7321TIP3   OH221884   5.973   1.779   4.568
 7321TIP3    H121885   5.958   1.747   4.476
 7321TIP3    H221886   5.968   1.696   4.619
 7322TIP3   OH221887   5.507   2.987   3.932
 7322TIP3    H121888   5.447   3.019   4.001
 7322TIP3    H221889   5.473   3.033   3.852
 7323TIP3   OH221890   5.676   3.542   5.007
 7323TIP3    H121891   5.762   3.544   5.055
 7323TIP3    H221892   5.665   3.445   5.000
 7324TIP3   OH221893   6.145   3.507   5.045
 7324TIP3    H121894   6.203   3.451   5.098
 7324TIP3    H221895   6.123   3.446   4.971
 7325TIP3   OH221896   6.131   3.070   3.176
 7325TIP3    H121897   6.077   2.998   3.217
 7325TIP3    H221898   6.208   3.020   3.146
 7326TIP3   OH221899   6.791   3.404   4.787
 7326TIP3    H121900   6.782   3.334   4.856
 7326TIP3    H221901   6.867   3.455   4.819
 7327TIP3   OH221902   6.567   3.108   3.094
 7327TIP3    H121903   6.606   3.043   3.156
 7327TIP3    H221904   6.627   3.103   3.017
 7328TIP3   OH221905   5.790   2.931   5.214
 7328TIP3    H121906   5.807   2.836   5.214
 7328TIP3    H221907   5.706   2.939   5.163
 7329TIP3   OH221908   5.781   2.584   3.406
 7329TIP3    H121909   5.838   2.555   3.480
 7329TIP3    H221910   5.848   2.589   3.334
 7330TIP3   OH221911   6.472   3.000   4.899
 7330TIP3    H121912   6.391   3.053   4.906
 7330TIP3    H221913   6.456   2.924   4.957
 7331TIP3   OH221914   6.293   2.788   3.210
 7331TIP3    H121915   6.297   2.800   3.307
 7331TIP3    H221916   6.295   2.690   3.204
 7332TIP3   OH221917   6.905   3.033   4.592
 7332TIP3    H121918   6.972   3.087   4.547
 7332TIP3    H221919   6.825   3.087   4.585
 7333TIP3   OH221920   5.922   2.662   5.196
 7333TIP3    H121921   6.009   2.647   5.155
 7333TIP3    H221922   5.948   2.703   5.281
 7334TIP3   OH221923   5.980   2.497   3.619
 7334TIP3    H121924   5.957   2.459   3.705
 7334TIP3    H221925   6.021   2.421   3.572
 7335TIP3   OH221926   6.239   2.540   4.831
 7335TIP3    H121927   6.177   2.614   4.847
 7335TIP3    H221928   6.305   2.583   4.771
 7336TIP3   OH221929   6.090   2.292   3.463
 7336TIP3    H121930   6.066   2.299   3.368
 7336TIP3    H221931   6.188   2.293   3.457
 7337TIP3   OH221932   6.794   2.969   4.996
 7337TIP3    H121933   6.848   2.925   4.930
 7337TIP3    H221934   6.775   2.897   5.059
 7338TIP3   OH221935   6.905   2.616   3.133
 7338TIP3    H121936   6.887   2.573   3.047
 7338TIP3    H221937   6.872   2.707   3.111
 7339TIP3   OH221938   6.375   2.355   4.972
 7339TIP3    H121939   6.419   2.310   4.898
 7339TIP3    H221940   6.332   2.429   4.923
 7340TIP3   OH221941   6.405   2.669   4.667
 7340TIP3    H121942   6.448   2.624   4.591
 7340TIP3    H221943   6.353   2.736   4.618
 7341TIP3   OH221944   6.990   2.633   5.037
 7341TIP3    H121945   7.042   2.552   5.043
 7341TIP3    H221946   7.054   2.694   4.997
 7342TIP3   OH221947   7.031   2.892   4.783
 7342TIP3    H121948   6.973   2.943   4.723
 7342TIP3    H221949   7.118   2.912   4.742
 7343TIP3   OH221950   6.255   2.454   5.215
 7343TIP3    H121951   6.188   2.385   5.229
 7343TIP3    H221952   6.289   2.432   5.126
 7344TIP3   OH221953   6.508   1.903   4.853
 7344TIP3    H121954   6.485   1.973   4.790
 7344TIP3    H221955   6.436   1.838   4.837
 7345TIP3   OH221956   6.644   2.400   5.073
 7345TIP3    H121957   6.637   2.388   5.169
 7345TIP3    H221958   6.551   2.385   5.047
 7346TIP3   OH221959   6.880   2.348   4.926
 7346TIP3    H121960   6.804   2.353   4.988
 7346TIP3    H221961   6.953   2.320   4.984
 7347TIP3   OH221962   7.111   2.293   5.076
 7347TIP3    H121963   7.123   2.197   5.091
 7347TIP3    H221964   7.106   2.329   5.168
 7348TIP3   OH221965   6.092   2.233   5.268
 7348TIP3    H121966   6.100   2.140   5.238
 7348TIP3    H221967   6.132   2.227   5.357
 7349TIP3   OH221968   6.604   1.906   5.115
 7349TIP3    H121969   6.671   1.835   5.109
 7349TIP3    H221970   6.564   1.902   5.026
 7350TIP3   OH221971   6.673   2.120   5.274
 7350TIP3    H121972   6.652   2.049   5.210
 7350TIP3    H221973   6.594   2.179   5.266
 7351TIP3   OH221974   5.898   3.349   3.370
 7351TIP3    H121975   5.993   3.337   3.354
 7351TIP3    H221976   5.875   3.404   3.292
 7352TIP3   OH221977   5.376   2.734   3.583
 7352TIP3    H121978   5.471   2.754   3.570
 7352TIP3    H221979   5.370   2.644   3.543
 7353TIP3   OH221980   5.296   3.342   4.001
 7353TIP3    H121981   5.228   3.282   3.963
 7353TIP3    H221982   5.338   3.282   4.067
 7354TIP3   OH221983   5.428   3.186   4.188
 7354TIP3    H121984   5.413   3.119   4.257
 7354TIP3    H221985   5.481   3.251   4.239
 7355TIP3   OH221986   7.156   3.596   3.990
 7355TIP3    H121987   7.184   3.622   4.079
 7355TIP3    H221988   7.226   3.631   3.934
 7356TIP3   OH221989   7.186   3.613   4.272
 7356TIP3    H121990   7.135   3.529   4.267
 7356TIP3    H221991   7.257   3.584   4.332
 7357TIP3   OH221992   7.230   3.292   4.845
 7357TIP3    H121993   7.158   3.301   4.910
 7357TIP3    H221994   7.272   3.380   4.850
 7358TIP3   OH221995   7.047   2.803   3.462
 7358TIP3    H121996   7.114   2.868   3.432
 7358TIP3    H221997   7.091   2.765   3.541
 7359TIP3   OH221998   7.174   2.671   3.667
 7359TIP3    H121999   7.107   2.629   3.726
 7359TIP3    H222000   7.239   2.706   3.732
 7360TIP3   OH222001   7.233   3.068   4.098
 7360TIP3    H122002   7.284   2.997   4.054
 7360TIP3    H222003   7.225   3.135   4.028
 7361TIP3   OH222004   7.056   3.367   4.289
 7361TIP3    H122005   6.984   3.405   4.343
 7361TIP3    H222006   7.007   3.320   4.219
 7362TIP3   OH222007   7.110   2.580   3.311
 7362TIP3    H122008   7.038   2.582   3.244
 7362TIP3    H222009   7.082   2.655   3.367
 7363TIP3   OH222010   6.981   2.252   3.263
 7363TIP3    H122011   6.935   2.285   3.185
 7363TIP3    H222012   6.960   2.156   3.257
 7364TIP3   OH222013   6.985   2.531   3.811
 7364TIP3    H122014   6.991   2.434   3.805
 7364TIP3    H222015   6.972   2.544   3.908
 7365TIP3   OH222016   5.611   2.595   4.563
 7365TIP3    H122017   5.608   2.565   4.470
 7365TIP3    H222018   5.708   2.601   4.577
 7366TIP3   OH222019   7.278   2.955   4.671
 7366TIP3    H122020   7.347   2.887   4.658
 7366TIP3    H222021   7.297   3.018   4.601
 7367TIP3   OH222022   7.459   2.753   4.675
 7367TIP3    H122023   7.383   2.706   4.716
 7367TIP3    H222024   7.531   2.690   4.696
 7368TIP3   OH222025   6.925   1.985   3.246
 7368TIP3    H122026   6.997   1.953   3.304
 7368TIP3    H222027   6.850   1.927   3.268
 7369TIP3   OH222028   6.983   2.247   3.702
 7369TIP3    H122029   7.024   2.159   3.717
 7369TIP3    H222030   7.042   2.280   3.631
 7370TIP3   OH222031   7.145   2.408   4.202
 7370TIP3    H122032   7.230   2.435   4.161
 7370TIP3    H222033   7.156   2.448   4.290
 7371TIP3   OH222034   7.219   2.561   4.429
 7371TIP3    H122035   7.143   2.594   4.480
 7371TIP3    H222036   7.249   2.644   4.385
 7372TIP3   OH222037   5.827   2.280   5.217
 7372TIP3    H122038   5.924   2.281   5.231
 7372TIP3    H222039   5.805   2.194   5.259
 7373TIP3   OH222040   7.666   2.158   4.986
 7373TIP3    H122041   7.726   2.093   4.944
 7373TIP3    H222042   7.634   2.209   4.909
 7374TIP3   OH222043   7.093   1.997   3.742
 7374TIP3    H122044   7.140   1.981   3.826
 7374TIP3    H222045   7.031   1.921   3.741
 7375TIP3   OH222046   5.786   1.979   4.574
 7375TIP3    H122047   5.846   1.901   4.578
 7375TIP3    H222048   5.851   2.049   4.558
 7376TIP3   OH222049   5.594   2.253   4.640
 7376TIP3    H122050   5.641   2.247   4.555
 7376TIP3    H222051   5.612   2.345   4.665
 7377TIP3   OH222052   7.532   2.290   4.790
 7377TIP3    H122053   7.446   2.335   4.806
 7377TIP3    H222054   7.501   2.217   4.733
 7378TIP3   OH222055   7.168   1.926   3.379
 7378TIP3    H122056   7.208   1.857   3.322
 7378TIP3    H222057   7.235   1.997   3.377
 7379TIP3   OH222058   5.578   1.768   4.145
 7379TIP3    H122059   5.484   1.752   4.164
 7379TIP3    H222060   5.573   1.820   4.063
 7380TIP3   OH222061   6.738   3.463   3.644
 7380TIP3    H122062   6.790   3.452   3.562
 7380TIP3    H222063   6.789   3.529   3.692
 7381TIP3   OH222064   5.800   1.838   4.953
 7381TIP3    H122065   5.746   1.832   5.033
 7381TIP3    H222066   5.734   1.870   4.888
 7382TIP3   OH222067   5.837   3.285   5.014
 7382TIP3    H122068   5.752   3.241   5.029
 7382TIP3    H222069   5.896   3.245   5.082
 7383TIP3   OH222070   6.016   3.299   4.571
 7383TIP3    H122071   5.971   3.378   4.533
 7383TIP3    H222072   6.103   3.312   4.529
 7384TIP3   OH222073   6.457   3.542   4.717
 7384TIP3    H122074   6.499   3.537   4.805
 7384TIP3    H222075   6.523   3.594   4.667
 7385TIP3   OH222076   6.635   3.698   4.575
 7385TIP3    H122077   6.703   3.643   4.533
 7385TIP3    H222078   6.691   3.753   4.635
 7386TIP3   OH222079   7.434   2.054   4.673
 7386TIP3    H122080   7.345   2.046   4.635
 7386TIP3    H222081   7.467   1.962   4.663
 7387TIP3   OH222082   5.692   3.556   4.599
 7387TIP3    H122083   5.601   3.587   4.579
 7387TIP3    H222084   5.706   3.597   4.685
 7388TIP3   OH222085   5.929   3.536   4.460
 7388TIP3    H122086   5.841   3.547   4.503
 7388TIP3    H222087   5.910   3.566   4.369
 7389TIP3   OH222088   6.354   3.560   4.257
 7389TIP3    H122089   6.283   3.577   4.192
 7389TIP3    H222090   6.364   3.648   4.298
 7390TIP3   OH222091   6.623   3.503   4.308
 7390TIP3    H122092   6.528   3.516   4.289
 7390TIP3    H222093   6.663   3.577   4.261
 7391TIP3   OH222094   6.835   3.696   4.222
 7391TIP3    H122095   6.814   3.777   4.171
 7391TIP3    H222096   6.858   3.633   4.150
 7392TIP3   OH222097   5.604   3.347   4.343
 7392TIP3    H122098   5.630   3.320   4.433
 7392TIP3    H222099   5.677   3.305   4.293
 7393TIP3   OH222100   5.801   3.221   4.204
 7393TIP3    H122101   5.815   3.136   4.253
 7393TIP3    H222102   5.892   3.256   4.202
 7394TIP3   OH222103   6.068   3.311   4.211
 7394TIP3    H122104   6.096   3.218   4.203
 7394TIP3    H222105   6.118   3.335   4.292
 7395TIP3   OH222106   6.654   1.970   4.301
 7395TIP3    H122107   6.606   1.892   4.333
 7395TIP3    H222108   6.726   1.929   4.248
 7396TIP3   OH222109   7.157   1.849   4.194
 7396TIP3    H122110   7.195   1.903   4.121
 7396TIP3    H222111   7.063   1.876   4.192
 7397TIP3   OH222112   7.256   1.948   3.959
 7397TIP3    H122113   7.331   1.897   3.921
 7397TIP3    H222114   7.289   2.040   3.946
 7398TIP3   OH222115   5.892   1.681   4.315
 7398TIP3    H122116   5.798   1.652   4.317
 7398TIP3    H222117   5.937   1.594   4.310
 7399TIP3   OH222118   5.694   1.550   3.965
 7399TIP3    H122119   5.708   1.603   3.885
 7399TIP3    H222120   5.658   1.616   4.027
 7400TIP3   OH222121   6.338   1.712   4.188
 7400TIP3    H122122   6.385   1.758   4.117
 7400TIP3    H222123   6.383   1.745   4.267
 7401TIP3   OH222124   6.871   1.855   4.172
 7401TIP3    H122125   6.879   1.816   4.084
 7401TIP3    H222126   6.862   1.775   4.228
 7402TIP3   OH222127   6.908   1.785   3.736
 7402TIP3    H122128   6.823   1.829   3.754
 7402TIP3    H222129   6.894   1.698   3.780
 7403TIP3   OH222130   5.392   3.124   3.729
 7403TIP3    H122131   5.305   3.092   3.699
 7403TIP3    H222132   5.382   3.219   3.709
 7404TIP3   OH222133   5.796   1.710   3.716
 7404TIP3    H122134   5.842   1.645   3.659
 7404TIP3    H222135   5.871   1.761   3.753
 7405TIP3   OH222136   6.303   1.884   3.817
 7405TIP3    H122137   6.366   1.839   3.876
 7405TIP3    H222138   6.321   1.978   3.842
 7406TIP3   OH222139   6.164   3.303   3.318
 7406TIP3    H122140   6.252   3.326   3.282
 7406TIP3    H222141   6.143   3.228   3.258
 7407TIP3   OH222142   6.886   3.430   3.412
 7407TIP3    H122143   6.878   3.332   3.402
 7407TIP3    H222144   6.838   3.459   3.332
 7408TIP3   OH222145   6.097   1.958   5.198
 7408TIP3    H122146   6.062   1.887   5.255
 7408TIP3    H222147   6.191   1.957   5.227
 7409TIP3   OH222148   6.346   1.956   5.316
 7409TIP3    H122149   6.433   1.933   5.279
 7409TIP3    H222150   6.336   1.886   5.384
 7410TIP3   OH222151   5.480   3.168   3.371
 7410TIP3    H122152   5.466   3.168   3.467
 7410TIP3    H222153   5.565   3.119   3.363
 7411TIP3   OH222154   7.172   2.021   5.104
 7411TIP3    H122155   7.190   1.990   5.196
 7411TIP3    H222156   7.262   2.016   5.064
 7412TIP3   OH222157   7.106   3.570   4.598
 7412TIP3    H122158   7.028   3.539   4.548
 7412TIP3    H222159   7.084   3.665   4.607
 7413TIP3   OH222160   8.368   2.930   3.379
 7413TIP3    H122161   8.360   3.024   3.353
 7413TIP3    H222162   8.298   2.891   3.324
 7414TIP3   OH222163   8.357   2.958   3.743
 7414TIP3    H122164   8.370   2.909   3.827
 7414TIP3    H222165   8.347   2.886   3.678
 7415TIP3   OH222166   7.671   2.837   4.112
 7415TIP3    H122167   7.700   2.767   4.174
 7415TIP3    H222168   7.754   2.883   4.095
 7416TIP3   OH222169   8.584   3.245   3.461
 7416TIP3    H122170   8.652   3.195   3.410
 7416TIP3    H222171   8.634   3.318   3.499
 7417TIP3   OH222172   7.648   3.250   3.832
 7417TIP3    H122173   7.639   3.153   3.832
 7417TIP3    H222174   7.745   3.259   3.825
 7418TIP3   OH222175   7.352   2.450   3.613
 7418TIP3    H122176   7.304   2.532   3.634
 7418TIP3    H222177   7.281   2.398   3.571
 7419TIP3   OH222178   7.410   2.738   3.797
 7419TIP3    H122179   7.459   2.659   3.830
 7419TIP3    H222180   7.470   2.773   3.730
 7420TIP3   OH222181   8.269   3.715   3.457
 7420TIP3    H122182   8.306   3.646   3.397
 7420TIP3    H222183   8.262   3.666   3.539
 7421TIP3   OH222184   8.169   3.173   3.793
 7421TIP3    H122185   8.211   3.094   3.753
 7421TIP3    H222186   8.250   3.223   3.814
 7422TIP3   OH222187   7.922   2.330   3.792
 7422TIP3    H122188   7.908   2.402   3.727
 7422TIP3    H222189   7.874   2.258   3.747
 7423TIP3   OH222190   7.558   2.531   3.897
 7423TIP3    H122191   7.641   2.513   3.945
 7423TIP3    H222192   7.572   2.477   3.817
 7424TIP3   OH222193   7.989   2.731   3.697
 7424TIP3    H122194   8.083   2.710   3.719
 7424TIP3    H222195   7.958   2.646   3.662
 7425TIP3   OH222196   7.916   2.316   4.226
 7425TIP3    H122197   7.859   2.354   4.157
 7425TIP3    H222198   7.863   2.335   4.306
 7426TIP3   OH222199   8.261   3.157   3.226
 7426TIP3    H122200   8.217   3.143   3.141
 7426TIP3    H222201   8.220   3.240   3.256
 7427TIP3   OH222202   8.030   3.089   4.017
 7427TIP3    H122203   7.970   3.159   4.052
 7427TIP3    H222204   8.073   3.135   3.942
 7428TIP3   OH222205   7.792   2.430   4.009
 7428TIP3    H122206   7.855   2.502   4.031
 7428TIP3    H222207   7.840   2.389   3.933
 7429TIP3   OH222208   7.858   3.288   4.117
 7429TIP3    H122209   7.832   3.375   4.081
 7429TIP3    H222210   7.779   3.269   4.171
 7430TIP3   OH222211   7.246   2.977   3.352
 7430TIP3    H122212   7.205   3.004   3.267
 7430TIP3    H222213   7.279   3.062   3.387
 7431TIP3   OH222214   8.672   3.501   3.592
 7431TIP3    H122215   8.583   3.485   3.630
 7431TIP3    H222216   8.661   3.592   3.557
 7432TIP3   OH222217   8.253   2.058   3.931
 7432TIP3    H122218   8.289   1.974   3.967
 7432TIP3    H222219   8.174   2.074   3.987
 7433TIP3   OH222220   8.374   3.552   3.264
 7433TIP3    H122221   8.424   3.466   3.260
 7433TIP3    H222222   8.440   3.608   3.219
 7434TIP3   OH222223   8.526   3.342   3.206
 7434TIP3    H122224   8.527   3.269   3.142
 7434TIP3    H222225   8.546   3.294   3.289
 7435TIP3   OH222226   8.198   2.801   3.200
 7435TIP3    H122227   8.121   2.855   3.174
 7435TIP3    H222228   8.248   2.794   3.116
 7436TIP3   OH222229   8.161   2.575   2.915
 7436TIP3    H122230   8.238   2.628   2.942
 7436TIP3    H222231   8.199   2.486   2.916
 7437TIP3   OH222232   7.785   2.876   3.583
 7437TIP3    H122233   7.746   2.816   3.516
 7437TIP3    H222234   7.861   2.822   3.617
 7438TIP3   OH222235   7.916   3.291   3.729
 7438TIP3    H122236   7.897   3.254   3.641
 7438TIP3    H222237   8.004   3.252   3.748
 7439TIP3   OH222238   7.916   2.848   3.940
 7439TIP3    H122239   7.950   2.819   3.853
 7439TIP3    H222240   7.965   2.932   3.955
 7440TIP3   OH222241   8.431   3.487   3.713
 7440TIP3    H122242   8.425   3.565   3.770
 7440TIP3    H222243   8.423   3.411   3.774
 7441TIP3   OH222244   8.061   3.407   4.262
 7441TIP3    H122245   7.998   3.466   4.308
 7441TIP3    H222246   7.999   3.351   4.211
 7442TIP3   OH222247   8.386   2.732   3.005
 7442TIP3    H122248   8.464   2.760   3.054
 7442TIP3    H222249   8.406   2.776   2.920
 7443TIP3   OH222250   7.817   2.956   4.371
 7443TIP3    H122251   7.820   3.045   4.410
 7443TIP3    H222252   7.722   2.936   4.380
 7444TIP3   OH222253   8.138   3.414   3.256
 7444TIP3    H122254   8.221   3.463   3.272
 7444TIP3    H222255   8.076   3.485   3.235
 7445TIP3   OH222256   7.852   3.571   4.350
 7445TIP3    H122257   7.819   3.572   4.258
 7445TIP3    H222258   7.771   3.549   4.401
 7446TIP3   OH222259   7.654   2.719   3.385
 7446TIP3    H122260   7.582   2.761   3.332
 7446TIP3    H222261   7.619   2.631   3.400
 7447TIP3   OH222262   7.433   3.104   4.295
 7447TIP3    H122263   7.364   3.084   4.229
 7447TIP3    H222264   7.471   3.016   4.315
 7448TIP3   OH222265   7.288   3.298   3.920
 7448TIP3    H122266   7.384   3.288   3.915
 7448TIP3    H222267   7.279   3.372   3.982
 7449TIP3   OH222268   8.254   3.534   4.115
 7449TIP3    H122269   8.254   3.625   4.151
 7449TIP3    H222270   8.184   3.493   4.170
 7450TIP3   OH222271   8.018   3.662   3.077
 7450TIP3    H122272   7.970   3.650   2.993
 7450TIP3    H222273   7.988   3.751   3.104
 7451TIP3   OH222274   7.458   3.508   3.457
 7451TIP3    H122275   7.503   3.499   3.544
 7451TIP3    H222276   7.409   3.424   3.453
 7452TIP3   OH222277   8.194   3.583   2.726
 7452TIP3    H122278   8.248   3.511   2.686
 7452TIP3    H222279   8.235   3.591   2.814
 7453TIP3   OH222280   8.268   3.610   2.987
 7453TIP3    H122281   8.181   3.622   3.030
 7453TIP3    H222282   8.320   3.573   3.061
 7454TIP3   OH222283   7.637   3.288   4.280
 7454TIP3    H122284   7.686   3.269   4.362
 7454TIP3    H222285   7.563   3.224   4.286
 7455TIP3   OH222286   8.026   2.107   4.079
 7455TIP3    H122287   7.938   2.079   4.046
 7455TIP3    H222288   8.000   2.189   4.126
 7456TIP3   OH222289   8.550   2.187   4.336
 7456TIP3    H122290   8.572   2.190   4.430
 7456TIP3    H222291   8.452   2.174   4.341
 7457TIP3   OH222292   8.134   2.181   3.021
 7457TIP3    H122293   8.149   2.175   3.116
 7457TIP3    H222294   8.119   2.088   2.999
 7458TIP3   OH222295   7.969   2.626   4.087
 7458TIP3    H122296   7.918   2.646   4.168
 7458TIP3    H222297   7.953   2.707   4.034
 7459TIP3   OH222298   7.852   2.510   3.601
 7459TIP3    H122299   7.760   2.483   3.620
 7459TIP3    H222300   7.864   2.468   3.513
 7460TIP3   OH222301   8.352   2.593   3.297
 7460TIP3    H122302   8.290   2.668   3.284
 7460TIP3    H222303   8.383   2.581   3.207
 7461TIP3   OH222304   8.500   2.879   4.412
 7461TIP3    H122305   8.478   2.810   4.479
 7461TIP3    H222306   8.597   2.875   4.411
 7462TIP3   OH222307   8.418   2.667   3.583
 7462TIP3    H122308   8.405   2.660   3.487
 7462TIP3    H222309   8.498   2.612   3.597
 7463TIP3   OH222310   7.789   2.653   4.295
 7463TIP3    H122311   7.816   2.716   4.362
 7463TIP3    H222312   7.776   2.571   4.346
 7464TIP3   OH222313   7.825   2.114   3.008
 7464TIP3    H122314   7.824   2.124   3.105
 7464TIP3    H222315   7.754   2.176   2.982
 7465TIP3   OH222316   7.382   2.170   3.877
 7465TIP3    H122317   7.455   2.206   3.932
 7465TIP3    H222318   7.427   2.143   3.795
 7466TIP3   OH222319   7.343   2.153   3.395
 7466TIP3    H122320   7.389   2.190   3.317
 7466TIP3    H222321   7.283   2.227   3.415
 7467TIP3   OH222322   8.457   2.849   3.985
 7467TIP3    H122323   8.509   2.784   3.936
 7467TIP3    H222324   8.448   2.803   4.071
 7468TIP3   OH222325   8.171   2.348   3.655
 7468TIP3    H122326   8.101   2.337   3.721
 7468TIP3    H222327   8.249   2.311   3.701
 7469TIP3   OH222328   7.614   2.390   3.668
 7469TIP3    H122329   7.520   2.397   3.639
 7469TIP3    H222330   7.638   2.298   3.646
 7470TIP3   OH222331   7.879   2.381   3.361
 7470TIP3    H122332   7.973   2.400   3.341
 7470TIP3    H222333   7.833   2.405   3.277
 7471TIP3   OH222334   7.731   2.419   3.134
 7471TIP3    H122335   7.661   2.374   3.084
 7471TIP3    H222336   7.783   2.458   3.061
 7472TIP3   OH222337   8.823   4.153   4.095
 7472TIP3    H122338   8.802   4.166   4.000
 7472TIP3    H222339   8.899   4.092   4.086
 7473TIP3   OH222340   7.798   3.209   4.502
 7473TIP3    H122341   7.878   3.237   4.551
 7473TIP3    H222342   7.734   3.204   4.575
 7474TIP3   OH222343   8.239   2.667   3.782
 7474TIP3    H122344   8.304   2.661   3.709
 7474TIP3    H222345   8.268   2.597   3.842
 7475TIP3   OH222346   7.777   2.148   3.644
 7475TIP3    H122347   7.743   2.071   3.693
 7475TIP3    H222348   7.830   2.105   3.575
 7476TIP3   OH222349   8.241   2.552   4.065
 7476TIP3    H122350   8.153   2.594   4.060
 7476TIP3    H222351   8.297   2.621   4.106
 7477TIP3   OH222352   7.969   2.954   3.136
 7477TIP3    H122353   7.900   2.885   3.127
 7477TIP3    H222354   7.951   2.986   3.228
 7478TIP3   OH222355   8.361   3.266   4.139
 7478TIP3    H122356   8.413   3.249   4.219
 7478TIP3    H222357   8.328   3.356   4.154
 7479TIP3   OH222358   7.670   2.975   3.816
 7479TIP3    H122359   7.708   2.945   3.730
 7479TIP3    H222360   7.716   2.916   3.878
 7480TIP3   OH222361   8.122   3.098   2.956
 7480TIP3    H122362   8.068   3.181   2.959
 7480TIP3    H222363   8.068   3.041   3.016
 7481TIP3   OH222364   7.550   2.889   4.432
 7481TIP3    H122365   7.562   2.872   4.528
 7481TIP3    H222366   7.479   2.826   4.410
 7482TIP3   OH222367   8.267   3.012   4.455
 7482TIP3    H122368   8.206   2.951   4.411
 7482TIP3    H222369   8.354   2.978   4.425
 7483TIP3   OH222370   8.545   3.523   4.034
 7483TIP3    H122371   8.449   3.514   4.029
 7483TIP3    H222372   8.553   3.576   4.117
 7484TIP3   OH222373   8.626   3.014   3.710
 7484TIP3    H122374   8.528   3.005   3.712
 7484TIP3    H222375   8.640   3.021   3.614
 7485TIP3   OH222376   7.771   3.280   3.449
 7485TIP3    H122377   7.765   3.359   3.392
 7485TIP3    H222378   7.678   3.255   3.458
 7486TIP3   OH222379   7.336   2.578   3.152
 7486TIP3    H122380   7.380   2.662   3.175
 7486TIP3    H222381   7.258   2.581   3.213
 7487TIP3   OH222382   7.896   3.039   3.382
 7487TIP3    H122383   7.866   3.128   3.407
 7487TIP3    H222384   7.867   2.986   3.459
 7488TIP3   OH222385   8.041   3.617   3.913
 7488TIP3    H122386   8.084   3.689   3.862
 7488TIP3    H222387   8.117   3.578   3.959
 7489TIP3   OH222388   7.685   3.516   3.296
 7489TIP3    H122389   7.600   3.524   3.344
 7489TIP3    H222390   7.717   3.609   3.299
 7490TIP3   OH222391   8.422   3.257   3.874
 7490TIP3    H122392   8.406   3.250   3.971
 7490TIP3    H222393   8.477   3.179   3.858
 7491TIP3   OH222394   8.324   3.167   2.778
 7491TIP3    H122395   8.405   3.182   2.833
 7491TIP3    H222396   8.262   3.132   2.846
 7492TIP3   OH222397   8.645   3.806   3.941
 7492TIP3    H122398   8.590   3.728   3.919
 7492TIP3    H222399   8.641   3.855   3.857
 7493TIP3   OH222400   7.754   2.398   4.438
 7493TIP3    H122401   7.657   2.401   4.448
 7493TIP3    H222402   7.781   2.340   4.511
 7494TIP3   OH222403   7.477   3.478   4.070
 7494TIP3    H122404   7.531   3.404   4.102
 7494TIP3    H222405   7.505   3.548   4.131
 7495TIP3   OH222406   7.734   3.135   2.747
 7495TIP3    H122407   7.784   3.056   2.720
 7495TIP3    H222408   7.735   3.124   2.844
 7496TIP3   OH222409   7.709   3.132   3.026
 7496TIP3    H122410   7.786   3.100   3.076
 7496TIP3    H222411   7.716   3.230   3.039
 7497TIP3   OH222412   7.443   2.822   3.233
 7497TIP3    H122413   7.376   2.868   3.289
 7497TIP3    H222414   7.458   2.890   3.165
 7498TIP3   OH222415   7.978   3.327   2.967
 7498TIP3    H122416   7.888   3.346   3.001
 7498TIP3    H222417   8.015   3.416   2.963
 7499TIP3   OH222418   8.162   2.394   3.383
 7499TIP3    H122419   8.230   2.462   3.365
 7499TIP3    H222420   8.167   2.387   3.482
 7500TIP3   OH222421   8.449   2.699   4.209
 7500TIP3    H122422   8.452   2.764   4.282
 7500TIP3    H222423   8.513   2.633   4.240
 7501TIP3   OH222424   8.313   2.114   3.492
 7501TIP3    H122425   8.340   2.144   3.582
 7501TIP3    H222426   8.361   2.178   3.438
 7502TIP3   OH222427   7.727   3.406   3.046
 7502TIP3    H122428   7.689   3.473   2.987
 7502TIP3    H222429   7.710   3.446   3.134
 7503TIP3   OH222430   7.826   2.117   3.284
 7503TIP3    H122431   7.820   2.207   3.322
 7503TIP3    H222432   7.922   2.104   3.291
 7504TIP3   OH222433   7.444   3.027   3.035
 7504TIP3    H122434   7.519   3.089   3.045
 7504TIP3    H222435   7.484   2.967   2.969
 7505TIP3   OH222436   7.380   2.307   3.172
 7505TIP3    H122437   7.384   2.405   3.170
 7505TIP3    H222438   7.301   2.289   3.121
 7506TIP3   OH222439   8.718   3.766   3.505
 7506TIP3    H122440   8.674   3.807   3.427
 7506TIP3    H222441   8.792   3.720   3.461
 7507TIP3   OH222442   7.765   2.028   4.041
 7507TIP3    H122443   7.738   1.992   3.954
 7507TIP3    H222444   7.756   1.949   4.099
 7508TIP3   OH222445   7.307   3.250   3.419
 7508TIP3    H122446   7.245   3.278   3.488
 7508TIP3    H222447   7.270   3.293   3.339
 7509TIP3   OH222448   7.470   3.796   4.494
 7509TIP3    H122449   7.557   3.793   4.540
 7509TIP3    H222450   7.447   3.702   4.493
 7510TIP3   OH222451   7.948   3.749   4.539
 7510TIP3    H122452   8.041   3.725   4.543
 7510TIP3    H222453   7.918   3.688   4.468
 7511TIP3   OH222454   8.554   3.649   4.272
 7511TIP3    H122455   8.552   3.580   4.342
 7511TIP3    H222456   8.622   3.711   4.304
 7512TIP3   OH222457   8.298   3.361   2.599
 7512TIP3    H122458   8.302   3.287   2.664
 7512TIP3    H222459   8.394   3.372   2.579
 7513TIP3   OH222460   7.598   3.199   4.695
 7513TIP3    H122461   7.613   3.102   4.702
 7513TIP3    H222462   7.511   3.201   4.649
 7514TIP3   OH222463   7.577   2.840   2.892
 7514TIP3    H122464   7.635   2.811   2.965
 7514TIP3    H222465   7.643   2.850   2.820
 7515TIP3   OH222466   8.202   3.287   4.470
 7515TIP3    H122467   8.165   3.307   4.382
 7515TIP3    H222468   8.233   3.194   4.459
 7516TIP3   OH222469   8.048   3.039   2.676
 7516TIP3    H122470   8.073   3.065   2.766
 7516TIP3    H222471   8.072   2.944   2.678
 7517TIP3   OH222472   8.666   3.261   4.094
 7517TIP3    H122473   8.709   3.243   4.009
 7517TIP3    H222474   8.610   3.338   4.074
 7518TIP3   OH222475   7.718   2.939   4.681
 7518TIP3    H122476   7.792   2.886   4.650
 7518TIP3    H222477   7.749   2.967   4.769
 7519TIP3   OH222478   7.778   2.754   3.107
 7519TIP3    H122479   7.754   2.714   3.193
 7519TIP3    H222480   7.817   2.678   3.059
 7520TIP3   OH222481   8.056   2.818   4.340
 7520TIP3    H122482   7.976   2.875   4.339
 7520TIP3    H222483   8.106   2.851   4.261
 7521TIP3   OH222484   7.883   2.551   2.949
 7521TIP3    H122485   7.858   2.556   2.855
 7521TIP3    H222486   7.981   2.553   2.942
 7522TIP3   OH222487   8.571   3.213   4.478
 7522TIP3    H122488   8.651   3.176   4.436
 7522TIP3    H222489   8.555   3.147   4.547
 7523TIP3   OH222490   8.164   2.602   4.465
 7523TIP3    H122491   8.169   2.525   4.405
 7523TIP3    H222492   8.125   2.671   4.406
 7524TIP3   OH222493   8.174   2.389   4.278
 7524TIP3    H122494   8.207   2.434   4.197
 7524TIP3    H222495   8.082   2.370   4.253
 7525TIP3   OH222496   8.207   2.923   4.144
 7525TIP3    H122497   8.289   2.931   4.092
 7525TIP3    H222498   8.149   2.988   4.100
 7526TIP3   OH222499   8.055   2.709   4.701
 7526TIP3    H122500   7.987   2.641   4.716
 7526TIP3    H222501   8.085   2.685   4.611
 7527TIP3   OH222502   8.283   2.147   4.364
 7527TIP3    H122503   8.237   2.229   4.335
 7527TIP3    H222504   8.216   2.078   4.344
 7528TIP3   OH222505   8.416   2.667   4.563
 7528TIP3    H122506   8.413   2.645   4.658
 7528TIP3    H222507   8.327   2.636   4.534
 7529TIP3   OH222508   8.670   2.652   4.462
 7529TIP3    H122509   8.587   2.653   4.513
 7529TIP3    H222510   8.701   2.562   4.479
 7530TIP3   OH222511   7.893   2.491   4.754
 7530TIP3    H122512   7.896   2.399   4.719
 7530TIP3    H222513   7.931   2.477   4.844
 7531TIP3   OH222514   8.418   2.158   4.604
 7531TIP3    H122515   8.466   2.074   4.611
 7531TIP3    H222516   8.362   2.145   4.524
 7532TIP3   OH222517   8.477   2.376   4.761
 7532TIP3    H122518   8.457   2.304   4.696
 7532TIP3    H222519   8.395   2.430   4.757
 7533TIP3   OH222520   7.677   3.615   2.864
 7533TIP3    H122521   7.774   3.612   2.853
 7533TIP3    H222522   7.654   3.663   2.782
 7534TIP3   OH222523   7.173   2.990   3.069
 7534TIP3    H122524   7.268   3.010   3.056
 7534TIP3    H222525   7.166   2.901   3.029
 7535TIP3   OH222526   7.091   3.600   3.489
 7535TIP3    H122527   7.024   3.539   3.450
 7535TIP3    H222528   7.134   3.540   3.554
 7536TIP3   OH222529   7.222   3.445   3.676
 7536TIP3    H122530   7.211   3.375   3.743
 7536TIP3    H222531   7.275   3.508   3.728
 7537TIP3   OH222532   7.406   2.859   4.047
 7537TIP3    H122533   7.403   2.823   3.955
 7537TIP3    H222534   7.503   2.860   4.063
 7538TIP3   OH222535   7.627   2.544   4.724
 7538TIP3    H122536   7.725   2.538   4.727
 7538TIP3    H222537   7.603   2.456   4.760
 7539TIP3   OH222538   7.587   2.239   4.050
 7539TIP3    H122539   7.648   2.163   4.057
 7539TIP3    H222540   7.650   2.312   4.041
 7540TIP3   OH222541   7.389   2.509   4.124
 7540TIP3    H122542   7.438   2.505   4.039
 7540TIP3    H222543   7.417   2.594   4.159
 7541TIP3   OH222544   7.374   2.008   3.621
 7541TIP3    H122545   7.283   2.006   3.654
 7541TIP3    H222546   7.367   2.070   3.545
 7542TIP3   OH222547   8.538   3.707   3.115
 7542TIP3    H122548   8.619   3.682   3.068
 7542TIP3    H222549   8.570   3.779   3.173
 7543TIP3   OH222550   7.594   2.094   4.440
 7543TIP3    H122551   7.541   2.090   4.521
 7543TIP3    H222552   7.530   2.133   4.377
 7544TIP3   OH222553   7.631   3.529   4.515
 7544TIP3    H122554   7.539   3.501   4.497
 7544TIP3    H222555   7.644   3.499   4.605
 7545TIP3   OH222556   7.815   3.561   4.065
 7545TIP3    H122557   7.768   3.636   4.024
 7545TIP3    H222558   7.901   3.572   4.019
 7546TIP3   OH222559   8.253   3.801   4.204
 7546TIP3    H122560   8.298   3.798   4.291
 7546TIP3    H222561   8.318   3.850   4.150
 7547TIP3   OH222562   8.430   3.953   4.060
 7547TIP3    H122563   8.501   3.899   4.019
 7547TIP3    H222564   8.482   4.008   4.121
 7548TIP3   OH222565   7.487   3.816   4.084
 7548TIP3    H122566   7.397   3.849   4.064
 7548TIP3    H222567   7.498   3.850   4.174
 7549TIP3   OH222568   7.726   3.794   3.948
 7549TIP3    H122569   7.637   3.805   3.990
 7549TIP3    H222570   7.706   3.822   3.856
 7550TIP3   OH222571   8.145   3.819   3.746
 7550TIP3    H122572   8.077   3.835   3.678
 7550TIP3    H222573   8.156   3.907   3.786
 7551TIP3   OH222574   8.410   3.753   3.793
 7551TIP3    H122575   8.318   3.775   3.772
 7551TIP3    H222576   8.458   3.828   3.753
 7552TIP3   OH222577   8.601   3.937   3.692
 7552TIP3    H122578   8.598   4.026   3.651
 7552TIP3    H222579   8.635   3.883   3.617
 7553TIP3   OH222580   7.400   3.605   3.832
 7553TIP3    H122581   7.427   3.575   3.922
 7553TIP3    H222582   7.471   3.562   3.780
 7554TIP3   OH222583   7.596   3.479   3.692
 7554TIP3    H122584   7.610   3.394   3.741
 7554TIP3    H222585   7.687   3.512   3.688
 7555TIP3   OH222586   7.865   3.569   3.696
 7555TIP3    H122587   7.892   3.476   3.686
 7555TIP3    H222588   7.915   3.590   3.778
 7556TIP3   OH222589   8.395   2.188   3.737
 7556TIP3    H122590   8.355   2.144   3.815
 7556TIP3    H222591   8.490   2.177   3.758
 7557TIP3   OH222592   7.684   1.933   3.793
 7557TIP3    H122593   7.591   1.900   3.797
 7557TIP3    H222594   7.732   1.848   3.787
 7558TIP3   OH222595   7.474   1.807   3.445
 7558TIP3    H122596   7.502   1.865   3.371
 7558TIP3    H222597   7.445   1.873   3.512
 7559TIP3   OH222598   8.126   1.972   3.684
 7559TIP3    H122599   8.182   2.020   3.621
 7559TIP3    H222600   8.162   2.003   3.769
 7560TIP3   OH222601   7.187   3.383   3.216
 7560TIP3    H122602   7.100   3.349   3.186
 7560TIP3    H222603   7.178   3.476   3.190
 7561TIP3   OH222604   7.591   1.963   3.206
 7561TIP3    H122605   7.638   1.903   3.146
 7561TIP3    H222606   7.665   2.018   3.241
 7562TIP3   OH222607   8.104   2.138   3.309
 7562TIP3    H122608   8.165   2.105   3.377
 7562TIP3    H222609   8.115   2.234   3.324
 7563TIP3   OH222610   7.942   3.576   2.820
 7563TIP3    H122611   8.030   3.593   2.777
 7563TIP3    H222612   7.917   3.494   2.775
 7564TIP3   OH222613   7.890   2.216   4.688
 7564TIP3    H122614   7.855   2.145   4.744
 7564TIP3    H222615   7.984   2.216   4.716
 7565TIP3   OH222616   8.140   2.213   4.808
 7565TIP3    H122617   8.223   2.184   4.766
 7565TIP3    H222618   8.125   2.142   4.873
 7566TIP3   OH222619   7.267   3.400   2.859
 7566TIP3    H122620   7.264   3.417   2.955
 7566TIP3    H222621   7.354   3.358   2.848
 7567TIP3   OH222622   8.846   3.797   4.135
 7567TIP3    H122623   8.773   3.777   4.075
 7567TIP3    H222624   8.894   3.864   4.083
 7568TIP3   OH222625   0.829   3.735   5.049
 7568TIP3    H122626   0.795   3.824   5.027
 7568TIP3    H222627   0.754   3.681   5.019
 7569TIP3   OH222628   0.824   3.732   5.444
 7569TIP3    H122629   0.864   3.706   5.529
 7569TIP3    H222630   0.788   3.648   5.413
 7570TIP3   OH222631   0.134   3.585   5.799
 7570TIP3    H122632   0.174   3.525   5.865
 7570TIP3    H222633   0.207   3.645   5.778
 7571TIP3   OH222634   1.075   4.035   5.120
 7571TIP3    H122635   1.057   3.967   5.186
 7571TIP3    H222636   1.105   4.110   5.175
 7572TIP3   OH222637   0.130   4.038   5.540
 7572TIP3    H122638   0.117   3.943   5.559
 7572TIP3    H222639   0.225   4.041   5.519
 7573TIP3   OH222640   8.364   1.533   3.592
 7573TIP3    H122641   8.346   1.628   3.603
 7573TIP3    H222642   8.289   1.493   3.639
 7574TIP3   OH222643  -0.128   3.513   5.461
 7574TIP3    H122644  -0.068   3.436   5.478
 7574TIP3    H222645  -0.113   3.532   5.367
 7575TIP3   OH222646   0.726   4.500   5.133
 7575TIP3    H122647   0.763   4.428   5.079
 7575TIP3    H222648   0.714   4.455   5.218
 7576TIP3   OH222649   0.629   3.958   5.480
 7576TIP3    H122650   0.671   3.879   5.442
 7576TIP3    H222651   0.711   4.006   5.505
 7577TIP3   OH222652   1.645   3.276   5.482
 7577TIP3    H122653   1.672   3.361   5.522
 7577TIP3    H222654   1.666   3.290   5.389
 7578TIP3   OH222655   1.044   3.456   5.512
 7578TIP3    H122656   1.079   3.368   5.534
 7578TIP3    H222657   1.006   3.438   5.424
 7579TIP3   OH222658   0.374   3.120   5.480
 7579TIP3    H122659   0.363   3.191   5.413
 7579TIP3    H222660   0.329   3.046   5.433
 7580TIP3   OH222661   1.074   3.208   5.096
 7580TIP3    H122662   1.144   3.196   5.165
 7580TIP3    H222663   1.128   3.246   5.024
 7581TIP3   OH222664   0.022   3.311   5.573
 7581TIP3    H122665   0.108   3.298   5.618
 7581TIP3    H222666   0.034   3.252   5.496
 7582TIP3   OH222667   0.453   3.517   5.378
 7582TIP3    H122668   0.547   3.493   5.392
 7582TIP3    H222669   0.416   3.433   5.346
 7583TIP3   OH222670   1.717   3.488   5.651
 7583TIP3    H122671   1.631   3.532   5.631
 7583TIP3    H222672   1.733   3.521   5.740
 7584TIP3   OH222673   0.376   3.115   5.920
 7584TIP3    H122674   0.319   3.147   5.848
 7584TIP3    H222675   0.319   3.129   5.998
 7585TIP3   OH222676   0.709   3.952   4.923
 7585TIP3    H122677   0.676   3.942   4.833
 7585TIP3    H222678   0.665   4.035   4.951
 7586TIP3   OH222679   0.489   3.877   5.701
 7586TIP3    H122680   0.428   3.947   5.734
 7586TIP3    H222681   0.533   3.922   5.626
 7587TIP3   OH222682   1.274   3.217   5.279
 7587TIP3    H122683   1.253   3.169   5.360
 7587TIP3    H222684   1.324   3.294   5.312
 7588TIP3   OH222685   0.249   3.218   5.698
 7588TIP3    H122686   0.311   3.292   5.722
 7588TIP3    H222687   0.298   3.179   5.622
 7589TIP3   OH222688   0.322   4.079   5.794
 7589TIP3    H122689   0.292   4.153   5.739
 7589TIP3    H222690   0.250   4.080   5.860
 7590TIP3   OH222691   1.139   4.282   5.282
 7590TIP3    H122692   1.049   4.272   5.321
 7590TIP3    H222693   1.130   4.367   5.236
 7591TIP3   OH222694   1.433   3.175   5.650
 7591TIP3    H122695   1.343   3.194   5.618
 7591TIP3    H222696   1.489   3.208   5.577
 7592TIP3   OH222697   0.835   4.322   4.950
 7592TIP3    H122698   0.886   4.239   4.932
 7592TIP3    H222699   0.900   4.387   4.914
 7593TIP3   OH222700   0.981   4.107   4.870
 7593TIP3    H122701   0.958   4.025   4.824
 7593TIP3    H222702   1.021   4.072   4.953
 7594TIP3   OH222703   1.366   4.188   5.627
 7594TIP3    H122704   1.353   4.111   5.567
 7594TIP3    H222705   1.348   4.263   5.566
 7595TIP3   OH222706   0.658   3.584   4.887
 7595TIP3    H122707   0.579   3.638   4.864
 7595TIP3    H222708   0.705   3.581   4.801
 7596TIP3   OH222709   0.617   3.372   4.595
 7596TIP3    H122710   0.683   3.424   4.645
 7596TIP3    H222711   0.676   3.310   4.548
 7597TIP3   OH222712   1.560   3.830   5.473
 7597TIP3    H122713   1.475   3.880   5.476
 7597TIP3    H222714   1.591   3.853   5.383
 7598TIP3   OH222715   1.007   3.667   4.853
 7598TIP3    H122716   0.953   3.691   4.932
 7598TIP3    H222717   1.091   3.642   4.897
 7599TIP3   OH222718   1.239   3.705   5.769
 7599TIP3    H122719   1.234   3.790   5.817
 7599TIP3    H222720   1.152   3.705   5.724
 7600TIP3   OH222721   0.239   3.660   5.273
 7600TIP3    H122722   0.201   3.602   5.204
 7600TIP3    H222723   0.317   3.608   5.303
 7601TIP3   OH222724   0.380   4.073   5.417
 7601TIP3    H122725   0.360   4.037   5.329
 7601TIP3    H222726   0.469   4.035   5.435
 7602TIP3   OH222727   0.383   3.634   5.624
 7602TIP3    H122728   0.415   3.607   5.535
 7602TIP3    H222729   0.428   3.720   5.637
 7603TIP3   OH222730   0.899   4.274   5.405
 7603TIP3    H122731   0.889   4.353   5.462
 7603TIP3    H222732   0.884   4.200   5.467
 7604TIP3   OH222733   0.521   4.185   5.950
 7604TIP3    H122734   0.460   4.253   5.987
 7604TIP3    H222735   0.459   4.136   5.892
 7605TIP3   OH222736   0.842   3.527   4.683
 7605TIP3    H122737   0.903   3.586   4.732
 7605TIP3    H222738   0.870   3.546   4.590
 7606TIP3   OH222739   0.270   3.753   6.049
 7606TIP3    H122740   0.270   3.829   6.110
 7606TIP3    H222741   0.181   3.760   6.011
 7607TIP3   OH222742   0.587   4.208   4.958
 7607TIP3    H122743   0.674   4.252   4.964
 7607TIP3    H222744   0.536   4.271   4.905
 7608TIP3   OH222745   0.330   4.380   6.009
 7608TIP3    H122746   0.302   4.372   5.916
 7608TIP3    H222747   0.244   4.374   6.055
 7609TIP3   OH222748   1.360   2.761   4.732
 7609TIP3    H122749   1.279   2.786   4.781
 7609TIP3    H222750   1.377   2.844   4.682
 7610TIP3   OH222751   0.107   3.506   5.069
 7610TIP3    H122752   0.039   3.535   5.005
 7610TIP3    H222753   0.067   3.426   5.105
 7611TIP3   OH222754   1.163   4.129   4.284
 7611TIP3    H122755   1.171   4.226   4.266
 7611TIP3    H222756   1.255   4.099   4.271
 7612TIP3   OH222757   1.601   4.537   5.676
 7612TIP3    H122758   1.602   4.440   5.689
 7612TIP3    H222759   1.517   4.561   5.723
 7613TIP3   OH222760   0.710   4.322   5.808
 7613TIP3    H122761   0.705   4.414   5.842
 7613TIP3    H222762   0.640   4.278   5.861
 7614TIP3   OH222763   0.472   4.426   4.771
 7614TIP3    H122764   0.428   4.429   4.684
 7614TIP3    H222765   0.462   4.520   4.800
 7615TIP3   OH222766   0.670   4.351   4.398
 7615TIP3    H122767   0.728   4.280   4.362
 7615TIP3    H222768   0.707   4.362   4.488
 7616TIP3   OH222769   0.723   4.403   4.669
 7616TIP3    H122770   0.636   4.403   4.712
 7616TIP3    H222771   0.779   4.367   4.740
 7617TIP3   OH222772   1.488   3.663   5.951
 7617TIP3    H122773   1.406   3.671   5.901
 7617TIP3    H222774   1.507   3.567   5.943
 7618TIP3   OH222775   0.140   4.123   5.998
 7618TIP3    H122776   0.186   4.085   6.076
 7618TIP3    H222777   0.068   4.060   5.989
 7619TIP3   OH222778   0.475   2.878   5.772
 7619TIP3    H122779   0.382   2.861   5.746
 7619TIP3    H222780   0.474   2.973   5.784
 7620TIP3   OH222781   1.033   3.029   5.962
 7620TIP3    H122782   1.094   2.986   6.025
 7620TIP3    H222783   0.946   2.991   5.984
 7621TIP3   OH222784   1.271   3.449   5.880
 7621TIP3    H122785   1.212   3.444   5.959
 7621TIP3    H222786   1.238   3.528   5.834
 7622TIP3   OH222787   0.923   3.568   4.429
 7622TIP3    H122788   0.886   3.548   4.341
 7622TIP3    H222789   1.009   3.608   4.404
 7623TIP3   OH222790   0.632   2.944   4.731
 7623TIP3    H122791   0.600   2.941   4.824
 7623TIP3    H222792   0.592   2.861   4.697
 7624TIP3   OH222793   0.417   3.417   5.781
 7624TIP3    H122794   0.377   3.445   5.865
 7624TIP3    H222795   0.405   3.497   5.725
 7625TIP3   OH222796   0.303   3.300   5.289
 7625TIP3    H122797   0.211   3.270   5.307
 7625TIP3    H222798   0.317   3.258   5.201
 7626TIP3   OH222799   0.794   3.382   5.021
 7626TIP3    H122800   0.744   3.453   4.976
 7626TIP3    H222801   0.850   3.348   4.948
 7627TIP3   OH222802   0.972   3.662   6.109
 7627TIP3    H122803   0.948   3.587   6.168
 7627TIP3    H222804   1.067   3.669   6.127
 7628TIP3   OH222805   0.957   3.412   5.253
 7628TIP3    H122806   0.889   3.435   5.187
 7628TIP3    H222807   0.989   3.329   5.212
 7629TIP3   OH222808   0.243   3.436   6.006
 7629TIP3    H122809   0.296   3.492   6.067
 7629TIP3    H222810   0.241   3.351   6.054
 7630TIP3   OH222811   0.290   2.917   4.695
 7630TIP3    H122812   0.281   2.919   4.793
 7630TIP3    H222813   0.214   2.973   4.669
 7631TIP3   OH222814  -0.152   3.000   5.592
 7631TIP3    H122815  -0.082   3.017   5.659
 7631TIP3    H222816  -0.104   2.945   5.529
 7632TIP3   OH222817  -0.170   2.975   5.097
 7632TIP3    H122818  -0.133   3.005   5.012
 7632TIP3    H222819  -0.258   3.014   5.092
 7633TIP3   OH222820   0.966   3.654   5.677
 7633TIP3    H122821   0.999   3.582   5.617
 7633TIP3    H222822   0.932   3.599   5.751
 7634TIP3   OH222823   0.638   3.120   5.357
 7634TIP3    H122824   0.564   3.117   5.421
 7634TIP3    H222825   0.713   3.097   5.418
 7635TIP3   OH222826   0.065   3.172   5.344
 7635TIP3    H122827  -0.028   3.175   5.311
 7635TIP3    H222828   0.093   3.081   5.323
 7636TIP3   OH222829   0.330   3.169   5.051
 7636TIP3    H122830   0.424   3.186   5.033
 7636TIP3    H222831   0.285   3.193   4.966
 7637TIP3   OH222832   1.128   3.194   5.571
 7637TIP3    H122833   1.085   3.216   5.656
 7637TIP3    H222834   1.061   3.129   5.539
 7638TIP3   OH222835   0.182   3.209   4.823
 7638TIP3    H122836   0.114   3.163   4.772
 7638TIP3    H222837   0.236   3.248   4.751
 7639TIP3   OH222838   1.298   4.886   5.774
 7639TIP3    H122839   1.296   4.907   5.679
 7639TIP3    H222840   1.381   4.930   5.801
 7640TIP3   OH222841   0.238   3.993   6.222
 7640TIP3    H122842   0.322   4.025   6.263
 7640TIP3    H222843   0.204   3.935   6.292
 7641TIP3   OH222844   0.712   3.451   5.454
 7641TIP3    H122845   0.777   3.393   5.412
 7641TIP3    H222846   0.706   3.410   5.544
 7642TIP3   OH222847   0.230   2.935   5.332
 7642TIP3    H122848   0.195   2.858   5.381
 7642TIP3    H222849   0.284   2.893   5.264
 7643TIP3   OH222850   0.686   3.372   5.723
 7643TIP3    H122851   0.596   3.394   5.753
 7643TIP3    H222852   0.744   3.420   5.784
 7644TIP3   OH222853   0.425   3.735   4.830
 7644TIP3    H122854   0.353   3.670   4.819
 7644TIP3    H222855   0.408   3.767   4.922
 7645TIP3   OH222856   1.324   3.973   5.460
 7645TIP3    H122857   1.349   4.023   5.379
 7645TIP3    H222858   1.240   3.929   5.433
 7646TIP3   OH222859   0.885   3.045   4.702
 7646TIP3    H122860   0.788   3.027   4.710
 7646TIP3    H222861   0.893   3.139   4.725
 7647TIP3   OH222862   0.827   4.055   5.830
 7647TIP3    H122863   0.857   4.034   5.919
 7647TIP3    H222864   0.789   4.144   5.839
 7648TIP3   OH222865   0.953   3.297   4.802
 7648TIP3    H122866   1.049   3.303   4.817
 7648TIP3    H222867   0.934   3.377   4.750
 7649TIP3   OH222868   0.110   3.764   5.496
 7649TIP3    H122869   0.154   3.728   5.416
 7649TIP3    H222870   0.140   3.701   5.563
 7650TIP3   OH222871   0.574   3.886   4.657
 7650TIP3    H122872   0.525   3.971   4.660
 7650TIP3    H222873   0.520   3.830   4.717
 7651TIP3   OH222874   0.732   3.796   6.142
 7651TIP3    H122875   0.674   3.743   6.085
 7651TIP3    H222876   0.819   3.759   6.117
 7652TIP3   OH222877   0.986   4.318   5.730
 7652TIP3    H122878   0.890   4.314   5.741
 7652TIP3    H222879   1.011   4.372   5.808
 7653TIP3   OH222880   1.391   3.391   4.635
 7653TIP3    H122881   1.329   3.347   4.572
 7653TIP3    H222882   1.389   3.480   4.594
 7654TIP3   OH222883   1.617   4.248   5.714
 7654TIP3    H122884   1.519   4.240   5.704
 7654TIP3    H222885   1.646   4.219   5.625
 7655TIP3   OH222886   1.098   4.206   4.546
 7655TIP3    H122887   1.071   4.133   4.603
 7655TIP3    H222888   1.113   4.163   4.460
 7656TIP3   OH222889   1.091   3.836   5.375
 7656TIP3    H122890   0.998   3.810   5.389
 7656TIP3    H222891   1.126   3.755   5.332
 7657TIP3   OH222892   0.227   4.058   5.134
 7657TIP3    H122893   0.229   4.134   5.073
 7657TIP3    H222894   0.146   4.076   5.184
 7658TIP3   OH222895  -0.225   3.367   4.833
 7658TIP3    H122896  -0.172   3.447   4.853
 7658TIP3    H222897  -0.308   3.389   4.879
 7659TIP3   OH222898   0.354   3.821   5.075
 7659TIP3    H122899   0.319   3.910   5.094
 7659TIP3    H222900   0.322   3.771   5.152
 7660TIP3   OH222901   0.503   4.407   5.599
 7660TIP3    H122902   0.546   4.480   5.548
 7660TIP3    H222903   0.580   4.369   5.645
 7661TIP3   OH222904   0.134   4.302   4.988
 7661TIP3    H122905   0.058   4.323   5.044
 7661TIP3    H222906   0.190   4.380   5.000
 7662TIP3   OH222907   0.877   4.043   5.562
 7662TIP3    H122908   0.867   4.040   5.660
 7662TIP3    H222909   0.953   3.984   5.549
 7663TIP3   OH222910   0.857   3.938   4.449
 7663TIP3    H122911   0.911   3.912   4.527
 7663TIP3    H222912   0.770   3.907   4.477
 7664TIP3   OH222913   1.127   4.575   5.614
 7664TIP3    H122914   1.047   4.519   5.606
 7664TIP3    H222915   1.113   4.638   5.540
 7665TIP3   OH222916   1.192   4.403   4.265
 7665TIP3    H122917   1.237   4.472   4.214
 7665TIP3    H222918   1.113   4.453   4.296
 7666TIP3   OH222919   0.222   3.185   6.144
 7666TIP3    H122920   0.128   3.176   6.165
 7666TIP3    H222921   0.263   3.122   6.206
 7667TIP3   OH222922   1.018   3.871   4.665
 7667TIP3    H122923   1.007   3.801   4.733
 7667TIP3    H222924   1.114   3.865   4.649
 7668TIP3   OH222925   0.218   3.913   4.443
 7668TIP3    H122926   0.233   3.819   4.419
 7668TIP3    H222927   0.202   3.906   4.539
 7669TIP3   OH222928   0.175   3.920   4.715
 7669TIP3    H122929   0.251   3.892   4.768
 7669TIP3    H222930   0.178   4.018   4.725
 7670TIP3   OH222931  -0.107   3.605   4.903
 7670TIP3    H122932  -0.107   3.660   4.982
 7670TIP3    H222933  -0.104   3.675   4.833
 7671TIP3   OH222934   1.041   3.271   5.831
 7671TIP3    H122935   1.132   3.279   5.862
 7671TIP3    H222936   1.017   3.182   5.866
 7672TIP3   OH222937   0.938   2.993   4.983
 7672TIP3    H122938   0.922   3.017   4.890
 7672TIP3    H222939   0.976   3.076   5.019
 7673TIP3   OH222940   0.431   4.115   4.665
 7673TIP3    H122941   0.345   4.142   4.702
 7673TIP3    H222942   0.451   4.192   4.610
 7674TIP3   OH222943   0.612   3.182   5.090
 7674TIP3    H122944   0.678   3.253   5.072
 7674TIP3    H222945   0.626   3.169   5.187
 7675TIP3   OH222946   0.886   3.495   5.883
 7675TIP3    H122947   0.921   3.533   5.966
 7675TIP3    H222948   0.940   3.413   5.873
 7676TIP3   OH222949   0.761   2.896   5.181
 7676TIP3    H122950   0.766   2.962   5.252
 7676TIP3    H222951   0.823   2.935   5.116
 7677TIP3   OH222952   0.176   4.192   4.736
 7677TIP3    H122953   0.147   4.262   4.673
 7677TIP3    H222954   0.157   4.234   4.822
 7678TIP3   OH222955   0.277   2.906   4.971
 7678TIP3    H122956   0.271   2.995   5.011
 7678TIP3    H222957   0.373   2.891   4.980
 7679TIP3   OH222958   1.532   3.394   5.872
 7679TIP3    H122959   1.434   3.399   5.882
 7679TIP3    H222960   1.538   3.353   5.785
 7680TIP3   OH222961   1.179   3.592   5.257
 7680TIP3    H122962   1.101   3.533   5.268
 7680TIP3    H222963   1.248   3.543   5.306
 7681TIP3   OH222964  -0.089   3.818   4.735
 7681TIP3    H122965  -0.022   3.888   4.737
 7681TIP3    H222966  -0.054   3.763   4.662
 7682TIP3   OH222967  -0.167   3.099   4.851
 7682TIP3    H122968  -0.157   3.196   4.851
 7682TIP3    H222969  -0.261   3.091   4.827
 7683TIP3   OH222970   1.149   4.553   5.206
 7683TIP3    H122971   1.107   4.600   5.131
 7683TIP3    H222972   1.244   4.569   5.185
 7684TIP3   OH222973   0.210   2.813   5.732
 7684TIP3    H122974   0.187   2.778   5.643
 7684TIP3    H222975   0.207   2.732   5.787
 7685TIP3   OH222976   0.409   4.562   6.206
 7685TIP3    H122977   0.495   4.525   6.231
 7685TIP3    H222978   0.383   4.499   6.135
 7686TIP3   OH222979   0.380   4.116   4.353
 7686TIP3    H122980   0.327   4.042   4.391
 7686TIP3    H222981   0.457   4.067   4.319
 7687TIP3   OH222982   1.031   4.454   5.970
 7687TIP3    H122983   1.029   4.380   6.036
 7687TIP3    H222984   1.113   4.501   5.994
 7688TIP3   OH222985   0.815   4.154   4.270
 7688TIP3    H122986   0.858   4.090   4.330
 7688TIP3    H222987   0.872   4.151   4.190
 7689TIP3   OH222988   0.026   3.625   4.578
 7689TIP3    H122989   0.083   3.598   4.653
 7689TIP3    H222990   0.093   3.631   4.507
 7690TIP3   OH222991   0.657   4.071   6.160
 7690TIP3    H122992   0.618   4.092   6.073
 7690TIP3    H222993   0.689   3.979   6.148
 7691TIP3   OH222994   0.542   3.832   4.388
 7691TIP3    H122995   0.546   3.844   4.485
 7691TIP3    H222996   0.544   3.734   4.382
 7692TIP3   OH222997   1.151   4.085   5.770
 7692TIP3    H122998   1.227   4.125   5.724
 7692TIP3    H222999   1.082   4.152   5.750
 7693TIP3   OH223000   0.154   3.739   6.354
 7693TIP3    H123001   0.199   3.655   6.340
 7693TIP3    H223002   0.175   3.757   6.447
 7694TIP3   OH223003   0.230   3.540   4.797
 7694TIP3    H123004   0.210   3.499   4.883
 7694TIP3    H223005   0.270   3.466   4.748
 7695TIP3   OH223006   0.494   3.593   6.026
 7695TIP3    H123007   0.422   3.660   6.029
 7695TIP3    H223008   0.553   3.632   5.957
 7696TIP3   OH223009   0.339   3.337   4.640
 7696TIP3    H123010   0.315   3.344   4.545
 7696TIP3    H223011   0.437   3.339   4.633
 7697TIP3   OH223012   1.026   4.005   6.162
 7697TIP3    H123013   1.097   3.969   6.108
 7697TIP3    H223014   1.017   3.938   6.232
 7698TIP3   OH223015   1.155   3.661   4.311
 7698TIP3    H123016   1.138   3.617   4.225
 7698TIP3    H223017   1.122   3.751   4.289
 7699TIP3   OH223018   0.630   3.391   6.150
 7699TIP3    H123019   0.634   3.313   6.090
 7699TIP3    H223020   0.584   3.457   6.094
 7700TIP3   OH223021   0.640   3.180   5.957
 7700TIP3    H123022   0.670   3.205   5.868
 7700TIP3    H223023   0.545   3.158   5.941
 7701TIP3   OH223024   0.654   3.718   5.851
 7701TIP3    H123025   0.738   3.713   5.803
 7701TIP3    H223026   0.602   3.779   5.795
 7702TIP3   OH223027   1.239   3.681   6.216
 7702TIP3    H123028   1.278   3.592   6.214
 7702TIP3    H223029   1.309   3.734   6.174
 7703TIP3   OH223030   1.278   3.937   5.956
 7703TIP3    H123031   1.222   3.992   5.896
 7703TIP3    H223032   1.366   3.955   5.917
 7704TIP3   OH223033   0.514   3.498   6.388
 7704TIP3    H123034   0.446   3.430   6.405
 7704TIP3    H223035   0.543   3.474   6.298
 7705TIP3   OH223036   0.769   2.937   6.030
 7705TIP3    H123037   0.726   3.021   6.001
 7705TIP3    H223038   0.696   2.873   6.014
 7706TIP3   OH223039   0.886   3.441   6.246
 7706TIP3    H123040   0.866   3.426   6.340
 7706TIP3    H223041   0.799   3.418   6.208
 7707TIP3   OH223042   1.134   3.409   6.110
 7707TIP3    H123043   1.055   3.397   6.166
 7707TIP3    H223044   1.205   3.370   6.163
 7708TIP3   OH223045   1.364   3.338   6.255
 7708TIP3    H123046   1.374   3.242   6.268
 7708TIP3    H223047   1.358   3.373   6.346
 7709TIP3   OH223048   0.363   3.272   6.440
 7709TIP3    H123049   0.366   3.179   6.409
 7709TIP3    H223050   0.396   3.262   6.531
 7710TIP3   OH223051   0.850   2.948   6.293
 7710TIP3    H123052   0.918   2.878   6.284
 7710TIP3    H223053   0.815   2.950   6.202
 7711TIP3   OH223054   0.922   3.163   6.450
 7711TIP3    H123055   0.900   3.093   6.385
 7711TIP3    H223056   0.845   3.223   6.443
 7712TIP3   OH223057   0.148   4.400   4.555
 7712TIP3    H123058   0.243   4.388   4.537
 7712TIP3    H223059   0.122   4.443   4.471
 7713TIP3   OH223060   1.408   4.631   5.169
 7713TIP3    H123061   1.432   4.671   5.254
 7713TIP3    H223062   1.470   4.675   5.108
 7714TIP3   OH223063   1.430   4.660   5.452
 7714TIP3    H123064   1.387   4.572   5.447
 7714TIP3    H223065   1.510   4.636   5.502
 7715TIP3   OH223066   1.478   4.337   6.023
 7715TIP3    H123067   1.407   4.348   6.089
 7715TIP3    H223068   1.522   4.425   6.027
 7716TIP3   OH223069   1.295   3.847   4.640
 7716TIP3    H123070   1.359   3.914   4.607
 7716TIP3    H223071   1.342   3.812   4.718
 7717TIP3   OH223072   1.425   3.717   4.848
 7717TIP3    H123073   1.354   3.674   4.901
 7717TIP3    H223074   1.482   3.756   4.916
 7718TIP3   OH223075   1.478   4.109   5.274
 7718TIP3    H123076   1.532   4.041   5.229
 7718TIP3    H223077   1.475   4.180   5.208
 7719TIP3   OH223078   1.305   4.409   5.468
 7719TIP3    H123079   1.232   4.450   5.519
 7719TIP3    H223080   1.256   4.363   5.396
 7720TIP3   OH223081   1.359   3.624   4.489
 7720TIP3    H123082   1.288   3.625   4.421
 7720TIP3    H223083   1.330   3.701   4.542
 7721TIP3   OH223084   1.226   3.297   4.442
 7721TIP3    H123085   1.195   3.332   4.359
 7721TIP3    H223086   1.204   3.202   4.431
 7722TIP3   OH223087   1.234   3.576   4.988
 7722TIP3    H123088   1.241   3.479   4.979
 7722TIP3    H223089   1.219   3.587   5.084
 7723TIP3   OH223090  -0.126   3.569   5.731
 7723TIP3    H123091  -0.125   3.549   5.634
 7723TIP3    H223092  -0.030   3.593   5.743
 7724TIP3   OH223093   1.525   3.999   5.848
 7724TIP3    H123094   1.595   3.931   5.836
 7724TIP3    H223095   1.550   4.066   5.782
 7725TIP3   OH223096   1.705   3.797   5.856
 7725TIP3    H123097   1.630   3.747   5.895
 7725TIP3    H223098   1.778   3.734   5.874
 7726TIP3   OH223099   1.175   3.029   4.424
 7726TIP3    H123100   1.246   2.998   4.484
 7726TIP3    H223101   1.099   2.972   4.447
 7727TIP3   OH223102   1.233   3.292   4.878
 7727TIP3    H123103   1.274   3.204   4.893
 7727TIP3    H223104   1.290   3.324   4.806
 7728TIP3   OH223105   1.391   3.458   5.379
 7728TIP3    H123106   1.476   3.483   5.337
 7728TIP3    H223107   1.405   3.495   5.468
 7729TIP3   OH223108   1.466   3.607   5.608
 7729TIP3    H123109   1.387   3.640   5.656
 7729TIP3    H223110   1.497   3.688   5.562
 7730TIP3   OH223111   0.098   3.350   6.443
 7730TIP3    H123112   0.190   3.315   6.430
 7730TIP3    H223113   0.042   3.286   6.397
 7731TIP3   OH223114   1.914   3.201   6.165
 7731TIP3    H123115   1.975   3.138   6.121
 7731TIP3    H223116   1.882   3.253   6.088
 7732TIP3   OH223117   1.340   3.041   4.919
 7732TIP3    H123118   1.387   3.026   5.004
 7732TIP3    H223119   1.278   2.966   4.918
 7733TIP3   OH223120   0.053   3.032   5.769
 7733TIP3    H123121   0.109   2.952   5.768
 7733TIP3    H223122   0.119   3.101   5.750
 7734TIP3   OH223123  -0.118   3.305   5.814
 7734TIP3    H123124  -0.063   3.275   5.738
 7734TIP3    H223125  -0.109   3.401   5.802
 7735TIP3   OH223126   1.782   3.333   5.969
 7735TIP3    H123127   1.696   3.378   5.980
 7735TIP3    H223128   1.753   3.260   5.911
 7736TIP3   OH223129   1.418   2.969   4.559
 7736TIP3    H123130   1.457   2.904   4.498
 7736TIP3    H223131   1.481   3.043   4.554
 7737TIP3   OH223132  -0.180   2.785   5.285
 7737TIP3    H123133  -0.247   2.829   5.340
 7737TIP3    H223134  -0.164   2.855   5.218
 7738TIP3   OH223135   0.990   4.502   4.822
 7738TIP3    H123136   1.039   4.492   4.738
 7738TIP3    H223137   1.039   4.574   4.865
 7739TIP3   OH223138   0.062   2.880   6.151
 7739TIP3    H123139   0.026   2.874   6.240
 7739TIP3    H223140  -0.013   2.918   6.102
 7740TIP3   OH223141   0.276   4.355   5.738
 7740TIP3    H123142   0.229   4.431   5.699
 7740TIP3    H223143   0.362   4.364   5.692
 7741TIP3   OH223144   0.706   4.587   5.894
 7741TIP3    H123145   0.750   4.587   5.981
 7741TIP3    H223146   0.771   4.638   5.840
 7742TIP3   OH223147   0.885   4.742   5.753
 7742TIP3    H123148   0.951   4.691   5.705
 7742TIP3    H223149   0.941   4.797   5.811
 7743TIP3   OH223150   1.682   3.099   5.850
 7743TIP3    H123151   1.593   3.094   5.810
 7743TIP3    H223152   1.714   3.007   5.839
 7744TIP3   OH223153   0.181   4.595   5.636
 7744TIP3    H123154   0.110   4.634   5.689
 7744TIP3    H223155   0.156   4.628   5.547
 7745TIP3   OH223156   0.609   4.606   5.440
 7745TIP3    H123157   0.538   4.620   5.373
 7745TIP3    H223158   0.621   4.697   5.472
 7746TIP3   OH223159   0.876   4.544   5.492
 7746TIP3    H123160   0.782   4.560   5.471
 7746TIP3    H223161   0.920   4.612   5.437
 7747TIP3   OH223162   1.079   4.737   5.397
 7747TIP3    H123163   1.062   4.820   5.348
 7747TIP3    H223164   1.105   4.676   5.325
 7748TIP3   OH223165   0.074   4.225   5.348
 7748TIP3    H123166   0.078   4.160   5.422
 7748TIP3    H223167   0.156   4.276   5.365
 7749TIP3   OH223168   0.325   4.354   5.385
 7749TIP3    H123169   0.359   4.263   5.377
 7749TIP3    H223170   0.377   4.383   5.462
 7750TIP3   OH223171   1.422   2.889   5.371
 7750TIP3    H123172   1.452   2.945   5.296
 7750TIP3    H223173   1.324   2.900   5.365
 7751TIP3   OH223174   1.506   2.992   5.133
 7751TIP3    H123175   1.581   2.942   5.095
 7751TIP3    H223176   1.538   3.084   5.120
 7752TIP3   OH223177   0.129   2.720   5.479
 7752TIP3    H123178   0.038   2.683   5.482
 7752TIP3    H223179   0.182   2.638   5.474
 7753TIP3   OH223180  -0.069   2.585   5.136
 7753TIP3    H123181  -0.047   2.641   5.060
 7753TIP3    H223182  -0.102   2.653   5.200
 7754TIP3   OH223183   0.582   2.753   5.374
 7754TIP3    H123184   0.642   2.802   5.316
 7754TIP3    H223185   0.602   2.794   5.460
 7755TIP3   OH223186   1.156   2.896   5.341
 7755TIP3    H123187   1.082   2.910   5.281
 7755TIP3    H223188   1.113   2.838   5.408
 7756TIP3   OH223189   1.157   2.829   4.911
 7756TIP3    H123190   1.074   2.877   4.933
 7756TIP3    H223191   1.141   2.744   4.958
 7757TIP3   OH223192   0.048   2.748   4.898
 7757TIP3    H123193   0.098   2.688   4.839
 7757TIP3    H223194   0.120   2.805   4.934
 7758TIP3   OH223195   0.553   2.932   4.997
 7758TIP3    H123196   0.614   2.888   5.059
 7758TIP3    H223197   0.571   3.025   5.023
 7759TIP3   OH223198   0.411   4.349   4.495
 7759TIP3    H123199   0.499   4.372   4.458
 7759TIP3    H223200   0.389   4.274   4.435
 7760TIP3   OH223201   1.132   4.473   4.589
 7760TIP3    H123202   1.125   4.375   4.577
 7760TIP3    H223203   1.088   4.504   4.506
 7761TIP3   OH223204   0.343   3.003   6.370
 7761TIP3    H123205   0.306   2.932   6.427
 7761TIP3    H223206   0.436   2.999   6.401
 7762TIP3   OH223207   0.594   3.001   6.492
 7762TIP3    H123208   0.678   2.979   6.449
 7762TIP3    H223209   0.585   2.928   6.556
 7763TIP3   OH223210   1.422   3.067   6.282
 7763TIP3    H123211   1.440   3.036   6.373
 7763TIP3    H223212   1.511   3.062   6.241
 7764TIP3   OH223213   1.351   4.615   5.780
 7764TIP3    H123214   1.275   4.586   5.724
 7764TIP3    H223215   1.335   4.711   5.781
 7765TIP3   OH223216   2.638   3.995   4.517
 7765TIP3    H123217   2.591   4.080   4.507
 7765TIP3    H223218   2.584   3.949   4.584
 7766TIP3   OH223219   1.921   3.889   5.288
 7766TIP3    H123220   1.952   3.818   5.349
 7766TIP3    H223221   1.999   3.947   5.286
 7767TIP3   OH223222   1.945   4.262   4.983
 7767TIP3    H123223   1.886   4.233   5.053
 7767TIP3    H223224   2.031   4.258   5.031
 7768TIP3   OH223225   1.596   3.496   4.789
 7768TIP3    H123226   1.545   3.577   4.809
 7768TIP3    H223227   1.527   3.443   4.744
 7769TIP3   OH223228   1.670   3.785   4.973
 7769TIP3    H123229   1.715   3.707   5.012
 7769TIP3    H223230   1.706   3.784   4.884
 7770TIP3   OH223231   2.518   4.758   4.620
 7770TIP3    H123232   2.561   4.683   4.575
 7770TIP3    H223233   2.502   4.724   4.709
 7771TIP3   OH223234   3.454   3.517   4.978
 7771TIP3    H123235   3.470   3.604   5.019
 7771TIP3    H223236   3.463   3.536   4.883
 7772TIP3   OH223237   2.865   3.738   5.007
 7772TIP3    H123238   2.873   3.642   5.004
 7772TIP3    H223239   2.795   3.753   4.941
 7773TIP3   OH223240   2.176   3.375   4.965
 7773TIP3    H123241   2.160   3.453   4.907
 7773TIP3    H223242   2.123   3.307   4.918
 7774TIP3   OH223243   2.876   3.432   4.581
 7774TIP3    H123244   2.940   3.430   4.656
 7774TIP3    H223245   2.909   3.509   4.533
 7775TIP3   OH223246   1.804   3.573   5.076
 7775TIP3    H123247   1.888   3.555   5.122
 7775TIP3    H223248   1.818   3.518   4.995
 7776TIP3   OH223249   3.492   3.742   5.137
 7776TIP3    H123250   3.414   3.800   5.120
 7776TIP3    H223251   3.538   3.791   5.208
 7777TIP3   OH223252   2.169   3.360   5.402
 7777TIP3    H123253   2.112   3.396   5.331
 7777TIP3    H223254   2.114   3.381   5.480
 7778TIP3   OH223255   2.512   4.222   4.401
 7778TIP3    H123256   2.473   4.204   4.315
 7778TIP3    H223257   2.463   4.303   4.428
 7779TIP3   OH223258   3.067   3.453   4.776
 7779TIP3    H123259   3.023   3.430   4.859
 7779TIP3    H223260   3.118   3.532   4.804
 7780TIP3   OH223261   2.034   3.464   5.183
 7780TIP3    H123262   2.089   3.543   5.207
 7780TIP3    H223263   2.088   3.429   5.108
 7781TIP3   OH223264   1.491   4.020   4.531
 7781TIP3    H123265   1.453   4.043   4.443
 7781TIP3    H223266   1.522   4.108   4.562
 7782TIP3   OH223267   3.226   3.427   5.132
 7782TIP3    H123268   3.138   3.453   5.098
 7782TIP3    H223269   3.285   3.463   5.063
 7783TIP3   OH223270   2.522   3.072   5.120
 7783TIP3    H123271   2.502   2.978   5.137
 7783TIP3    H223272   2.446   3.115   5.165
 7784TIP3   OH223273   2.636   4.579   4.441
 7784TIP3    H123274   2.686   4.497   4.419
 7784TIP3    H223275   2.698   4.646   4.403
 7785TIP3   OH223276   2.779   4.357   4.356
 7785TIP3    H123277   2.739   4.297   4.291
 7785TIP3    H223278   2.784   4.298   4.432
 7786TIP3   OH223279   2.438   3.821   4.354
 7786TIP3    H123280   2.373   3.889   4.330
 7786TIP3    H223281   2.507   3.834   4.287
 7787TIP3   OH223282   2.409   3.630   4.079
 7787TIP3    H123283   2.469   3.677   4.139
 7787TIP3    H223284   2.470   3.567   4.036
 7788TIP3   OH223285   2.815   3.922   4.330
 7788TIP3    H123286   2.754   3.945   4.404
 7788TIP3    H223287   2.893   3.892   4.381
 7789TIP3   OH223288   3.040   3.953   5.265
 7789TIP3    H123289   3.030   4.037   5.311
 7789TIP3    H223290   2.952   3.947   5.221
 7790TIP3   OH223291   2.306   4.435   5.450
 7790TIP3    H123292   2.235   4.495   5.481
 7790TIP3    H223293   2.266   4.393   5.373
 7791TIP3   OH223294   2.644   3.782   4.169
 7791TIP3    H123295   2.706   3.841   4.217
 7791TIP3    H223296   2.667   3.802   4.076
 7792TIP3   OH223297   2.064   4.001   5.551
 7792TIP3    H123298   2.067   4.093   5.584
 7792TIP3    H223299   1.969   3.982   5.560
 7793TIP3   OH223300   2.382   4.461   4.444
 7793TIP3    H123301   2.462   4.517   4.455
 7793TIP3    H223302   2.322   4.519   4.396
 7794TIP3   OH223303   2.102   4.613   5.527
 7794TIP3    H123304   2.071   4.619   5.434
 7794TIP3    H223305   2.018   4.594   5.575
 7795TIP3   OH223306   3.156   3.019   4.219
 7795TIP3    H123307   3.076   3.042   4.270
 7795TIP3    H223308   3.172   3.103   4.171
 7796TIP3   OH223309   1.901   3.771   4.544
 7796TIP3    H123310   1.822   3.804   4.498
 7796TIP3    H223311   1.872   3.685   4.576
 7797TIP3   OH223312   2.958   4.388   3.765
 7797TIP3    H123313   2.966   4.485   3.752
 7797TIP3    H223314   3.051   4.359   3.753
 7798TIP3   OH223315   1.682   4.147   5.472
 7798TIP3    H123316   1.613   4.124   5.406
 7798TIP3    H223317   1.719   4.060   5.497
 7799TIP3   OH223318   1.534   4.347   5.109
 7799TIP3    H123319   1.629   4.365   5.122
 7799TIP3    H223320   1.495   4.419   5.161
 7800TIP3   OH223321   3.397   4.798   5.163
 7800TIP3    H123322   3.395   4.702   5.178
 7800TIP3    H223323   3.312   4.823   5.205
 7801TIP3   OH223324   2.430   4.620   5.281
 7801TIP3    H123325   2.460   4.700   5.329
 7801TIP3    H223326   2.412   4.558   5.353
 7802TIP3   OH223327   2.273   4.705   4.245
 7802TIP3    H123328   2.220   4.688   4.165
 7802TIP3    H223329   2.236   4.790   4.277
 7803TIP3   OH223330   1.706   4.556   4.638
 7803TIP3    H123331   1.754   4.542   4.722
 7803TIP3    H223332   1.656   4.473   4.631
 7804TIP3   OH223333   2.474   4.610   3.882
 7804TIP3    H123334   2.532   4.539   3.849
 7804TIP3    H223335   2.505   4.620   3.974
 7805TIP3   OH223336   2.522   4.656   4.152
 7805TIP3    H123337   2.431   4.668   4.188
 7805TIP3    H223338   2.568   4.620   4.228
 7806TIP3   OH223339   3.282   3.914   5.427
 7806TIP3    H123340   3.199   3.921   5.376
 7806TIP3    H223341   3.300   3.818   5.423
 7807TIP3   OH223342   1.868   4.350   5.451
 7807TIP3    H123343   1.938   4.327   5.514
 7807TIP3    H223344   1.808   4.274   5.459
 7808TIP3   OH223345   2.285   3.151   5.249
 7808TIP3    H123346   2.196   3.123   5.219
 7808TIP3    H223347   2.261   3.235   5.293
 7809TIP3   OH223348   2.822   3.265   5.442
 7809TIP3    H123349   2.889   3.238   5.507
 7809TIP3    H223350   2.738   3.249   5.489
 7810TIP3   OH223351   3.057   3.690   5.360
 7810TIP3    H123352   3.005   3.691   5.443
 7810TIP3    H223353   3.029   3.773   5.317
 7811TIP3   OH223354   2.719   3.820   3.912
 7811TIP3    H123355   2.683   3.799   3.824
 7811TIP3    H223356   2.802   3.865   3.889
 7812TIP3   OH223357   2.432   3.199   4.219
 7812TIP3    H123358   2.398   3.197   4.311
 7812TIP3    H223359   2.389   3.118   4.185
 7813TIP3   OH223360   2.195   3.665   5.256
 7813TIP3    H123361   2.171   3.711   5.339
 7813TIP3    H223362   2.263   3.722   5.217
 7814TIP3   OH223363   2.090   3.547   4.777
 7814TIP3    H123364   1.999   3.518   4.796
 7814TIP3    H223365   2.105   3.509   4.688
 7815TIP3   OH223366   2.576   3.621   4.490
 7815TIP3    H123367   2.529   3.700   4.456
 7815TIP3    H223368   2.643   3.604   4.422
 7816TIP3   OH223369   2.775   3.921   5.603
 7816TIP3    H123370   2.749   3.845   5.660
 7816TIP3    H223371   2.870   3.927   5.622
 7817TIP3   OH223372   2.785   3.701   4.714
 7817TIP3    H123373   2.707   3.748   4.750
 7817TIP3    H223374   2.747   3.616   4.690
 7818TIP3   OH223375   2.019   3.705   5.481
 7818TIP3    H123376   2.074   3.762   5.538
 7818TIP3    H223377   2.021   3.620   5.528
 7819TIP3   OH223378   2.089   3.175   4.182
 7819TIP3    H123379   2.078   3.177   4.279
 7819TIP3    H223380   2.011   3.229   4.155
 7820TIP3   OH223381   1.631   3.216   5.053
 7820TIP3    H123382   1.702   3.251   5.111
 7820TIP3    H223383   1.678   3.193   4.972
 7821TIP3   OH223384   1.591   3.199   4.572
 7821TIP3    H123385   1.635   3.236   4.492
 7821TIP3    H223386   1.529   3.273   4.591
 7822TIP3   OH223387   2.777   3.925   5.188
 7822TIP3    H123388   2.790   3.873   5.106
 7822TIP3    H223389   2.726   3.860   5.241
 7823TIP3   OH223390   2.436   3.367   4.840
 7823TIP3    H123391   2.352   3.372   4.891
 7823TIP3    H223392   2.494   3.420   4.896
 7824TIP3   OH223393   1.854   3.428   4.849
 7824TIP3    H123394   1.761   3.436   4.817
 7824TIP3    H223395   1.881   3.339   4.822
 7825TIP3   OH223396   2.124   3.420   4.536
 7825TIP3    H123397   2.219   3.442   4.523
 7825TIP3    H223398   2.082   3.450   4.453
 7826TIP3   OH223399   2.921   3.446   5.039
 7826TIP3    H123400   2.890   3.470   5.129
 7826TIP3    H223401   2.844   3.392   5.010
 7827TIP3   OH223402   1.978   3.466   4.311
 7827TIP3    H123403   1.907   3.421   4.262
 7827TIP3    H223404   2.030   3.503   4.236
 7828TIP3   OH223405   3.095   5.141   5.262
 7828TIP3    H123406   3.092   5.165   5.167
 7828TIP3    H223407   3.175   5.189   5.291
 7829TIP3   OH223408   2.047   4.252   5.674
 7829TIP3    H123409   2.126   4.283   5.721
 7829TIP3    H223410   1.981   4.255   5.745
 7830TIP3   OH223411   2.023   3.195   4.818
 7830TIP3    H123412   1.991   3.117   4.867
 7830TIP3    H223413   2.073   3.155   4.746
 7831TIP3   OH223414   2.214   3.999   4.315
 7831TIP3    H123415   2.149   3.928   4.292
 7831TIP3    H223416   2.209   3.996   4.411
 7832TIP3   OH223417   2.677   3.309   4.170
 7832TIP3    H123418   2.583   3.287   4.192
 7832TIP3    H223419   2.689   3.398   4.209
 7833TIP3   OH223420   2.756   3.550   4.281
 7833TIP3    H123421   2.851   3.559   4.304
 7833TIP3    H223422   2.736   3.635   4.237
 7834TIP3   OH223423   2.371   4.147   4.145
 7834TIP3    H123424   2.323   4.233   4.145
 7834TIP3    H223425   2.313   4.093   4.201
 7835TIP3   OH223426   1.797   3.938   5.613
 7835TIP3    H123427   1.816   3.921   5.708
 7835TIP3    H223428   1.732   3.868   5.594
 7836TIP3   OH223429   2.532   4.051   5.631
 7836TIP3    H123430   2.483   4.027   5.550
 7836TIP3    H223431   2.620   4.014   5.609
 7837TIP3   OH223432   3.187   3.647   4.121
 7837TIP3    H123433   3.127   3.602   4.057
 7837TIP3    H223434   3.183   3.737   4.083
 7838TIP3   OH223435   3.398   4.515   5.198
 7838TIP3    H123436   3.301   4.507   5.193
 7838TIP3    H223437   3.427   4.466   5.120
 7839TIP3   OH223438   2.899   4.462   4.033
 7839TIP3    H123439   2.868   4.393   4.093
 7839TIP3    H223440   2.908   4.415   3.948
 7840TIP3   OH223441   1.585   3.620   4.330
 7840TIP3    H123442   1.626   3.707   4.348
 7840TIP3    H223443   1.506   3.624   4.389
 7841TIP3   OH223444   2.273   4.668   5.070
 7841TIP3    H123445   2.331   4.736   5.031
 7841TIP3    H223446   2.333   4.635   5.141
 7842TIP3   OH223447   1.927   4.571   4.459
 7842TIP3    H123448   1.848   4.570   4.516
 7842TIP3    H223449   1.959   4.662   4.470
 7843TIP3   OH223450   2.654   4.195   3.931
 7843TIP3    H123451   2.704   4.168   4.012
 7843TIP3    H223452   2.565   4.162   3.954
 7844TIP3   OH223453   2.918   4.828   5.096
 7844TIP3    H123454   2.831   4.789   5.077
 7844TIP3    H223455   2.916   4.901   5.030
 7845TIP3   OH223456   2.989   4.664   3.750
 7845TIP3    H123457   3.025   4.742   3.704
 7845TIP3    H223458   2.908   4.706   3.787
 7846TIP3   OH223459   2.006   3.441   5.615
 7846TIP3    H123460   1.909   3.446   5.624
 7846TIP3    H223461   2.031   3.384   5.689
 7847TIP3   OH223462   2.814   4.130   4.148
 7847TIP3    H123463   2.804   4.059   4.214
 7847TIP3    H223464   2.911   4.124   4.133
 7848TIP3   OH223465   1.739   4.516   5.252
 7848TIP3    H123466   1.791   4.457   5.312
 7848TIP3    H223467   1.764   4.602   5.288
 7849TIP3   OH223468   2.027   4.165   3.929
 7849TIP3    H123469   2.030   4.070   3.906
 7849TIP3    H223470   1.996   4.161   4.022
 7850TIP3   OH223471   1.965   4.172   4.196
 7850TIP3    H123472   2.041   4.149   4.250
 7850TIP3    H223473   1.960   4.270   4.208
 7851TIP3   OH223474   1.685   3.869   4.405
 7851TIP3    H123475   1.618   3.914   4.461
 7851TIP3    H223476   1.697   3.937   4.336
 7852TIP3   OH223477   2.848   3.504   5.301
 7852TIP3    H123478   2.929   3.545   5.336
 7852TIP3    H223479   2.839   3.423   5.356
 7853TIP3   OH223480   2.730   3.238   4.465
 7853TIP3    H123481   2.713   3.275   4.377
 7853TIP3    H223482   2.778   3.313   4.508
 7854TIP3   OH223483   2.231   4.377   4.152
 7854TIP3    H123484   2.142   4.394   4.190
 7854TIP3    H223485   2.239   4.454   4.093
 7855TIP3   OH223486   2.402   3.431   4.571
 7855TIP3    H123487   2.465   3.503   4.547
 7855TIP3    H223488   2.414   3.428   4.668
 7856TIP3   OH223489   2.670   3.771   5.387
 7856TIP3    H123490   2.720   3.811   5.460
 7856TIP3    H223491   2.713   3.685   5.375
 7857TIP3   OH223492   2.553   3.156   4.672
 7857TIP3    H123493   2.537   3.234   4.728
 7857TIP3    H223494   2.617   3.193   4.606
 7858TIP3   OH223495   1.978   4.441   4.226
 7858TIP3    H123496   1.944   4.510   4.163
 7858TIP3    H223497   1.957   4.485   4.312
 7859TIP3   OH223498   2.072   3.161   4.458
 7859TIP3    H123499   2.068   3.251   4.495
 7859TIP3    H223500   2.168   3.145   4.466
 7860TIP3   OH223501   3.323   3.647   5.367
 7860TIP3    H123502   3.225   3.642   5.366
 7860TIP3    H223503   3.344   3.625   5.275
 7861TIP3   OH223504   1.684   4.072   4.211
 7861TIP3    H123505   1.735   4.155   4.208
 7861TIP3    H223506   1.734   4.019   4.146
 7862TIP3   OH223507   1.627   3.348   4.345
 7862TIP3    H123508   1.628   3.445   4.344
 7862TIP3    H223509   1.549   3.329   4.290
 7863TIP3   OH223510   2.944   4.823   4.700
 7863TIP3    H123511   2.898   4.860   4.621
 7863TIP3    H223512   3.037   4.840   4.674
 7864TIP3   OH223513   2.020   3.073   5.217
 7864TIP3    H123514   1.990   3.040   5.129
 7864TIP3    H223515   2.008   2.993   5.273
 7865TIP3   OH223516   1.556   4.286   4.599
 7865TIP3    H123517   1.490   4.319   4.662
 7865TIP3    H223518   1.526   4.331   4.516
 7866TIP3   OH223519   1.717   4.836   5.684
 7866TIP3    H123520   1.805   4.839   5.727
 7866TIP3    H223521   1.706   4.740   5.674
 7867TIP3   OH223522   2.194   4.789   5.720
 7867TIP3    H123523   2.289   4.774   5.718
 7867TIP3    H223524   2.165   4.731   5.647
 7868TIP3   OH223525   2.180   4.373   3.844
 7868TIP3    H123526   2.123   4.303   3.882
 7868TIP3    H223527   2.254   4.319   3.812
 7869TIP3   OH223528   2.816   4.736   5.466
 7869TIP3    H123529   2.814   4.645   5.503
 7869TIP3    H223530   2.908   4.764   5.483
 7870TIP3   OH223531   2.617   4.409   3.759
 7870TIP3    H123532   2.649   4.340   3.821
 7870TIP3    H223533   2.678   4.402   3.684
 7871TIP3   OH223534   1.846   4.243   5.872
 7871TIP3    H123535   1.864   4.147   5.875
 7871TIP3    H223536   1.760   4.245   5.824
 7872TIP3   OH223537   1.825   3.888   4.066
 7872TIP3    H123538   1.880   3.859   4.141
 7872TIP3    H223539   1.892   3.893   3.995
 7873TIP3   OH223540   2.454   4.330   5.653
 7873TIP3    H123541   2.410   4.354   5.568
 7873TIP3    H223542   2.486   4.240   5.634
 7874TIP3   OH223543   2.353   4.092   3.874
 7874TIP3    H123544   2.344   4.104   3.970
 7874TIP3    H223545   2.345   3.994   3.867
 7875TIP3   OH223546   1.964   3.979   5.858
 7875TIP3    H123547   2.044   3.940   5.820
 7875TIP3    H223548   1.996   4.010   5.945
 7876TIP3   OH223549   2.035   3.796   4.288
 7876TIP3    H123550   2.000   3.761   4.372
 7876TIP3    H223551   2.068   3.715   4.243
 7877TIP3   OH223552   2.281   3.844   5.504
 7877TIP3    H123553   2.211   3.911   5.521
 7877TIP3    H223554   2.344   3.898   5.453
 7878TIP3   OH223555   2.134   3.591   4.125
 7878TIP3    H123556   2.109   3.602   4.031
 7878TIP3    H223557   2.232   3.595   4.118
 7879TIP3   OH223558   2.827   4.258   5.647
 7879TIP3    H123559   2.918   4.233   5.626
 7879TIP3    H223560   2.805   4.192   5.716
 7880TIP3   OH223561   2.952   3.918   3.795
 7880TIP3    H123562   2.931   3.874   3.710
 7880TIP3    H223563   2.918   4.009   3.774
 7881TIP3   OH223564   2.426   3.652   5.639
 7881TIP3    H123565   2.429   3.574   5.580
 7881TIP3    H223566   2.380   3.717   5.581
 7882TIP3   OH223567   2.426   3.443   5.446
 7882TIP3    H123568   2.449   3.490   5.365
 7882TIP3    H223569   2.333   3.418   5.428
 7883TIP3   OH223570   2.449   4.003   5.365
 7883TIP3    H123571   2.514   3.943   5.324
 7883TIP3    H223572   2.421   4.059   5.289
 7884TIP3   OH223573   3.039   3.935   5.704
 7884TIP3    H123574   3.081   3.847   5.704
 7884TIP3    H223575   3.110   3.990   5.666
 7885TIP3   OH223576   3.081   4.207   5.424
 7885TIP3    H123577   3.038   4.276   5.370
 7885TIP3    H223578   3.172   4.211   5.388
 7886TIP3   OH223579   2.306   3.753   5.877
 7886TIP3    H123580   2.237   3.684   5.890
 7886TIP3    H223581   2.337   3.732   5.787
 7887TIP3   OH223582   2.557   3.202   5.521
 7887TIP3    H123583   2.508   3.282   5.493
 7887TIP3    H223584   2.489   3.133   5.508
 7888TIP3   OH223585   2.685   3.698   5.734
 7888TIP3    H123586   2.662   3.682   5.828
 7888TIP3    H223587   2.598   3.680   5.693
 7889TIP3   OH223588   2.926   3.658   5.594
 7889TIP3    H123589   2.849   3.654   5.653
 7889TIP3    H223590   2.998   3.623   5.650
 7890TIP3   OH223591   3.158   3.595   5.742
 7890TIP3    H123592   3.169   3.499   5.755
 7890TIP3    H223593   3.153   3.629   5.833
 7891TIP3   OH223594   2.141   3.534   5.931
 7891TIP3    H123595   2.145   3.443   5.895
 7891TIP3    H223596   2.179   3.521   6.020
 7892TIP3   OH223597   2.648   3.206   5.780
 7892TIP3    H123598   2.714   3.135   5.771
 7892TIP3    H223599   2.610   3.205   5.690
 7893TIP3   OH223600   2.719   3.421   5.937
 7893TIP3    H123601   2.697   3.350   5.872
 7893TIP3    H223602   2.641   3.480   5.929
 7894TIP3   OH223603   1.912   4.636   4.043
 7894TIP3    H123604   1.981   4.666   3.983
 7894TIP3    H223605   1.831   4.672   4.003
 7895TIP3   OH223606   1.419   4.028   4.256
 7895TIP3    H123607   1.511   4.052   4.235
 7895TIP3    H223608   1.411   3.943   4.208
 7896TIP3   OH223609   1.335   4.646   4.669
 7896TIP3    H123610   1.273   4.584   4.625
 7896TIP3    H223611   1.381   4.585   4.730
 7897TIP3   OH223612   1.470   4.490   4.852
 7897TIP3    H123613   1.457   4.421   4.919
 7897TIP3    H223614   1.525   4.553   4.903
 7898TIP3   OH223615   3.197   4.909   4.649
 7898TIP3    H123616   3.228   4.928   4.739
 7898TIP3    H223617   3.274   4.932   4.595
 7899TIP3   OH223618   3.240   4.928   4.931
 7899TIP3    H123619   3.189   4.844   4.931
 7899TIP3    H223620   3.312   4.901   4.990
 7900TIP3   OH223621   3.272   4.592   5.503
 7900TIP3    H123622   3.203   4.602   5.571
 7900TIP3    H223623   3.317   4.678   5.509
 7901TIP3   OH223624   3.090   4.107   4.121
 7901TIP3    H123625   3.159   4.170   4.095
 7901TIP3    H223626   3.130   4.066   4.201
 7902TIP3   OH223627   3.206   3.972   4.326
 7902TIP3    H123628   3.156   3.926   4.396
 7902TIP3    H223629   3.288   4.001   4.371
 7903TIP3   OH223630   3.120   4.690   4.964
 7903TIP3    H123631   3.040   4.716   5.013
 7903TIP3    H223632   3.087   4.633   4.894
 7904TIP3   OH223633   3.155   3.881   3.974
 7904TIP3    H123634   3.082   3.884   3.908
 7904TIP3    H223635   3.127   3.956   4.031
 7905TIP3   OH223636   3.030   3.550   3.921
 7905TIP3    H123637   2.974   3.586   3.851
 7905TIP3    H223638   3.008   3.455   3.914
 7906TIP3   OH223639   3.024   3.814   4.486
 7906TIP3    H123640   3.030   3.721   4.457
 7906TIP3    H223641   2.986   3.805   4.575
 7907TIP3   OH223642   1.659   3.906   5.222
 7907TIP3    H123643   1.659   3.868   5.132
 7907TIP3    H223644   1.755   3.904   5.242
 7908TIP3   OH223645   3.333   4.256   5.325
 7908TIP3    H123646   3.403   4.188   5.340
 7908TIP3    H223647   3.381   4.320   5.272
 7909TIP3   OH223648   3.505   4.067   5.419
 7909TIP3    H123649   3.431   4.002   5.416
 7909TIP3    H223650   3.575   4.020   5.371
 7910TIP3   OH223651   2.972   3.282   3.903
 7910TIP3    H123652   3.042   3.255   3.966
 7910TIP3    H223653   2.895   3.231   3.931
 7911TIP3   OH223654   3.031   3.555   4.362
 7911TIP3    H123655   3.065   3.465   4.384
 7911TIP3    H223656   3.092   3.579   4.290
 7912TIP3   OH223657   3.200   3.662   4.893
 7912TIP3    H123658   3.256   3.720   4.841
 7912TIP3    H223659   3.171   3.721   4.964
 7913TIP3   OH223660   3.252   3.886   5.087
 7913TIP3    H123661   3.173   3.891   5.144
 7913TIP3    H223662   3.254   3.976   5.053
 7914TIP3   OH223663   1.873   3.587   5.899
 7914TIP3    H123664   1.971   3.582   5.901
 7914TIP3    H223665   1.851   3.500   5.937
 7915TIP3   OH223666   3.716   3.460   5.654
 7915TIP3    H123667   3.774   3.395   5.607
 7915TIP3    H223668   3.679   3.510   5.578
 7916TIP3   OH223669   3.140   3.299   4.402
 7916TIP3    H123670   3.183   3.286   4.489
 7916TIP3    H223671   3.074   3.227   4.404
 7917TIP3   OH223672   1.832   3.279   5.232
 7917TIP3    H123673   1.895   3.204   5.238
 7917TIP3    H223674   1.894   3.353   5.218
 7918TIP3   OH223675   1.636   3.553   5.300
 7918TIP3    H123676   1.686   3.549   5.216
 7918TIP3    H223677   1.673   3.632   5.341
 7919TIP3   OH223678   3.575   3.587   5.461
 7919TIP3    H123679   3.490   3.634   5.472
 7919TIP3    H223680   3.545   3.516   5.401
 7920TIP3   OH223681   3.212   3.228   4.042
 7920TIP3    H123682   3.255   3.160   3.987
 7920TIP3    H223683   3.278   3.300   4.042
 7921TIP3   OH223684   1.623   3.050   4.796
 7921TIP3    H123685   1.532   3.050   4.830
 7921TIP3    H223686   1.616   3.113   4.721
 7922TIP3   OH223687   2.785   4.760   4.308
 7922TIP3    H123688   2.838   4.756   4.226
 7922TIP3    H223689   2.830   4.829   4.359
 7923TIP3   OH223690   1.842   3.132   5.613
 7923TIP3    H123691   1.791   3.135   5.696
 7923TIP3    H223692   1.779   3.175   5.552
 7924TIP3   OH223693   1.881   4.573   5.691
 7924TIP3    H123694   1.792   4.540   5.669
 7924TIP3    H223695   1.889   4.552   5.784
 7925TIP3   OH223696   2.059   4.615   5.255
 7925TIP3    H123697   2.026   4.694   5.207
 7925TIP3    H223698   2.139   4.598   5.203
 7926TIP3   OH223699   2.507   4.864   5.394
 7926TIP3    H123700   2.556   4.855   5.478
 7926TIP3    H223701   2.574   4.905   5.336
 7927TIP3   OH223702   2.683   5.004   5.236
 7927TIP3    H123703   2.749   4.942   5.200
 7927TIP3    H223704   2.738   5.058   5.296
 7928TIP3   OH223705   3.478   3.356   5.337
 7928TIP3    H123706   3.390   3.355   5.295
 7928TIP3    H223707   3.507   3.262   5.325
 7929TIP3   OH223708   1.735   4.857   5.268
 7929TIP3    H123709   1.643   4.886   5.249
 7929TIP3    H223710   1.757   4.917   5.341
 7930TIP3   OH223711   1.972   4.838   5.123
 7930TIP3    H123712   1.884   4.847   5.166
 7930TIP3    H223713   1.954   4.871   5.033
 7931TIP3   OH223714   2.407   4.865   4.911
 7931TIP3    H123715   2.330   4.885   4.855
 7931TIP3    H223716   2.417   4.949   4.960
 7932TIP3   OH223717   2.677   4.809   4.973
 7932TIP3    H123718   2.581   4.808   4.958
 7932TIP3    H223719   2.705   4.887   4.922
 7933TIP3   OH223720   2.892   5.008   4.891
 7933TIP3    H123721   2.868   5.086   4.837
 7933TIP3    H223722   2.908   4.940   4.821
 7934TIP3   OH223723   1.649   4.648   5.008
 7934TIP3    H123724   1.678   4.623   5.098
 7934TIP3    H223725   1.722   4.605   4.957
 7935TIP3   OH223726   1.850   4.516   4.874
 7935TIP3    H123727   1.879   4.431   4.911
 7935TIP3    H223728   1.935   4.564   4.867
 7936TIP3   OH223729   2.107   4.620   4.866
 7936TIP3    H123730   2.172   4.556   4.834
 7936TIP3    H223731   2.149   4.642   4.952
 7937TIP3   OH223732   2.706   3.272   4.972
 7937TIP3    H123733   2.645   3.204   5.006
 7937TIP3    H223734   2.771   3.220   4.921
 7938TIP3   OH223735   3.205   3.145   4.855
 7938TIP3    H123736   3.240   3.203   4.784
 7938TIP3    H223737   3.111   3.173   4.857
 7939TIP3   OH223738   3.303   3.248   4.620
 7939TIP3    H123739   3.378   3.199   4.582
 7939TIP3    H223740   3.334   3.340   4.609
 7940TIP3   OH223741   1.933   2.979   4.969
 7940TIP3    H123742   1.840   2.947   4.973
 7940TIP3    H223743   1.981   2.894   4.964
 7941TIP3   OH223744   1.726   2.851   4.621
 7941TIP3    H123745   1.752   2.909   4.547
 7941TIP3    H223746   1.694   2.916   4.687
 7942TIP3   OH223747   2.381   3.009   4.854
 7942TIP3    H123748   2.433   3.060   4.789
 7942TIP3    H223749   2.400   3.056   4.936
 7943TIP3   OH223750   2.925   3.157   4.835
 7943TIP3    H123751   2.915   3.125   4.745
 7943TIP3    H223752   2.909   3.075   4.888
 7944TIP3   OH223753   2.953   3.086   4.398
 7944TIP3    H123754   2.870   3.133   4.417
 7944TIP3    H223755   2.937   3.000   4.443
 7945TIP3   OH223756   1.431   4.427   4.409
 7945TIP3    H123757   1.350   4.390   4.371
 7945TIP3    H223758   1.428   4.516   4.368
 7946TIP3   OH223759   1.841   3.005   4.386
 7946TIP3    H123760   1.890   2.946   4.325
 7946TIP3    H223761   1.912   3.062   4.420
 7947TIP3   OH223762   2.349   3.182   4.481
 7947TIP3    H123763   2.412   3.141   4.544
 7947TIP3    H223764   2.362   3.276   4.507
 7948TIP3   OH223765   2.213   4.612   3.977
 7948TIP3    H123766   2.302   4.628   3.939
 7948TIP3    H223767   2.184   4.537   3.921
 7949TIP3   OH223768   2.932   4.730   4.075
 7949TIP3    H123769   2.923   4.633   4.065
 7949TIP3    H223770   2.882   4.761   3.996
 7950TIP3   OH223771   2.139   3.257   5.862
 7950TIP3    H123772   2.104   3.187   5.919
 7950TIP3    H223773   2.233   3.258   5.890
 7951TIP3   OH223774   2.390   3.258   5.981
 7951TIP3    H123775   2.475   3.236   5.939
 7951TIP3    H223776   2.380   3.185   6.046
 7952TIP3   OH223777   1.499   4.415   4.050
 7952TIP3    H123778   1.521   4.503   4.083
 7952TIP3    H223779   1.587   4.387   4.015
 7953TIP3   OH223780   3.218   3.323   5.768
 7953TIP3    H123781   3.236   3.293   5.860
 7953TIP3    H223782   3.307   3.317   5.728
 7954TIP3   OH223783   3.148   4.871   5.260
 7954TIP3    H123784   3.069   4.839   5.212
 7954TIP3    H223785   3.127   4.966   5.268
 7955TIP3   OH223786   4.418   4.244   4.022
 7955TIP3    H123787   4.387   4.335   4.006
 7955TIP3    H223788   4.344   4.193   3.984
 7956TIP3   OH223789   3.398   3.740   4.274
 7956TIP3    H123790   3.370   3.830   4.298
 7956TIP3    H223791   3.317   3.704   4.235
 7957TIP3   OH223792   3.463   4.026   4.406
 7957TIP3    H123793   3.505   3.966   4.471
 7957TIP3    H223794   3.531   4.095   4.400
 7958TIP3   OH223795   4.307   5.008   4.104
 7958TIP3    H123796   4.349   4.935   4.056
 7958TIP3    H223797   4.330   4.988   4.196
 7959TIP3   OH223798   5.237   3.788   4.459
 7959TIP3    H123799   5.264   3.873   4.498
 7959TIP3    H223800   5.249   3.806   4.364
 7960TIP3   OH223801   4.635   3.975   4.486
 7960TIP3    H123802   4.674   3.889   4.506
 7960TIP3    H223803   4.596   3.957   4.398
 7961TIP3   OH223804   3.975   3.632   4.450
 7961TIP3    H123805   3.955   3.709   4.391
 7961TIP3    H223806   3.920   3.563   4.407
 7962TIP3   OH223807   4.667   3.722   4.073
 7962TIP3    H123808   4.737   3.709   4.141
 7962TIP3    H223809   4.720   3.762   4.002
 7963TIP3   OH223810   3.600   3.848   4.558
 7963TIP3    H123811   3.673   3.823   4.618
 7963TIP3    H223812   3.618   3.787   4.484
 7964TIP3   OH223813   5.309   4.005   4.620
 7964TIP3    H123814   5.222   4.047   4.605
 7964TIP3    H223815   5.324   4.031   4.713
 7965TIP3   OH223816   3.970   3.613   4.885
 7965TIP3    H123817   3.908   3.652   4.821
 7965TIP3    H223818   3.918   3.624   4.969
 7966TIP3   OH223819   4.294   4.459   3.896
 7966TIP3    H123820   4.267   4.462   3.803
 7966TIP3    H223821   4.258   4.544   3.928
 7967TIP3   OH223822   4.869   3.726   4.257
 7967TIP3    H123823   4.837   3.694   4.343
 7967TIP3    H223824   4.916   3.808   4.283
 7968TIP3   OH223825   3.837   3.730   4.672
 7968TIP3    H123826   3.894   3.807   4.693
 7968TIP3    H223827   3.886   3.693   4.595
 7969TIP3   OH223828   3.289   4.281   4.016
 7969TIP3    H123829   3.247   4.311   3.933
 7969TIP3    H223830   3.323   4.365   4.053
 7970TIP3   OH223831   5.026   3.689   4.621
 7970TIP3    H123832   4.938   3.714   4.588
 7970TIP3    H223833   5.085   3.721   4.550
 7971TIP3   OH223834   4.320   3.331   4.609
 7971TIP3    H123835   4.299   3.237   4.622
 7971TIP3    H223836   4.243   3.374   4.653
 7972TIP3   OH223837   4.427   4.835   3.916
 7972TIP3    H123838   4.466   4.754   3.877
 7972TIP3    H223839   4.492   4.902   3.886
 7973TIP3   OH223840   4.540   4.615   3.792
 7973TIP3    H123841   4.521   4.534   3.741
 7973TIP3    H223842   4.586   4.578   3.868
 7974TIP3   OH223843   4.249   4.098   3.857
 7974TIP3    H123844   4.171   4.149   3.829
 7974TIP3    H223845   4.301   4.093   3.774
 7975TIP3   OH223846   4.208   3.888   3.567
 7975TIP3    H123847   4.274   3.937   3.619
 7975TIP3    H223848   4.266   3.824   3.521
 7976TIP3   OH223849   5.124   4.352   4.438
 7976TIP3    H123850   5.067   4.423   4.470
 7976TIP3    H223851   5.105   4.355   4.344
 7977TIP3   OH223852   4.600   4.180   3.828
 7977TIP3    H123853   4.547   4.202   3.908
 7977TIP3    H223854   4.685   4.153   3.870
 7978TIP3   OH223855   4.841   4.204   4.743
 7978TIP3    H123856   4.840   4.289   4.792
 7978TIP3    H223857   4.750   4.206   4.705
 7979TIP3   OH223858   4.108   4.721   4.971
 7979TIP3    H123859   4.029   4.776   4.991
 7979TIP3    H223860   4.069   4.653   4.914
 7980TIP3   OH223861   4.436   4.041   3.657
 7980TIP3    H123862   4.497   4.100   3.707
 7980TIP3    H223863   4.462   4.060   3.564
 7981TIP3   OH223864   4.180   4.712   3.928
 7981TIP3    H123865   4.264   4.760   3.940
 7981TIP3    H223866   4.124   4.778   3.886
 7982TIP3   OH223867   3.892   4.884   5.016
 7982TIP3    H123868   3.864   4.883   4.922
 7982TIP3    H223869   3.809   4.858   5.063
 7983TIP3   OH223870   4.952   3.275   3.704
 7983TIP3    H123871   4.872   3.298   3.755
 7983TIP3    H223872   4.970   3.360   3.658
 7984TIP3   OH223873   3.703   4.001   4.002
 7984TIP3    H123874   3.620   4.044   3.975
 7984TIP3    H223875   3.675   3.947   4.077
 7985TIP3   OH223876   4.752   4.644   3.251
 7985TIP3    H123877   4.759   4.741   3.240
 7985TIP3    H223878   4.846   4.616   3.240
 7986TIP3   OH223879   5.143   5.037   4.665
 7986TIP3    H123880   5.174   4.953   4.626
 7986TIP3    H223881   5.127   5.006   4.757
 7987TIP3   OH223882   4.257   4.832   4.766
 7987TIP3    H123883   4.288   4.917   4.801
 7987TIP3    H223884   4.212   4.793   4.844
 7988TIP3   OH223885   4.064   4.960   3.737
 7988TIP3    H123886   4.024   4.947   3.649
 7988TIP3    H223887   4.037   5.051   3.759
 7989TIP3   OH223888   3.501   4.814   4.115
 7989TIP3    H123889   3.547   4.813   4.201
 7989TIP3    H223890   3.452   4.730   4.118
 7990TIP3   OH223891   4.261   4.862   3.371
 7990TIP3    H123892   4.323   4.795   3.338
 7990TIP3    H223893   4.293   4.874   3.464
 7991TIP3   OH223894   4.305   4.873   3.641
 7991TIP3    H123895   4.225   4.906   3.685
 7991TIP3    H223896   4.369   4.873   3.713
 7992TIP3   OH223897   5.084   4.176   4.923
 7992TIP3    H123898   5.001   4.192   4.877
 7992TIP3    H223899   5.097   4.080   4.908
 7993TIP3   OH223900   4.082   3.408   4.735
 7993TIP3    H123901   3.993   3.380   4.705
 7993TIP3    H223902   4.057   3.490   4.782
 7994TIP3   OH223903   4.617   3.523   4.928
 7994TIP3    H123904   4.684   3.496   4.993
 7994TIP3    H223905   4.532   3.505   4.974
 7995TIP3   OH223906   4.854   3.949   4.848
 7995TIP3    H123907   4.800   3.951   4.930
 7995TIP3    H223908   4.833   4.035   4.807
 7996TIP3   OH223909   4.513   4.078   3.401
 7996TIP3    H123910   4.478   4.058   3.312
 7996TIP3    H223911   4.598   4.121   3.378
 7997TIP3   OH223912   4.227   3.456   3.704
 7997TIP3    H123913   4.193   3.454   3.796
 7997TIP3    H223914   4.185   3.375   3.670
 7998TIP3   OH223915   4.002   3.945   4.750
 7998TIP3    H123916   3.971   3.975   4.837
 7998TIP3    H223917   3.993   4.026   4.697
 7999TIP3   OH223918   3.890   3.804   4.262
 7999TIP3    H123919   3.798   3.780   4.285
 7999TIP3    H223920   3.900   3.763   4.173
 8000TIP3   OH223921   4.386   3.896   3.992
 8000TIP3    H123922   4.336   3.968   3.949
 8000TIP3    H223923   4.442   3.863   3.919
 8001TIP3   OH223924   4.555   4.167   5.078
 8001TIP3    H123925   4.540   4.091   5.138
 8001TIP3    H223926   4.650   4.184   5.093
 8002TIP3   OH223927   4.533   3.918   4.239
 8002TIP3    H123928   4.472   3.951   4.169
 8002TIP3    H223929   4.573   3.844   4.189
 8003TIP3   OH223930   3.882   3.433   3.669
 8003TIP3    H123931   3.873   3.432   3.766
 8003TIP3    H223932   3.805   3.489   3.645
 8004TIP3   OH223933   3.428   3.471   4.541
 8004TIP3    H123934   3.499   3.509   4.597
 8004TIP3    H223935   3.475   3.452   4.458
 8005TIP3   OH223936   3.387   3.454   4.056
 8005TIP3    H123937   3.436   3.492   3.980
 8005TIP3    H223938   3.330   3.530   4.080
 8006TIP3   OH223939   4.580   4.176   4.662
 8006TIP3    H123940   4.593   4.113   4.589
 8006TIP3    H223941   4.533   4.119   4.727
 8007TIP3   OH223942   4.229   3.615   4.322
 8007TIP3    H123943   4.144   3.626   4.370
 8007TIP3    H223944   4.292   3.646   4.389
 8008TIP3   OH223945   3.655   3.689   4.339
 8008TIP3    H123946   3.561   3.697   4.309
 8008TIP3    H223947   3.679   3.598   4.313
 8009TIP3   OH223948   3.923   3.676   4.021
 8009TIP3    H123949   4.015   3.703   4.003
 8009TIP3    H223950   3.874   3.705   3.940
 8010TIP3   OH223951   4.717   3.708   4.525
 8010TIP3    H123952   4.689   3.723   4.617
 8010TIP3    H223953   4.644   3.650   4.494
 8011TIP3   OH223954   3.776   3.714   3.795
 8011TIP3    H123955   3.701   3.675   3.747
 8011TIP3    H223956   3.826   3.755   3.722
 8012TIP3   OH223957   3.846   4.553   5.154
 8012TIP3    H123958   3.884   4.572   5.240
 8012TIP3    H223959   3.785   4.480   5.174
 8013TIP3   OH223960   4.312   3.947   4.431
 8013TIP3    H123961   4.393   3.936   4.379
 8013TIP3    H223962   4.333   3.909   4.517
 8014TIP3   OH223963   3.823   3.450   4.308
 8014TIP3    H123964   3.787   3.373   4.357
 8014TIP3    H223965   3.868   3.407   4.234
 8015TIP3   OH223966   4.280   3.856   4.725
 8015TIP3    H123967   4.193   3.900   4.720
 8015TIP3    H223968   4.337   3.925   4.765
 8016TIP3   OH223969   4.013   4.252   3.806
 8016TIP3    H123970   3.946   4.182   3.786
 8016TIP3    H223971   3.997   4.267   3.900
 8017TIP3   OH223972   4.477   3.560   3.672
 8017TIP3    H123973   4.381   3.540   3.683
 8017TIP3    H223974   4.484   3.653   3.699
 8018TIP3   OH223975   4.391   4.539   4.816
 8018TIP3    H123976   4.449   4.559   4.890
 8018TIP3    H223977   4.379   4.625   4.774
 8019TIP3   OH223978   4.546   3.809   3.774
 8019TIP3    H123979   4.641   3.816   3.792
 8019TIP3    H223980   4.528   3.891   3.724
 8020TIP3   OH223981   4.166   4.398   3.627
 8020TIP3    H123982   4.118   4.484   3.630
 8020TIP3    H223983   4.112   4.346   3.690
 8021TIP3   OH223984   4.322   4.304   5.143
 8021TIP3    H123985   4.244   4.264   5.102
 8021TIP3    H223986   4.393   4.263   5.088
 8022TIP3   OH223987   4.984   3.904   3.608
 8022TIP3    H123988   4.922   3.860   3.545
 8022TIP3    H223989   4.980   3.994   3.568
 8023TIP3   OH223990   5.181   4.753   4.655
 8023TIP3    H123991   5.087   4.754   4.682
 8023TIP3    H223992   5.177   4.707   4.570
 8024TIP3   OH223993   4.700   4.721   3.521
 8024TIP3    H123994   4.653   4.664   3.584
 8024TIP3    H223995   4.704   4.669   3.439
 8025TIP3   OH223996   3.759   4.631   4.146
 8025TIP3    H123997   3.785   4.694   4.076
 8025TIP3    H223998   3.701   4.572   4.097
 8026TIP3   OH223999   3.378   3.880   3.814
 8026TIP3    H124000   3.423   3.963   3.838
 8026TIP3    H224001   3.302   3.882   3.876
 8027TIP3   OH224002   4.079   4.909   4.570
 8027TIP3    H124003   4.128   4.982   4.527
 8027TIP3    H224004   4.150   4.867   4.623
 8028TIP3   OH224005   3.723   4.830   3.944
 8028TIP3    H124006   3.640   4.836   3.995
 8028TIP3    H224007   3.757   4.922   3.952
 8029TIP3   OH224008   4.450   4.448   3.422
 8029TIP3    H124009   4.504   4.419   3.499
 8029TIP3    H224010   4.361   4.424   3.452
 8030TIP3   OH224011   4.777   4.922   3.242
 8030TIP3    H124012   4.812   4.996   3.190
 8030TIP3    H224013   4.699   4.966   3.281
 8031TIP3   OH224014   3.821   3.661   5.109
 8031TIP3    H124015   3.741   3.714   5.122
 8031TIP3    H224016   3.830   3.614   5.193
 8032TIP3   OH224017   4.607   4.377   3.637
 8032TIP3    H124018   4.601   4.308   3.706
 8032TIP3    H224019   4.704   4.375   3.620
 8033TIP3   OH224020   3.517   4.799   4.726
 8033TIP3    H124021   3.511   4.713   4.769
 8033TIP3    H224022   3.570   4.851   4.789
 8034TIP3   OH224023   3.808   4.425   3.418
 8034TIP3    H124024   3.826   4.332   3.396
 8034TIP3    H224025   3.787   4.419   3.513
 8035TIP3   OH224026   3.752   4.433   3.689
 8035TIP3    H124027   3.833   4.407   3.735
 8035TIP3    H224028   3.756   4.532   3.697
 8036TIP3   OH224029   3.480   4.125   3.894
 8036TIP3    H124030   3.416   4.169   3.953
 8036TIP3    H224031   3.494   4.195   3.828
 8037TIP3   OH224032   4.649   3.759   4.786
 8037TIP3    H124033   4.727   3.799   4.828
 8037TIP3    H224034   4.633   3.680   4.840
 8038TIP3   OH224035   4.532   3.506   3.957
 8038TIP3    H124036   4.513   3.532   3.865
 8038TIP3    H224037   4.569   3.589   3.995
 8039TIP3   OH224038   4.021   4.625   3.637
 8039TIP3    H124039   3.933   4.654   3.670
 8039TIP3    H224040   4.053   4.707   3.598
 8040TIP3   OH224041   4.208   3.693   4.055
 8040TIP3    H124042   4.271   3.768   4.041
 8040TIP3    H224043   4.211   3.685   4.152
 8041TIP3   OH224044   4.475   4.013   4.855
 8041TIP3    H124045   4.499   4.065   4.934
 8041TIP3    H224046   4.527   3.932   4.866
 8042TIP3   OH224047   4.350   3.413   4.156
 8042TIP3    H124048   4.330   3.491   4.211
 8042TIP3    H224049   4.415   3.450   4.093
 8043TIP3   OH224050   3.766   4.704   3.706
 8043TIP3    H124051   3.739   4.774   3.643
 8043TIP3    H224052   3.751   4.750   3.791
 8044TIP3   OH224053   3.869   3.416   3.944
 8044TIP3    H124054   3.865   3.507   3.981
 8044TIP3    H224055   3.965   3.400   3.953
 8045TIP3   OH224056   5.119   3.909   4.840
 8045TIP3    H124057   5.022   3.909   4.853
 8045TIP3    H224058   5.124   3.862   4.756
 8046TIP3   OH224059   4.785   4.077   4.210
 8046TIP3    H124060   4.698   4.066   4.251
 8046TIP3    H224061   4.845   4.042   4.277
 8047TIP3   OH224062   3.486   4.330   3.697
 8047TIP3    H124063   3.558   4.395   3.707
 8047TIP3    H224064   3.529   4.270   3.633
 8048TIP3   OH224065   3.425   3.608   3.829
 8048TIP3    H124066   3.431   3.706   3.831
 8048TIP3    H224067   3.336   3.594   3.798
 8049TIP3   OH224068   4.752   5.044   4.154
 8049TIP3    H124069   4.693   5.106   4.106
 8049TIP3    H224070   4.838   5.089   4.144
 8050TIP3   OH224071   3.818   3.330   4.702
 8050TIP3    H124072   3.786   3.297   4.616
 8050TIP3    H224073   3.806   3.252   4.760
 8051TIP3   OH224074   3.352   4.549   4.083
 8051TIP3    H124075   3.289   4.579   4.150
 8051TIP3    H224076   3.316   4.592   4.002
 8052TIP3   OH224077   3.515   5.099   5.158
 8052TIP3    H124078   3.602   5.098   5.204
 8052TIP3    H224079   3.495   5.004   5.156
 8053TIP3   OH224080   3.992   5.052   5.208
 8053TIP3    H124081   4.087   5.034   5.206
 8053TIP3    H224082   3.960   4.994   5.135
 8054TIP3   OH224083   3.970   4.630   3.325
 8054TIP3    H124084   3.916   4.558   3.367
 8054TIP3    H224085   4.050   4.581   3.301
 8055TIP3   OH224086   4.408   4.664   3.243
 8055TIP3    H124087   4.450   4.602   3.305
 8055TIP3    H224088   4.470   4.663   3.167
 8056TIP3   OH224089   3.637   4.478   5.352
 8056TIP3    H124090   3.655   4.390   5.311
 8056TIP3    H224091   3.550   4.497   5.312
 8057TIP3   OH224092   3.621   4.143   3.554
 8057TIP3    H124093   3.675   4.111   3.629
 8057TIP3    H224094   3.690   4.148   3.484
 8058TIP3   OH224095   4.134   4.346   3.360
 8058TIP3    H124096   4.138   4.359   3.457
 8058TIP3    H224097   4.136   4.248   3.354
 8059TIP3   OH224098   3.828   4.056   3.768
 8059TIP3    H124099   3.790   4.026   3.855
 8059TIP3    H224100   3.861   3.972   3.731
 8060TIP3   OH224101   4.102   4.118   5.004
 8060TIP3    H124102   4.009   4.147   5.004
 8060TIP3    H224103   4.139   4.164   4.925
 8061TIP3   OH224104   3.931   3.846   3.612
 8061TIP3    H124105   3.906   3.857   3.518
 8061TIP3    H224106   4.028   3.850   3.606
 8062TIP3   OH224107   4.600   4.500   5.126
 8062TIP3    H124108   4.636   4.591   5.128
 8062TIP3    H224109   4.682   4.454   5.149
 8063TIP3   OH224110   4.746   4.173   3.284
 8063TIP3    H124111   4.728   4.130   3.198
 8063TIP3    H224112   4.714   4.264   3.262
 8064TIP3   OH224113   4.231   3.906   5.121
 8064TIP3    H124114   4.223   3.826   5.064
 8064TIP3    H224115   4.185   3.974   5.067
 8065TIP3   OH224116   4.226   3.688   4.940
 8065TIP3    H124117   4.252   3.734   4.858
 8065TIP3    H224118   4.132   3.666   4.921
 8066TIP3   OH224119   4.233   4.240   4.797
 8066TIP3    H124120   4.324   4.228   4.768
 8066TIP3    H224121   4.212   4.327   4.759
 8067TIP3   OH224122   4.821   4.195   5.190
 8067TIP3    H124123   4.872   4.114   5.197
 8067TIP3    H224124   4.884   4.255   5.148
 8068TIP3   OH224125   4.867   4.429   4.889
 8068TIP3    H124126   4.813   4.508   4.900
 8068TIP3    H224127   4.954   4.468   4.865
 8069TIP3   OH224128   4.118   4.008   5.359
 8069TIP3    H124129   4.033   3.964   5.375
 8069TIP3    H224130   4.135   3.984   5.266
 8070TIP3   OH224131   4.355   3.452   5.008
 8070TIP3    H124132   4.306   3.534   4.984
 8070TIP3    H224133   4.286   3.384   4.995
 8071TIP3   OH224134   4.483   3.947   5.222
 8071TIP3    H124135   4.459   3.930   5.315
 8071TIP3    H224136   4.396   3.928   5.180
 8072TIP3   OH224137   4.720   3.909   5.078
 8072TIP3    H124138   4.644   3.906   5.140
 8072TIP3    H224139   4.794   3.878   5.133
 8073TIP3   OH224140   4.953   3.851   5.225
 8073TIP3    H124141   4.964   3.755   5.240
 8073TIP3    H224142   4.947   3.887   5.316
 8074TIP3   OH224143   3.928   3.796   5.420
 8074TIP3    H124144   3.936   3.708   5.381
 8074TIP3    H224145   3.968   3.781   5.508
 8075TIP3   OH224146   4.447   3.462   5.266
 8075TIP3    H124147   4.513   3.390   5.256
 8075TIP3    H224148   4.407   3.460   5.177
 8076TIP3   OH224149   4.517   3.675   5.424
 8076TIP3    H124150   4.494   3.605   5.359
 8076TIP3    H224151   4.440   3.735   5.418
 8077TIP3   OH224152   3.738   4.904   3.519
 8077TIP3    H124153   3.834   4.896   3.504
 8077TIP3    H224154   3.715   4.960   3.442
 8078TIP3   OH224155   3.216   4.294   3.728
 8078TIP3    H124156   3.312   4.313   3.719
 8078TIP3    H224157   3.211   4.203   3.692
 8079TIP3   OH224158   3.135   4.903   4.150
 8079TIP3    H124159   3.068   4.842   4.113
 8079TIP3    H224160   3.180   4.844   4.214
 8080TIP3   OH224161   3.272   4.749   4.333
 8080TIP3    H124162   3.245   4.685   4.399
 8080TIP3    H224163   3.320   4.814   4.388
 8081TIP3   OH224164   4.996   5.162   4.130
 8081TIP3    H124165   5.055   5.191   4.200
 8081TIP3    H224166   5.043   5.192   4.051
 8082TIP3   OH224167   5.067   4.851   4.976
 8082TIP3    H124168   4.999   4.827   5.041
 8082TIP3    H224169   5.107   4.932   5.012
 8083TIP3   OH224170   4.883   4.364   3.608
 8083TIP3    H124171   4.950   4.428   3.578
 8083TIP3    H224172   4.929   4.324   3.686
 8084TIP3   OH224173   5.010   4.233   3.808
 8084TIP3    H124174   4.949   4.185   3.869
 8084TIP3    H224175   5.086   4.256   3.865
 8085TIP3   OH224176   4.902   4.947   4.510
 8085TIP3    H124177   4.840   4.891   4.565
 8085TIP3    H224178   4.909   4.895   4.430
 8086TIP3   OH224179   4.951   4.137   3.462
 8086TIP3    H124180   4.879   4.139   3.394
 8086TIP3    H224181   4.923   4.214   3.516
 8087TIP3   OH224182   4.820   3.805   3.415
 8087TIP3    H124183   4.781   3.845   3.336
 8087TIP3    H224184   4.800   3.710   3.400
 8088TIP3   OH224185   4.830   4.082   3.947
 8088TIP3    H124186   4.833   3.985   3.938
 8088TIP3    H224187   4.815   4.090   4.045
 8089TIP3   OH224188   5.121   4.515   4.812
 8089TIP3    H124189   5.190   4.446   4.818
 8089TIP3    H224190   5.166   4.586   4.765
 8090TIP3   OH224191   5.303   4.319   4.857
 8090TIP3    H124192   5.225   4.265   4.884
 8090TIP3    H224193   5.372   4.250   4.857
 8091TIP3   OH224194   4.772   3.534   3.390
 8091TIP3    H124195   4.838   3.512   3.458
 8091TIP3    H224196   4.691   3.489   3.418
 8092TIP3   OH224197   4.825   3.804   3.851
 8092TIP3    H124198   4.865   3.715   3.866
 8092TIP3    H224199   4.883   3.836   3.779
 8093TIP3   OH224200   4.986   3.961   4.362
 8093TIP3    H124201   5.067   3.991   4.316
 8093TIP3    H224202   4.998   4.006   4.448
 8094TIP3   OH224203   5.060   4.121   4.581
 8094TIP3    H124204   4.981   4.148   4.632
 8094TIP3    H224205   5.083   4.206   4.537
 8095TIP3   OH224206   3.660   3.832   5.353
 8095TIP3    H124207   3.756   3.840   5.368
 8095TIP3    H224208   3.640   3.753   5.407
 8096TIP3   OH224209   5.507   3.715   5.137
 8096TIP3    H124210   5.568   3.650   5.095
 8096TIP3    H224211   5.476   3.766   5.059
 8097TIP3   OH224212   4.935   3.553   3.891
 8097TIP3    H124213   4.981   3.538   3.976
 8097TIP3    H224214   4.872   3.479   3.891
 8098TIP3   OH224215   3.632   3.540   4.714
 8098TIP3    H124216   3.695   3.466   4.722
 8098TIP3    H224217   3.693   3.615   4.704
 8099TIP3   OH224218   5.374   3.850   4.940
 8099TIP3    H124219   5.289   3.893   4.961
 8099TIP3    H224220   5.341   3.776   4.884
 8100TIP3   OH224221   5.013   3.484   3.531
 8100TIP3    H124222   5.060   3.423   3.471
 8100TIP3    H224223   5.072   3.562   3.531
 8101TIP3   OH224224   3.417   3.304   4.280
 8101TIP3    H124225   3.328   3.306   4.319
 8101TIP3    H224226   3.410   3.369   4.208
 8102TIP3   OH224227   4.583   5.022   3.798
 8102TIP3    H124228   4.627   5.008   3.712
 8102TIP3    H224229   4.627   5.103   3.828
 8103TIP3   OH224230   3.643   3.369   5.104
 8103TIP3    H124231   3.594   3.382   5.187
 8103TIP3    H224232   3.584   3.420   5.043
 8104TIP3   OH224233   3.669   4.836   5.171
 8104TIP3    H124234   3.576   4.809   5.166
 8104TIP3    H224235   3.699   4.790   5.250
 8105TIP3   OH224236   3.857   4.869   4.742
 8105TIP3    H124237   3.818   4.944   4.694
 8105TIP3    H224238   3.941   4.861   4.693
 8106TIP3   OH224239   4.293   5.101   4.873
 8106TIP3    H124240   4.347   5.099   4.955
 8106TIP3    H224241   4.356   5.142   4.810
 8107TIP3   OH224242   4.473   5.228   4.707
 8107TIP3    H124243   4.525   5.147   4.689
 8107TIP3    H224244   4.533   5.280   4.764
 8108TIP3   OH224245   5.276   3.612   4.823
 8108TIP3    H124246   5.186   3.603   4.786
 8108TIP3    H224247   5.309   3.519   4.814
 8109TIP3   OH224248   3.534   5.123   4.747
 8109TIP3    H124249   3.442   5.153   4.727
 8109TIP3    H224250   3.544   5.157   4.837
 8110TIP3   OH224251   3.771   5.095   4.611
 8110TIP3    H124252   3.683   5.106   4.654
 8110TIP3    H224253   3.751   5.123   4.520
 8111TIP3   OH224254   4.184   5.118   4.413
 8111TIP3    H124255   4.120   5.138   4.344
 8111TIP3    H224256   4.199   5.207   4.453
 8112TIP3   OH224257   4.463   5.094   4.378
 8112TIP3    H124258   4.371   5.076   4.403
 8112TIP3    H224259   4.485   5.167   4.436
 8113TIP3   OH224260   4.766   5.270   4.382
 8113TIP3    H124261   4.717   5.346   4.344
 8113TIP3    H224262   4.717   5.196   4.340
 8114TIP3   OH224263   3.437   4.910   4.493
 8114TIP3    H124264   3.463   4.882   4.584
 8114TIP3    H224265   3.513   4.870   4.444
 8115TIP3   OH224266   3.640   4.792   4.353
 8115TIP3    H124267   3.663   4.701   4.326
 8115TIP3    H224268   3.730   4.833   4.353
 8116TIP3   OH224269   3.909   4.875   4.358
 8116TIP3    H124270   3.968   4.811   4.316
 8116TIP3    H224271   3.956   4.889   4.443
 8117TIP3   OH224272   4.496   3.532   4.457
 8117TIP3    H124273   4.441   3.463   4.498
 8117TIP3    H224274   4.560   3.480   4.405
 8118TIP3   OH224275   5.000   3.405   4.344
 8118TIP3    H124276   5.035   3.460   4.271
 8118TIP3    H224277   4.905   3.429   4.342
 8119TIP3   OH224278   5.097   3.505   4.108
 8119TIP3    H124279   5.173   3.455   4.071
 8119TIP3    H224280   5.130   3.597   4.096
 8120TIP3   OH224281   3.729   3.235   4.455
 8120TIP3    H124282   3.636   3.202   4.460
 8120TIP3    H224283   3.777   3.150   4.452
 8121TIP3   OH224284   3.517   3.107   4.107
 8121TIP3    H124285   3.545   3.167   4.035
 8121TIP3    H224286   3.487   3.171   4.175
 8122TIP3   OH224287   4.178   3.264   4.339
 8122TIP3    H124288   4.231   3.316   4.277
 8122TIP3    H224289   4.190   3.313   4.422
 8123TIP3   OH224290   4.719   3.415   4.320
 8123TIP3    H124291   4.713   3.376   4.232
 8123TIP3    H224292   4.706   3.336   4.378
 8124TIP3   OH224293   4.750   3.342   3.885
 8124TIP3    H124294   4.667   3.389   3.906
 8124TIP3    H224295   4.734   3.256   3.930
 8125TIP3   OH224296   3.232   4.682   3.880
 8125TIP3    H124297   3.145   4.651   3.849
 8125TIP3    H224298   3.224   4.776   3.858
 8126TIP3   OH224299   3.636   3.266   3.867
 8126TIP3    H124300   3.686   3.204   3.810
 8126TIP3    H224301   3.709   3.320   3.904
 8127TIP3   OH224302   4.146   3.442   3.967
 8127TIP3    H124303   4.206   3.399   4.030
 8127TIP3    H224304   4.162   3.536   3.992
 8128TIP3   OH224305   4.005   4.863   3.472
 8128TIP3    H124306   4.093   4.887   3.436
 8128TIP3    H224307   3.985   4.787   3.413
 8129TIP3   OH224308   4.723   4.990   3.562
 8129TIP3    H124309   4.718   4.892   3.548
 8129TIP3    H224310   4.667   5.023   3.489
 8130TIP3   OH224311   3.932   3.512   5.352
 8130TIP3    H124312   3.899   3.441   5.409
 8130TIP3    H224313   4.026   3.515   5.380
 8131TIP3   OH224314   4.186   3.516   5.470
 8131TIP3    H124315   4.270   3.490   5.428
 8131TIP3    H224316   4.173   3.444   5.534
 8132TIP3   OH224317   3.306   4.700   3.522
 8132TIP3    H124318   3.307   4.720   3.617
 8132TIP3    H224319   3.394   4.659   3.508
 8133TIP3   OH224320   5.014   3.579   5.255
 8133TIP3    H124321   5.032   3.549   5.346
 8133TIP3    H224322   5.103   3.575   5.215
 8134TIP3   OH224323   6.220   4.511   3.501
 8134TIP3    H124324   6.180   4.597   3.476
 8134TIP3    H224325   6.144   4.452   3.489
 8135TIP3   OH224326   6.495   4.776   3.619
 8135TIP3    H124327   6.408   4.734   3.629
 8135TIP3    H224328   6.475   4.870   3.638
 8136TIP3   OH224329   5.192   4.000   3.763
 8136TIP3    H124330   5.155   4.087   3.783
 8136TIP3    H224331   5.116   3.957   3.719
 8137TIP3   OH224332   5.253   4.279   3.918
 8137TIP3    H124333   5.306   4.215   3.970
 8137TIP3    H224334   5.321   4.337   3.882
 8138TIP3   OH224335   6.104   5.271   3.585
 8138TIP3    H124336   6.155   5.194   3.554
 8138TIP3    H224337   6.076   5.245   3.674
 8139TIP3   OH224338   7.030   4.049   3.939
 8139TIP3    H124339   7.064   4.132   3.976
 8139TIP3    H224340   7.057   4.056   3.846
 8140TIP3   OH224341   5.768   3.886   3.941
 8140TIP3    H124342   5.748   3.957   3.876
 8140TIP3    H224343   5.719   3.812   3.899
 8141TIP3   OH224344   6.462   3.980   3.559
 8141TIP3    H124345   6.531   3.964   3.626
 8141TIP3    H224346   6.516   4.018   3.487
 8142TIP3   OH224347   5.402   4.092   4.054
 8142TIP3    H124348   5.487   4.068   4.097
 8142TIP3    H224349   5.410   4.039   3.972
 8143TIP3   OH224350   5.827   4.262   3.847
 8143TIP3    H124351   5.920   4.233   3.858
 8143TIP3    H224352   5.786   4.184   3.806
 8144TIP3   OH224353   7.114   4.260   4.108
 8144TIP3    H124354   7.025   4.295   4.086
 8144TIP3    H224355   7.108   4.259   4.205
 8145TIP3   OH224356   5.761   3.871   4.376
 8145TIP3    H124357   5.702   3.906   4.308
 8145TIP3    H224358   5.706   3.884   4.456
 8146TIP3   OH224359   6.106   4.727   3.380
 8146TIP3    H124360   6.061   4.710   3.296
 8146TIP3    H224361   6.063   4.811   3.407
 8147TIP3   OH224362   6.664   3.981   3.742
 8147TIP3    H124363   6.638   3.948   3.829
 8147TIP3    H224364   6.707   4.066   3.764
 8148TIP3   OH224365   5.639   3.989   4.159
 8148TIP3    H124366   5.704   4.060   4.179
 8148TIP3    H224367   5.685   3.946   4.082
 8149TIP3   OH224368   5.085   4.535   3.503
 8149TIP3    H124369   5.046   4.562   3.418
 8149TIP3    H224370   5.118   4.620   3.537
 8150TIP3   OH224371   6.536   5.045   3.754
 8150TIP3    H124372   6.449   5.036   3.800
 8150TIP3    H224373   6.521   5.128   3.703
 8151TIP3   OH224374   6.818   3.959   4.113
 8151TIP3    H124375   6.728   3.959   4.074
 8151TIP3    H224376   6.874   3.984   4.037
 8152TIP3   OH224377   6.113   3.585   4.092
 8152TIP3    H124378   6.098   3.491   4.112
 8152TIP3    H224379   6.036   3.625   4.139
 8153TIP3   OH224380   6.245   5.090   3.432
 8153TIP3    H124381   6.288   5.008   3.401
 8153TIP3    H224382   6.301   5.157   3.386
 8154TIP3   OH224383   6.375   4.871   3.332
 8154TIP3    H124384   6.333   4.808   3.271
 8154TIP3    H224385   6.424   4.812   3.390
 8155TIP3   OH224386   6.768   4.979   4.074
 8155TIP3    H124387   6.708   4.919   4.028
 8155TIP3    H224388   6.744   5.065   4.032
 8156TIP3   OH224389   6.046   4.351   3.344
 8156TIP3    H124390   5.965   4.405   3.330
 8156TIP3    H224391   6.088   4.356   3.257
 8157TIP3   OH224392   6.005   4.141   3.055
 8157TIP3    H124393   6.070   4.193   3.106
 8157TIP3    H224394   6.064   4.079   3.008
 8158TIP3   OH224395   6.933   4.616   3.944
 8158TIP3    H124396   6.975   4.693   3.984
 8158TIP3    H224397   6.975   4.616   3.855
 8159TIP3   OH224398   6.399   4.435   3.312
 8159TIP3    H124399   6.339   4.460   3.386
 8159TIP3    H224400   6.479   4.410   3.362
 8160TIP3   OH224401   5.645   4.425   3.703
 8160TIP3    H124402   5.599   4.357   3.650
 8160TIP3    H224403   5.699   4.373   3.765
 8161TIP3   OH224404   6.301   5.029   3.883
 8161TIP3    H124405   6.276   5.117   3.917
 8161TIP3    H224406   6.235   4.972   3.925
 8162TIP3   OH224407   5.895   4.950   4.418
 8162TIP3    H124408   5.835   5.016   4.460
 8162TIP3    H224409   5.863   4.950   4.327
 8163TIP3   OH224410   6.237   4.293   3.136
 8163TIP3    H124411   6.293   4.355   3.188
 8163TIP3    H224412   6.266   4.313   3.044
 8164TIP3   OH224413   5.986   4.971   3.408
 8164TIP3    H124414   6.055   5.034   3.436
 8164TIP3    H224415   5.915   5.028   3.377
 8165TIP3   OH224416   5.690   5.128   4.498
 8165TIP3    H124417   5.655   5.174   4.420
 8165TIP3    H224418   5.609   5.111   4.551
 8166TIP3   OH224419   6.750   3.532   3.193
 8166TIP3    H124420   6.668   3.555   3.242
 8166TIP3    H224421   6.765   3.614   3.142
 8167TIP3   OH224422   5.494   4.261   3.520
 8167TIP3    H124423   5.425   4.314   3.476
 8167TIP3    H224424   5.445   4.182   3.546
 8168TIP3   OH224425   6.532   4.909   2.755
 8168TIP3    H124426   6.558   4.999   2.727
 8168TIP3    H224427   6.608   4.857   2.726
 8169TIP3   OH224428   6.993   5.310   4.140
 8169TIP3    H124429   6.990   5.214   4.155
 8169TIP3    H224430   6.908   5.337   4.182
 8170TIP3   OH224431   6.128   5.081   4.280
 8170TIP3    H124432   6.112   5.176   4.297
 8170TIP3    H224433   6.038   5.048   4.276
 8171TIP3   OH224434   5.861   5.224   3.221
 8171TIP3    H124435   5.811   5.206   3.139
 8171TIP3    H224436   5.832   5.314   3.244
 8172TIP3   OH224437   5.298   5.064   3.607
 8172TIP3    H124438   5.346   5.045   3.688
 8172TIP3    H224439   5.242   4.985   3.598
 8173TIP3   OH224440   6.063   5.118   2.853
 8173TIP3    H124441   6.120   5.046   2.820
 8173TIP3    H224442   6.097   5.130   2.944
 8174TIP3   OH224443   6.110   5.173   3.124
 8174TIP3    H124444   6.022   5.183   3.167
 8174TIP3    H224445   6.160   5.132   3.196
 8175TIP3   OH224446   6.886   4.434   4.414
 8175TIP3    H124447   6.788   4.430   4.412
 8175TIP3    H224448   6.907   4.339   4.406
 8176TIP3   OH224449   5.877   3.666   4.221
 8176TIP3    H124450   5.789   3.635   4.191
 8176TIP3    H224451   5.850   3.746   4.271
 8177TIP3   OH224452   6.409   3.783   4.412
 8177TIP3    H124453   6.480   3.755   4.474
 8177TIP3    H224454   6.328   3.761   4.461
 8178TIP3   OH224455   6.659   4.265   4.352
 8178TIP3    H124456   6.622   4.226   4.435
 8178TIP3    H224457   6.579   4.264   4.298
 8179TIP3   OH224458   6.316   4.342   2.880
 8179TIP3    H124459   6.289   4.307   2.792
 8179TIP3    H224460   6.339   4.433   2.857
 8180TIP3   OH224461   6.020   3.714   3.191
 8180TIP3    H124462   5.988   3.711   3.283
 8180TIP3    H224463   5.982   3.630   3.157
 8181TIP3   OH224464   5.809   4.202   4.233
 8181TIP3    H124465   5.752   4.213   4.313
 8181TIP3    H224466   5.781   4.275   4.176
 8182TIP3   OH224467   5.687   4.054   3.747
 8182TIP3    H124468   5.594   4.032   3.766
 8182TIP3    H224469   5.698   4.014   3.657
 8183TIP3   OH224470   6.182   4.152   3.475
 8183TIP3    H124471   6.131   4.224   3.430
 8183TIP3    H224472   6.237   4.118   3.402
 8184TIP3   OH224473   6.363   4.446   4.580
 8184TIP3    H124474   6.336   4.361   4.621
 8184TIP3    H224475   6.458   4.445   4.598
 8185TIP3   OH224476   6.303   4.163   3.726
 8185TIP3    H124477   6.258   4.193   3.645
 8185TIP3    H224478   6.360   4.094   3.687
 8186TIP3   OH224479   5.651   4.201   4.460
 8186TIP3    H124480   5.608   4.255   4.527
 8186TIP3    H224481   5.637   4.111   4.497
 8187TIP3   OH224482   5.672   3.681   3.156
 8187TIP3    H124483   5.667   3.688   3.253
 8187TIP3    H224484   5.602   3.744   3.130
 8188TIP3   OH224485   5.225   3.727   4.028
 8188TIP3    H124486   5.298   3.764   4.083
 8188TIP3    H224487   5.268   3.704   3.945
 8189TIP3   OH224488   5.183   3.713   3.544
 8189TIP3    H124489   5.227   3.750   3.464
 8189TIP3    H224490   5.124   3.788   3.565
 8190TIP3   OH224491   6.024   3.877   3.807
 8190TIP3    H124492   5.944   3.882   3.864
 8190TIP3    H224493   6.096   3.886   3.872
 8191TIP3   OH224494   5.450   3.946   3.826
 8191TIP3    H124495   5.356   3.954   3.794
 8191TIP3    H224496   5.474   3.855   3.800
 8192TIP3   OH224497   5.721   3.934   3.507
 8192TIP3    H124498   5.814   3.957   3.488
 8192TIP3    H224499   5.673   3.961   3.425
 8193TIP3   OH224500   6.548   3.948   4.016
 8193TIP3    H124501   6.509   3.980   4.100
 8193TIP3    H224502   6.471   3.906   3.976
 8194TIP3   OH224503   5.574   3.972   3.284
 8194TIP3    H124504   5.501   3.932   3.234
 8194TIP3    H224505   5.624   4.015   3.212
 8195TIP3   OH224506   6.689   5.653   4.236
 8195TIP3    H124507   6.682   5.678   4.142
 8195TIP3    H224508   6.767   5.705   4.264
 8196TIP3   OH224509   6.090   4.190   3.897
 8196TIP3    H124510   6.171   4.178   3.842
 8196TIP3    H224511   6.111   4.136   3.975
 8197TIP3   OH224512   5.620   3.705   3.795
 8197TIP3    H124513   5.584   3.628   3.844
 8197TIP3    H224514   5.668   3.662   3.723
 8198TIP3   OH224515   6.064   4.094   4.199
 8198TIP3    H124516   5.976   4.137   4.200
 8198TIP3    H224517   6.120   4.158   4.243
 8199TIP3   OH224518   5.819   4.503   3.293
 8199TIP3    H124519   5.743   4.441   3.283
 8199TIP3    H224520   5.801   4.541   3.382
 8200TIP3   OH224521   6.273   3.814   3.163
 8200TIP3    H124522   6.176   3.796   3.171
 8200TIP3    H224523   6.280   3.909   3.186
 8201TIP3   OH224524   6.278   4.843   4.320
 8201TIP3    H124525   6.234   4.809   4.398
 8201TIP3    H224526   6.217   4.914   4.292
 8202TIP3   OH224527   6.343   4.067   3.260
 8202TIP3    H124528   6.439   4.075   3.275
 8202TIP3    H224529   6.321   4.147   3.208
 8203TIP3   OH224530   5.965   4.655   3.117
 8203TIP3    H124531   5.915   4.740   3.119
 8203TIP3    H224532   5.909   4.600   3.177
 8204TIP3   OH224533   6.116   4.564   4.602
 8204TIP3    H124534   6.059   4.496   4.562
 8204TIP3    H224535   6.205   4.530   4.579
 8205TIP3   OH224536   6.394   5.101   4.187
 8205TIP3    H124537   6.300   5.078   4.198
 8205TIP3    H224538   6.409   5.148   4.272
 8206TIP3   OH224539   6.780   4.161   3.096
 8206TIP3    H124540   6.720   4.117   3.032
 8206TIP3    H224541   6.780   4.250   3.055
 8207TIP3   OH224542   7.012   5.011   4.176
 8207TIP3    H124543   6.914   5.013   4.172
 8207TIP3    H224544   7.029   4.981   4.084
 8208TIP3   OH224545   6.492   4.978   3.016
 8208TIP3    H124546   6.454   4.902   3.062
 8208TIP3    H224547   6.500   4.945   2.924
 8209TIP3   OH224548   5.610   4.830   3.572
 8209TIP3    H124549   5.603   4.918   3.532
 8209TIP3    H224550   5.521   4.814   3.605
 8210TIP3   OH224551   5.179   4.133   3.307
 8210TIP3    H124552   5.221   4.219   3.326
 8210TIP3    H224553   5.100   4.139   3.365
 8211TIP3   OH224554   5.758   4.603   3.533
 8211TIP3    H124555   5.716   4.689   3.553
 8211TIP3    H224556   5.718   4.546   3.602
 8212TIP3   OH224557   5.526   5.076   3.443
 8212TIP3    H124558   5.440   5.087   3.488
 8212TIP3    H224559   5.562   5.168   3.449
 8213TIP3   OH224560   6.227   4.705   2.924
 8213TIP3    H124561   6.289   4.684   2.997
 8213TIP3    H224562   6.141   4.683   2.964
 8214TIP3   OH224563   6.514   5.346   4.074
 8214TIP3    H124564   6.437   5.284   4.071
 8214TIP3    H224565   6.493   5.407   3.999
 8215TIP3   OH224566   6.584   5.180   2.720
 8215TIP3    H124567   6.610   5.252   2.660
 8215TIP3    H224568   6.504   5.220   2.759
 8216TIP3   OH224569   5.596   3.952   4.586
 8216TIP3    H124570   5.499   3.955   4.600
 8216TIP3    H224571   5.624   3.897   4.662
 8217TIP3   OH224572   6.406   4.644   3.128
 8217TIP3    H124573   6.397   4.572   3.194
 8217TIP3    H224574   6.502   4.638   3.109
 8218TIP3   OH224575   5.296   5.045   4.222
 8218TIP3    H124576   5.317   4.951   4.214
 8218TIP3    H224577   5.368   5.081   4.275
 8219TIP3   OH224578   5.606   4.684   2.906
 8219TIP3    H124579   5.621   4.591   2.882
 8219TIP3    H224580   5.586   4.676   3.002
 8220TIP3   OH224581   5.551   4.689   3.178
 8220TIP3    H124582   5.621   4.663   3.240
 8220TIP3    H224583   5.552   4.787   3.186
 8221TIP3   OH224584   5.283   4.381   3.384
 8221TIP3    H124585   5.217   4.427   3.440
 8221TIP3    H224586   5.297   4.449   3.316
 8222TIP3   OH224587   6.451   4.019   4.271
 8222TIP3    H124588   6.489   4.052   4.353
 8222TIP3    H224589   6.415   3.934   4.305
 8223TIP3   OH224590   6.324   3.763   3.445
 8223TIP3    H124591   6.308   3.787   3.351
 8223TIP3    H224592   6.362   3.847   3.480
 8224TIP3   OH224593   5.820   4.884   3.124
 8224TIP3    H124594   5.733   4.906   3.162
 8224TIP3    H224595   5.835   4.963   3.070
 8225TIP3   OH224596   6.003   3.951   3.541
 8225TIP3    H124597   6.067   4.025   3.525
 8225TIP3    H224598   6.010   3.941   3.638
 8226TIP3   OH224599   6.147   3.668   3.641
 8226TIP3    H124600   6.134   3.746   3.698
 8226TIP3    H224601   6.212   3.703   3.576
 8227TIP3   OH224602   5.566   4.958   3.198
 8227TIP3    H124603   5.538   5.029   3.136
 8227TIP3    H224604   5.550   5.002   3.285
 8228TIP3   OH224605   5.664   3.675   3.433
 8228TIP3    H124606   5.662   3.767   3.469
 8228TIP3    H224607   5.760   3.659   3.441
 8229TIP3   OH224608   6.913   4.164   4.316
 8229TIP3    H124609   6.818   4.184   4.329
 8229TIP3    H224610   6.905   4.092   4.251
 8230TIP3   OH224611   5.282   4.585   3.187
 8230TIP3    H124612   5.352   4.652   3.196
 8230TIP3    H224613   5.325   4.527   3.120
 8231TIP3   OH224614   5.221   3.860   3.315
 8231TIP3    H124615   5.221   3.958   3.317
 8231TIP3    H224616   5.140   3.841   3.266
 8232TIP3   OH224617   6.540   5.316   3.667
 8232TIP3    H124618   6.494   5.363   3.594
 8232TIP3    H224619   6.634   5.335   3.642
 8233TIP3   OH224620   5.612   3.586   4.191
 8233TIP3    H124621   5.582   3.551   4.104
 8233TIP3    H224622   5.602   3.508   4.249
 8234TIP3   OH224623   5.144   4.808   3.570
 8234TIP3    H124624   5.076   4.836   3.633
 8234TIP3    H224625   5.110   4.849   3.487
 8235TIP3   OH224626   5.309   5.339   4.650
 8235TIP3    H124627   5.391   5.359   4.700
 8235TIP3    H224628   5.318   5.243   4.642
 8236TIP3   OH224629   5.785   5.306   4.692
 8236TIP3    H124630   5.880   5.293   4.702
 8236TIP3    H224631   5.766   5.245   4.618
 8237TIP3   OH224632   5.769   4.885   2.812
 8237TIP3    H124633   5.715   4.813   2.853
 8237TIP3    H224634   5.847   4.834   2.782
 8238TIP3   OH224635   6.426   5.225   4.431
 8238TIP3    H124636   6.421   5.151   4.496
 8238TIP3    H224637   6.504   5.275   4.461
 8239TIP3   OH224638   6.209   4.914   2.733
 8239TIP3    H124639   6.246   4.846   2.792
 8239TIP3    H224640   6.275   4.915   2.661
 8240TIP3   OH224641   5.437   4.774   4.833
 8240TIP3    H124642   5.486   4.689   4.824
 8240TIP3    H224643   5.350   4.748   4.802
 8241TIP3   OH224644   5.418   4.399   3.043
 8241TIP3    H124645   5.476   4.373   3.117
 8241TIP3    H224646   5.485   4.405   2.971
 8242TIP3   OH224647   6.047   4.844   4.621
 8242TIP3    H124648   5.999   4.866   4.538
 8242TIP3    H224649   6.072   4.750   4.607
 8243TIP3   OH224650   5.924   4.602   2.848
 8243TIP3    H124651   5.929   4.614   2.944
 8243TIP3    H224652   5.928   4.504   2.842
 8244TIP3   OH224653   6.546   4.839   4.213
 8244TIP3    H124654   6.572   4.931   4.203
 8244TIP3    H224655   6.449   4.850   4.230
 8245TIP3   OH224656   5.579   4.519   4.817
 8245TIP3    H124657   5.611   4.428   4.815
 8245TIP3    H224658   5.597   4.542   4.911
 8246TIP3   OH224659   5.618   4.311   3.259
 8246TIP3    H124660   5.591   4.275   3.345
 8246TIP3    H224661   5.657   4.234   3.215
 8247TIP3   OH224662   5.929   4.389   4.477
 8247TIP3    H124663   5.850   4.426   4.518
 8247TIP3    H224664   5.910   4.399   4.383
 8248TIP3   OH224665   5.727   4.104   3.100
 8248TIP3    H124666   5.702   4.115   3.007
 8248TIP3    H224667   5.825   4.108   3.093
 8249TIP3   OH224668   6.418   4.779   4.632
 8249TIP3    H124669   6.473   4.736   4.565
 8249TIP3    H224670   6.401   4.706   4.694
 8250TIP3   OH224671   6.018   4.162   4.613
 8250TIP3    H124672   6.016   4.080   4.559
 8250TIP3    H224673   5.985   4.229   4.550
 8251TIP3   OH224674   6.017   3.947   4.430
 8251TIP3    H124675   6.043   3.979   4.341
 8251TIP3    H224676   5.923   3.921   4.414
 8252TIP3   OH224677   6.627   4.446   4.677
 8252TIP3    H124678   6.675   4.363   4.693
 8252TIP3    H224679   6.697   4.505   4.647
 8253TIP3   OH224680   6.673   4.708   4.420
 8253TIP3    H124681   6.612   4.747   4.354
 8253TIP3    H224682   6.758   4.724   4.373
 8254TIP3   OH224683   5.898   4.265   4.845
 8254TIP3    H124684   5.829   4.198   4.865
 8254TIP3    H224685   5.932   4.232   4.760
 8255TIP3   OH224686   6.151   3.709   4.492
 8255TIP3    H124687   6.099   3.789   4.472
 8255TIP3    H224688   6.083   3.638   4.482
 8256TIP3   OH224689   6.281   4.212   4.699
 8256TIP3    H124690   6.269   4.198   4.795
 8256TIP3    H224691   6.191   4.188   4.669
 8257TIP3   OH224692   6.524   4.154   4.557
 8257TIP3    H124693   6.444   4.161   4.613
 8257TIP3    H224694   6.592   4.126   4.623
 8258TIP3   OH224695   6.757   4.109   4.713
 8258TIP3    H124696   6.766   4.012   4.727
 8258TIP3    H224697   6.747   4.142   4.805
 8259TIP3   OH224698   5.735   4.048   4.904
 8259TIP3    H124699   5.737   3.955   4.872
 8259TIP3    H224700   5.773   4.036   4.993
 8260TIP3   OH224701   6.247   3.725   4.748
 8260TIP3    H124702   6.310   3.650   4.746
 8260TIP3    H224703   6.207   3.716   4.660
 8261TIP3   OH224704   6.315   3.938   4.905
 8261TIP3    H124705   6.294   3.865   4.842
 8261TIP3    H224706   6.234   3.993   4.899
 8262TIP3   OH224707   5.536   5.157   3.013
 8262TIP3    H124708   5.631   5.153   2.991
 8262TIP3    H224709   5.505   5.211   2.938
 8263TIP3   OH224710   5.012   4.547   3.222
 8263TIP3    H124711   5.107   4.568   3.208
 8263TIP3    H224712   5.006   4.458   3.180
 8264TIP3   OH224713   4.933   5.157   3.629
 8264TIP3    H124714   4.862   5.099   3.594
 8264TIP3    H224715   4.974   5.099   3.695
 8265TIP3   OH224716   5.067   5.006   3.818
 8265TIP3    H124717   5.035   4.936   3.877
 8265TIP3    H224718   5.125   5.058   3.876
 8266TIP3   OH224719   6.798   5.401   3.626
 8266TIP3    H124720   6.820   5.440   3.712
 8266TIP3    H224721   6.860   5.445   3.566
 8267TIP3   OH224722   6.824   5.432   3.909
 8267TIP3    H124723   6.772   5.349   3.901
 8267TIP3    H224724   6.894   5.403   3.968
 8268TIP3   OH224725   6.870   5.105   4.479
 8268TIP3    H124726   6.797   5.113   4.544
 8268TIP3    H224727   6.910   5.193   4.484
 8269TIP3   OH224728   6.682   4.615   3.098
 8269TIP3    H124729   6.744   4.683   3.066
 8269TIP3    H224730   6.731   4.580   3.176
 8270TIP3   OH224731   6.810   4.482   3.308
 8270TIP3    H124732   6.745   4.439   3.367
 8270TIP3    H224733   6.876   4.518   3.370
 8271TIP3   OH224734   6.691   5.193   3.930
 8271TIP3    H124735   6.618   5.235   3.979
 8271TIP3    H224736   6.643   5.147   3.858
 8272TIP3   OH224737   6.747   4.394   2.946
 8272TIP3    H124738   6.679   4.391   2.877
 8272TIP3    H224739   6.718   4.472   2.998
 8273TIP3   OH224740   6.617   4.067   2.900
 8273TIP3    H124741   6.578   4.098   2.818
 8273TIP3    H224742   6.595   3.971   2.895
 8274TIP3   OH224743   6.623   4.334   3.462
 8274TIP3    H124744   6.632   4.244   3.425
 8274TIP3    H224745   6.596   4.315   3.553
 8275TIP3   OH224746   6.917   4.767   4.298
 8275TIP3    H124747   6.988   4.700   4.290
 8275TIP3    H224748   6.949   4.840   4.243
 8276TIP3   OH224749   7.098   4.566   4.311
 8276TIP3    H124750   7.023   4.520   4.355
 8276TIP3    H224751   7.171   4.505   4.335
 8277TIP3   OH224752   6.562   3.800   2.888
 8277TIP3    H124753   6.633   3.766   2.945
 8277TIP3    H224754   6.487   3.741   2.906
 8278TIP3   OH224755   6.627   4.068   3.339
 8278TIP3    H124756   6.663   3.978   3.357
 8278TIP3    H224757   6.681   4.093   3.262
 8279TIP3   OH224758   6.776   4.251   3.823
 8279TIP3    H124759   6.864   4.273   3.785
 8279TIP3    H224760   6.794   4.268   3.917
 8280TIP3   OH224761   6.862   4.373   4.062
 8280TIP3    H124762   6.815   4.397   4.143
 8280TIP3    H224763   6.888   4.459   4.024
 8281TIP3   OH224764   5.470   4.101   4.865
 8281TIP3    H124765   5.567   4.094   4.874
 8281TIP3    H224766   5.442   4.016   4.905
 8282TIP3   OH224767   7.303   3.974   4.622
 8282TIP3    H124768   7.364   3.908   4.582
 8282TIP3    H224769   7.274   4.024   4.543
 8283TIP3   OH224770   6.727   3.814   3.381
 8283TIP3    H124771   6.774   3.796   3.465
 8283TIP3    H224772   6.666   3.737   3.378
 8284TIP3   OH224773   5.431   3.798   4.199
 8284TIP3    H124774   5.490   3.720   4.208
 8284TIP3    H224775   5.496   3.869   4.190
 8285TIP3   OH224776   5.225   4.067   4.273
 8285TIP3    H124777   5.274   4.065   4.189
 8285TIP3    H224778   5.278   4.126   4.327
 8286TIP3   OH224779   7.171   4.106   4.421
 8286TIP3    H124780   7.085   4.146   4.446
 8286TIP3    H224781   7.140   4.030   4.368
 8287TIP3   OH224782   6.807   3.739   3.018
 8287TIP3    H124783   6.845   3.671   2.959
 8287TIP3    H224784   6.873   3.811   3.012
 8288TIP3   OH224785   5.215   3.566   3.770
 8288TIP3    H124786   5.124   3.564   3.804
 8288TIP3    H224787   5.207   3.629   3.695
 8289TIP3   OH224788   6.380   5.273   3.283
 8289TIP3    H124789   6.428   5.264   3.198
 8289TIP3    H224790   6.424   5.350   3.322
 8290TIP3   OH224791   5.437   3.650   4.590
 8290TIP3    H124792   5.385   3.646   4.672
 8290TIP3    H224793   5.370   3.689   4.529
 8291TIP3   OH224794   5.462   5.078   4.659
 8291TIP3    H124795   5.381   5.027   4.676
 8291TIP3    H224796   5.514   5.058   4.738
 8292TIP3   OH224797   6.092   5.360   4.356
 8292TIP3    H124798   6.139   5.358   4.441
 8292TIP3    H224799   6.155   5.410   4.300
 8293TIP3   OH224800   6.273   5.509   4.214
 8293TIP3    H124801   6.339   5.457   4.167
 8293TIP3    H224802   6.329   5.566   4.271
 8294TIP3   OH224803   7.071   3.863   4.311
 8294TIP3    H124804   6.981   3.844   4.279
 8294TIP3    H224805   7.111   3.774   4.303
 8295TIP3   OH224806   5.317   5.373   4.245
 8295TIP3    H124807   5.225   5.400   4.229
 8295TIP3    H224808   5.343   5.435   4.314
 8296TIP3   OH224809   5.572   5.384   4.115
 8296TIP3    H124810   5.479   5.374   4.141
 8296TIP3    H224811   5.574   5.346   4.025
 8297TIP3   OH224812   6.021   5.403   3.853
 8297TIP3    H124813   5.929   5.386   3.825
 8297TIP3    H224814   6.010   5.479   3.913
 8298TIP3   OH224815   6.264   5.309   3.940
 8298TIP3    H124816   6.169   5.323   3.921
 8298TIP3    H224817   6.301   5.385   3.893
 8299TIP3   OH224818   6.477   5.510   3.857
 8299TIP3    H124819   6.454   5.592   3.808
 8299TIP3    H224820   6.496   5.447   3.783
 8300TIP3   OH224821   5.252   5.156   3.975
 8300TIP3    H124822   5.256   5.128   4.070
 8300TIP3    H224823   5.343   5.140   3.949
 8301TIP3   OH224824   6.276   3.784   3.932
 8301TIP3    H124825   6.233   3.712   3.982
 8301TIP3    H224826   6.351   3.739   3.890
 8302TIP3   OH224827   6.795   3.669   3.833
 8302TIP3    H124828   6.830   3.721   3.757
 8302TIP3    H224829   6.699   3.688   3.827
 8303TIP3   OH224830   6.893   3.763   3.595
 8303TIP3    H124831   6.968   3.712   3.558
 8303TIP3    H224832   6.927   3.855   3.582
 8304TIP3   OH224833   5.525   3.491   3.943
 8304TIP3    H124834   5.432   3.458   3.948
 8304TIP3    H224835   5.573   3.406   3.940
 8305TIP3   OH224836   5.311   3.363   3.602
 8305TIP3    H124837   5.335   3.420   3.527
 8305TIP3    H224838   5.283   3.429   3.668
 8306TIP3   OH224839   5.972   3.524   3.827
 8306TIP3    H124840   6.026   3.572   3.763
 8306TIP3    H224841   6.000   3.564   3.911
 8307TIP3   OH224842   6.511   3.673   3.809
 8307TIP3    H124843   6.513   3.631   3.722
 8307TIP3    H224844   6.501   3.594   3.867
 8308TIP3   OH224845   6.546   3.599   3.373
 8308TIP3    H124846   6.461   3.644   3.393
 8308TIP3    H224847   6.531   3.513   3.417
 8309TIP3   OH224848   5.026   4.938   3.366
 8309TIP3    H124849   4.938   4.908   3.337
 8309TIP3    H224850   5.019   5.032   3.342
 8310TIP3   OH224851   5.434   3.528   3.357
 8310TIP3    H124852   5.493   3.460   3.323
 8310TIP3    H224853   5.499   3.590   3.396
 8311TIP3   OH224854   5.940   3.700   3.455
 8311TIP3    H124855   6.001   3.656   3.516
 8311TIP3    H224856   5.959   3.794   3.479
 8312TIP3   OH224857   5.804   5.117   2.955
 8312TIP3    H124858   5.891   5.139   2.918
 8312TIP3    H224859   5.780   5.043   2.894
 8313TIP3   OH224860   6.527   5.246   3.049
 8313TIP3    H124861   6.519   5.148   3.043
 8313TIP3    H224862   6.477   5.274   2.970
 8314TIP3   OH224863   5.734   3.775   4.838
 8314TIP3    H124864   5.697   3.704   4.894
 8314TIP3    H224865   5.828   3.773   4.866
 8315TIP3   OH224866   5.985   3.770   4.956
 8315TIP3    H124867   6.069   3.739   4.918
 8315TIP3    H224868   5.971   3.701   5.025
 8316TIP3   OH224869   5.102   4.956   3.008
 8316TIP3    H124870   5.104   4.978   3.102
 8316TIP3    H224871   5.190   4.914   2.994
 8317TIP3   OH224872   6.810   3.837   4.742
 8317TIP3    H124873   6.826   3.805   4.833
 8317TIP3    H224874   6.899   3.829   4.702
 8318TIP3   OH224875   6.743   5.383   4.234
 8318TIP3    H124876   6.663   5.354   4.184
 8318TIP3    H224877   6.724   5.479   4.241
 8319TIP3   OH224878   8.011   4.759   3.000
 8319TIP3    H124879   7.979   4.849   2.977
 8319TIP3    H224880   7.939   4.705   2.963
 8320TIP3   OH224881   8.013   4.761   3.387
 8320TIP3    H124882   8.047   4.728   3.472
 8320TIP3    H224883   7.973   4.681   3.350
 8321TIP3   OH224884   7.306   4.657   3.762
 8321TIP3    H124885   7.341   4.585   3.818
 8321TIP3    H224886   7.388   4.692   3.723
 8322TIP3   OH224887   8.266   5.058   3.062
 8322TIP3    H124888   8.236   5.001   3.133
 8322TIP3    H224889   8.288   5.141   3.111
 8323TIP3   OH224890   7.288   5.066   3.473
 8323TIP3    H124891   7.277   4.968   3.472
 8323TIP3    H224892   7.383   5.073   3.457
 8324TIP3   OH224893   6.989   4.263   3.251
 8324TIP3    H124894   6.939   4.346   3.266
 8324TIP3    H224895   6.920   4.209   3.208
 8325TIP3   OH224896   7.040   4.555   3.446
 8325TIP3    H124897   7.094   4.477   3.472
 8325TIP3    H224898   7.093   4.593   3.374
 8326TIP3   OH224899   7.912   5.520   3.089
 8326TIP3    H124900   7.947   5.451   3.028
 8326TIP3    H224901   7.923   5.477   3.174
 8327TIP3   OH224902   7.808   4.987   3.432
 8327TIP3    H124903   7.849   4.911   3.387
 8327TIP3    H224904   7.891   5.035   3.455
 8328TIP3   OH224905   8.795   4.325   3.437
 8328TIP3    H124906   8.845   4.399   3.475
 8328TIP3    H224907   8.845   4.308   3.356
 8329TIP3   OH224908   8.222   4.484   3.459
 8329TIP3    H124909   8.264   4.398   3.478
 8329TIP3    H224910   8.189   4.467   3.368
 8330TIP3   OH224911   7.566   4.145   3.424
 8330TIP3    H124912   7.545   4.216   3.361
 8330TIP3    H224913   7.517   4.070   3.382
 8331TIP3   OH224914   8.263   4.240   3.049
 8331TIP3    H124915   8.336   4.218   3.110
 8331TIP3    H224916   8.314   4.272   2.972
 8332TIP3   OH224917   7.198   4.347   3.532
 8332TIP3    H124918   7.281   4.324   3.578
 8332TIP3    H224919   7.209   4.292   3.451
 8333TIP3   OH224920   7.630   4.543   3.341
 8333TIP3    H124921   7.726   4.521   3.346
 8333TIP3    H224922   7.593   4.461   3.302
 8334TIP3   OH224923   8.891   4.525   3.615
 8334TIP3    H124924   8.805   4.562   3.589
 8334TIP3    H224925   8.865   4.480   3.697
 8335TIP3   OH224926   7.559   4.129   3.862
 8335TIP3    H124927   7.498   4.163   3.793
 8335TIP3    H224928   7.505   4.144   3.942
 8336TIP3   OH224929   7.893   4.975   2.873
 8336TIP3    H124930   7.863   4.966   2.781
 8336TIP3    H224931   7.849   5.058   2.899
 8337TIP3   OH224932   7.665   4.904   3.651
 8337TIP3    H124933   7.606   4.974   3.685
 8337TIP3    H224934   7.708   4.949   3.575
 8338TIP3   OH224935   8.465   4.231   3.235
 8338TIP3    H124936   8.428   4.209   3.322
 8338TIP3    H224937   8.517   4.310   3.255
 8339TIP3   OH224938   7.432   4.243   3.643
 8339TIP3    H124939   7.496   4.313   3.667
 8339TIP3    H224940   7.480   4.201   3.568
 8340TIP3   OH224941   7.495   5.101   3.754
 8340TIP3    H124942   7.470   5.187   3.715
 8340TIP3    H224943   7.414   5.082   3.806
 8341TIP3   OH224944   6.882   4.787   2.999
 8341TIP3    H124945   6.844   4.802   2.909
 8341TIP3    H224946   6.912   4.877   3.023
 8342TIP3   OH224947   8.314   5.288   3.209
 8342TIP3    H124948   8.230   5.286   3.261
 8342TIP3    H224949   8.322   5.384   3.194
 8343TIP3   OH224950   8.615   4.206   3.603
 8343TIP3    H124951   8.529   4.230   3.564
 8343TIP3    H224952   8.678   4.238   3.534
 8344TIP3   OH224953   7.907   3.842   3.576
 8344TIP3    H124954   7.895   3.748   3.597
 8344TIP3    H224955   7.831   3.881   3.624
 8345TIP3   OH224956   8.017   5.351   2.894
 8345TIP3    H124957   8.068   5.267   2.878
 8345TIP3    H224958   8.082   5.415   2.857
 8346TIP3   OH224959   8.165   5.135   2.817
 8346TIP3    H124960   8.148   5.054   2.766
 8346TIP3    H224961   8.205   5.099   2.899
 8347TIP3   OH224962   8.547   5.219   3.577
 8347TIP3    H124963   8.514   5.158   3.507
 8347TIP3    H224964   8.476   5.288   3.582
 8348TIP3   OH224965   7.845   4.612   2.835
 8348TIP3    H124966   7.765   4.665   2.814
 8348TIP3    H224967   7.890   4.607   2.749
 8349TIP3   OH224968   7.802   4.398   2.542
 8349TIP3    H124969   7.868   4.452   2.590
 8349TIP3    H224970   7.862   4.336   2.494
 8350TIP3   OH224971   8.739   4.863   3.409
 8350TIP3    H124972   8.652   4.911   3.416
 8350TIP3    H224973   8.766   4.890   3.319
 8351TIP3   OH224974   8.188   4.694   2.801
 8351TIP3    H124975   8.135   4.717   2.881
 8351TIP3    H224976   8.273   4.668   2.843
 8352TIP3   OH224977   8.414   4.762   3.707
 8352TIP3    H124978   8.407   4.859   3.705
 8352TIP3    H224979   8.324   4.738   3.676
 8353TIP3   OH224980   7.421   4.690   3.222
 8353TIP3    H124981   7.378   4.632   3.155
 8353TIP3    H224982   7.496   4.634   3.251
 8354TIP3   OH224983   7.549   5.100   3.368
 8354TIP3    H124984   7.530   5.071   3.277
 8354TIP3    H224985   7.638   5.063   3.383
 8355TIP3   OH224986   7.545   4.663   3.579
 8355TIP3    H124987   7.580   4.632   3.493
 8355TIP3    H224988   7.595   4.747   3.593
 8356TIP3   OH224989   8.084   5.303   3.350
 8356TIP3    H124990   8.076   5.389   3.397
 8356TIP3    H224991   8.067   5.238   3.421
 8357TIP3   OH224992   7.687   5.212   3.914
 8357TIP3    H124993   7.622   5.275   3.951
 8357TIP3    H224994   7.629   5.161   3.854
 8358TIP3   OH224995   8.025   4.552   2.628
 8358TIP3    H124996   8.088   4.610   2.678
 8358TIP3    H224997   8.052   4.573   2.535
 8359TIP3   OH224998   7.461   4.773   4.010
 8359TIP3    H124999   7.459   4.862   4.052
 8359TIP3    H225000   7.366   4.753   4.006
 8360TIP3   OH225001   7.774   5.228   2.910
 8360TIP3    H125002   7.859   5.276   2.911
 8360TIP3    H225003   7.717   5.287   2.859
 8361TIP3   OH225004   7.489   5.386   3.989
 8361TIP3    H125005   7.456   5.390   3.897
 8361TIP3    H225006   7.408   5.363   4.039
 8362TIP3   OH225007   8.575   3.822   2.695
 8362TIP3    H125008   8.505   3.818   2.762
 8362TIP3    H225009   8.523   3.812   2.614
 8363TIP3   OH225010   7.287   4.535   3.027
 8363TIP3    H125011   7.220   4.581   2.972
 8363TIP3    H225012   7.251   4.446   3.030
 8364TIP3   OH225013   8.344   5.159   2.228
 8364TIP3    H125014   8.351   5.257   2.219
 8364TIP3    H225015   8.435   5.132   2.202
 8365TIP3   OH225016   7.074   4.902   3.929
 8365TIP3    H125017   7.071   4.884   3.834
 8365TIP3    H225018   7.127   4.827   3.963
 8366TIP3   OH225019   6.931   5.117   3.556
 8366TIP3    H125020   7.028   5.114   3.555
 8366TIP3    H225021   6.913   5.189   3.618
 8367TIP3   OH225022   8.792   5.570   3.612
 8367TIP3    H125023   8.792   5.474   3.630
 8367TIP3    H225024   8.715   5.597   3.669
 8368TIP3   OH225025   7.883   5.332   3.767
 8368TIP3    H125026   7.886   5.428   3.788
 8368TIP3    H225027   7.810   5.300   3.823
 8369TIP3   OH225028   7.658   5.471   2.710
 8369TIP3    H125029   7.612   5.452   2.626
 8369TIP3    H225030   7.624   5.560   2.733
 8370TIP3   OH225031   7.094   5.335   3.096
 8370TIP3    H125032   7.135   5.317   3.183
 8370TIP3    H225033   7.041   5.254   3.084
 8371TIP3   OH225034   7.857   5.378   2.345
 8371TIP3    H125035   7.915   5.307   2.310
 8371TIP3    H225036   7.893   5.387   2.436
 8372TIP3   OH225037   7.909   5.428   2.615
 8372TIP3    H125038   7.821   5.434   2.658
 8372TIP3    H225039   7.962   5.390   2.687
 8373TIP3   OH225040   7.273   5.097   3.918
 8373TIP3    H125041   7.324   5.085   4.000
 8373TIP3    H225042   7.195   5.040   3.934
 8374TIP3   OH225043   7.672   3.923   3.708
 8374TIP3    H125044   7.584   3.892   3.677
 8374TIP3    H225045   7.645   4.002   3.758
 8375TIP3   OH225046   8.210   4.040   3.902
 8375TIP3    H125047   8.281   4.008   3.962
 8375TIP3    H225048   8.129   4.017   3.951
 8376TIP3   OH225049   8.440   4.477   3.819
 8376TIP3    H125050   8.391   4.472   3.903
 8376TIP3    H225051   8.421   4.568   3.788
 8377TIP3   OH225052   8.100   4.598   2.373
 8377TIP3    H125053   8.071   4.571   2.284
 8377TIP3    H225054   8.191   4.628   2.355
 8378TIP3   OH225055   7.820   3.972   2.680
 8378TIP3    H125056   7.785   3.967   2.771
 8378TIP3    H225057   7.780   3.891   2.643
 8379TIP3   OH225058   7.607   4.441   3.726
 8379TIP3    H125059   7.556   4.459   3.807
 8379TIP3    H225060   7.589   4.521   3.673
 8380TIP3   OH225061   7.489   4.327   3.239
 8380TIP3    H125062   7.396   4.300   3.256
 8380TIP3    H225063   7.501   4.286   3.150
 8381TIP3   OH225064   7.981   4.410   2.968
 8381TIP3    H125065   7.931   4.481   2.923
 8381TIP3    H225066   8.037   4.376   2.895
 8382TIP3   OH225067   8.157   4.690   4.057
 8382TIP3    H125068   8.133   4.615   4.116
 8382TIP3    H225069   8.254   4.690   4.065
 8383TIP3   OH225070   8.135   4.436   3.202
 8383TIP3    H125071   8.071   4.461   3.131
 8383TIP3    H225072   8.174   4.358   3.158
 8384TIP3   OH225073   7.425   4.467   3.934
 8384TIP3    H125074   7.467   4.522   4.002
 8384TIP3    H225075   7.413   4.383   3.982
 8385TIP3   OH225076   7.478   3.946   2.643
 8385TIP3    H125077   7.465   3.946   2.740
 8385TIP3    H225078   7.400   3.997   2.615
 8386TIP3   OH225079   7.019   3.989   3.516
 8386TIP3    H125080   7.097   4.018   3.566
 8386TIP3    H225081   7.055   3.956   3.432
 8387TIP3   OH225082   6.981   3.969   3.032
 8387TIP3    H125083   7.025   4.006   2.953
 8387TIP3    H225084   6.919   4.042   3.050
 8388TIP3   OH225085   8.152   4.679   3.628
 8388TIP3    H125086   8.184   4.610   3.566
 8388TIP3    H225087   8.118   4.622   3.701
 8389TIP3   OH225088   7.825   4.146   3.298
 8389TIP3    H125089   7.743   4.144   3.352
 8389TIP3    H225090   7.894   4.136   3.366
 8390TIP3   OH225091   7.251   4.204   3.306
 8390TIP3    H125092   7.157   4.211   3.276
 8390TIP3    H225093   7.274   4.112   3.283
 8391TIP3   OH225094   7.515   4.199   2.999
 8391TIP3    H125095   7.609   4.213   2.975
 8391TIP3    H225096   7.468   4.220   2.915
 8392TIP3   OH225097   8.308   4.222   3.501
 8392TIP3    H125098   8.276   4.235   3.593
 8392TIP3    H225099   8.240   4.161   3.467
 8393TIP3   OH225100   7.369   4.234   2.773
 8393TIP3    H125101   7.299   4.187   2.725
 8393TIP3    H225102   7.421   4.272   2.699
 8394TIP3   OH225103   8.473   5.916   3.723
 8394TIP3    H125104   8.470   5.937   3.627
 8394TIP3    H225105   8.556   5.959   3.749
 8395TIP3   OH225106   7.436   5.024   4.141
 8395TIP3    H125107   7.516   5.053   4.188
 8395TIP3    H225108   7.371   5.023   4.215
 8396TIP3   OH225109   7.898   4.477   3.398
 8396TIP3    H125110   7.969   4.437   3.347
 8396TIP3    H225111   7.903   4.429   3.483
 8397TIP3   OH225112   7.418   3.961   3.282
 8397TIP3    H125113   7.381   3.885   3.331
 8397TIP3    H225114   7.460   3.917   3.207
 8398TIP3   OH225115   7.875   4.377   3.680
 8398TIP3    H125116   7.784   4.409   3.698
 8398TIP3    H225117   7.931   4.437   3.734
 8399TIP3   OH225118   7.613   4.762   2.782
 8399TIP3    H125119   7.541   4.696   2.769
 8399TIP3    H225120   7.591   4.796   2.872
 8400TIP3   OH225121   8.502   4.997   3.407
 8400TIP3    H125122   8.525   5.048   3.326
 8400TIP3    H225123   8.418   4.954   3.381
 8401TIP3   OH225124   8.071   4.072   2.647
 8401TIP3    H125125   7.975   4.055   2.657
 8401TIP3    H225126   8.080   4.166   2.670
 8402TIP3   OH225127   8.037   5.102   3.777
 8402TIP3    H125128   8.019   5.078   3.868
 8402TIP3    H225129   7.988   5.186   3.767
 8403TIP3   OH225130   8.139   4.324   2.750
 8403TIP3    H125131   8.236   4.330   2.759
 8403TIP3    H225132   8.119   4.400   2.692
 8404TIP3   OH225133   7.308   4.787   3.454
 8404TIP3    H125134   7.338   4.763   3.365
 8404TIP3    H225135   7.361   4.727   3.509
 8405TIP3   OH225136   7.758   4.912   2.606
 8405TIP3    H125137   7.709   4.998   2.609
 8405TIP3    H225138   7.705   4.857   2.666
 8406TIP3   OH225139   7.188   4.703   4.078
 8406TIP3    H125140   7.225   4.717   4.167
 8406TIP3    H225141   7.154   4.612   4.089
 8407TIP3   OH225142   7.915   4.825   4.087
 8407TIP3    H125143   7.852   4.765   4.044
 8407TIP3    H225144   8.000   4.784   4.061
 8408TIP3   OH225145   8.558   4.410   2.588
 8408TIP3    H125146   8.526   4.349   2.519
 8408TIP3    H225147   8.552   4.494   2.537
 8409TIP3   OH225148   8.800   5.294   3.647
 8409TIP3    H125149   8.705   5.274   3.631
 8409TIP3    H225150   8.838   5.261   3.563
 8410TIP3   OH225151   8.278   5.233   2.492
 8410TIP3    H125152   8.258   5.160   2.552
 8410TIP3    H225153   8.297   5.187   2.408
 8411TIP3   OH225154   8.274   4.860   3.328
 8411TIP3    H125155   8.180   4.836   3.340
 8411TIP3    H225156   8.306   4.781   3.279
 8412TIP3   OH225157   7.408   5.095   3.091
 8412TIP3    H125158   7.405   5.172   3.030
 8412TIP3    H225159   7.316   5.066   3.090
 8413TIP3   OH225160   6.975   4.394   2.783
 8413TIP3    H125161   7.016   4.480   2.801
 8413TIP3    H225162   6.895   4.399   2.840
 8414TIP3   OH225163   7.536   4.854   3.025
 8414TIP3    H125164   7.506   4.944   3.046
 8414TIP3    H225165   7.500   4.802   3.099
 8415TIP3   OH225166   7.679   5.432   3.547
 8415TIP3    H125167   7.720   5.506   3.497
 8415TIP3    H225168   7.759   5.388   3.582
 8416TIP3   OH225169   7.323   5.333   2.936
 8416TIP3    H125170   7.237   5.339   2.982
 8416TIP3    H225171   7.353   5.426   2.939
 8417TIP3   OH225172   8.060   5.066   3.509
 8417TIP3    H125173   8.058   5.068   3.608
 8417TIP3    H225174   8.138   5.012   3.492
 8418TIP3   OH225175   8.043   4.966   2.393
 8418TIP3    H125176   8.094   4.942   2.473
 8418TIP3    H225177   7.955   4.931   2.417
 8419TIP3   OH225178   8.373   5.434   2.223
 8419TIP3    H125179   8.398   5.492   2.150
 8419TIP3    H225180   8.296   5.483   2.258
 8420TIP3   OH225181   7.395   4.214   4.073
 8420TIP3    H125182   7.297   4.217   4.084
 8420TIP3    H225183   7.420   4.154   4.145
 8421TIP3   OH225184   8.192   4.902   2.617
 8421TIP3    H125185   8.181   4.829   2.682
 8421TIP3    H225186   8.287   4.892   2.596
 8422TIP3   OH225187   7.123   5.297   3.706
 8422TIP3    H125188   7.177   5.223   3.737
 8422TIP3    H225189   7.141   5.364   3.773
 8423TIP3   OH225190   7.403   4.941   2.393
 8423TIP3    H125191   7.413   4.847   2.366
 8423TIP3    H225192   7.381   4.930   2.488
 8424TIP3   OH225193   7.349   4.947   2.664
 8424TIP3    H125194   7.425   4.918   2.717
 8424TIP3    H225195   7.353   5.044   2.673
 8425TIP3   OH225196   7.082   4.641   2.871
 8425TIP3    H125197   7.014   4.684   2.926
 8425TIP3    H225198   7.091   4.707   2.800
 8426TIP3   OH225199   8.235   4.278   3.764
 8426TIP3    H125200   8.319   4.314   3.795
 8426TIP3    H225201   8.225   4.196   3.816
 8427TIP3   OH225202   8.120   4.022   2.931
 8427TIP3    H125203   8.106   4.043   2.837
 8427TIP3    H225204   8.160   4.105   2.964
 8428TIP3   OH225205   7.618   5.143   2.615
 8428TIP3    H125206   7.530   5.167   2.650
 8428TIP3    H225207   7.631   5.215   2.551
 8429TIP3   OH225208   7.800   4.208   3.029
 8429TIP3    H125209   7.865   4.280   3.010
 8429TIP3    H225210   7.808   4.200   3.126
 8430TIP3   OH225211   8.072   4.517   3.832
 8430TIP3    H125212   8.099   4.562   3.915
 8430TIP3    H225213   8.125   4.435   3.834
 8431TIP3   OH225214   7.945   3.928   3.128
 8431TIP3    H125215   7.936   4.007   3.184
 8431TIP3    H225216   8.008   3.961   3.060
 8432TIP3   OH225217   7.364   5.219   2.684
 8432TIP3    H125218   7.332   5.288   2.622
 8432TIP3    H225219   7.344   5.262   2.771
 8433TIP3   OH225220   7.458   3.934   2.920
 8433TIP3    H125221   7.456   4.024   2.958
 8433TIP3    H225222   7.554   3.916   2.927
 8434TIP3   OH225223   8.707   4.417   3.792
 8434TIP3    H125224   8.615   4.445   3.811
 8434TIP3    H225225   8.688   4.344   3.731
 8435TIP3   OH225226   8.357   4.620   3.201
 8435TIP3    H125227   8.280   4.561   3.211
 8435TIP3    H225228   8.426   4.573   3.253
 8436TIP3   OH225229   7.079   4.840   2.672
 8436TIP3    H125230   7.151   4.906   2.677
 8436TIP3    H225231   7.119   4.780   2.605
 8437TIP3   OH225232   7.014   4.123   2.808
 8437TIP3    H125233   7.019   4.221   2.803
 8437TIP3    H225234   6.941   4.106   2.747
 8438TIP3   OH225235   8.334   5.575   3.157
 8438TIP3    H125236   8.290   5.622   3.082
 8438TIP3    H225237   8.427   5.581   3.129
 8439TIP3   OH225238   7.406   3.844   3.678
 8439TIP3    H125239   7.378   3.808   3.591
 8439TIP3    H225240   7.397   3.765   3.736
 8440TIP3   OH225241   6.951   5.072   3.057
 8440TIP3    H125242   6.883   5.095   3.123
 8440TIP3    H225243   6.911   5.111   2.975
 8441TIP3   OH225244   7.107   5.612   4.130
 8441TIP3    H125245   7.192   5.613   4.179
 8441TIP3    H225246   7.086   5.517   4.131
 8442TIP3   OH225247   7.573   5.565   4.183
 8442TIP3    H125248   7.669   5.570   4.184
 8442TIP3    H225249   7.555   5.503   4.110
 8443TIP3   OH225250   7.567   5.142   2.303
 8443TIP3    H125251   7.511   5.070   2.340
 8443TIP3    H225252   7.642   5.091   2.269
 8444TIP3   OH225253   8.213   5.479   3.963
 8444TIP3    H125254   8.227   5.442   3.872
 8444TIP3    H225255   8.294   5.533   3.966
 8445TIP3   OH225256   8.002   5.180   2.219
 8445TIP3    H125257   8.039   5.113   2.281
 8445TIP3    H225258   8.063   5.174   2.143
 8446TIP3   OH225259   7.237   5.015   4.335
 8446TIP3    H125260   7.252   4.919   4.347
 8446TIP3    H225261   7.150   5.016   4.289
 8447TIP3   OH225262   7.213   4.654   2.529
 8447TIP3    H125263   7.273   4.625   2.600
 8447TIP3    H225264   7.275   4.659   2.454
 8448TIP3   OH225265   7.844   5.099   4.104
 8448TIP3    H125266   7.792   5.118   4.023
 8448TIP3    H225267   7.869   5.004   4.093
 8449TIP3   OH225268   7.732   4.860   2.336
 8449TIP3    H125269   7.732   4.871   2.433
 8449TIP3    H225270   7.730   4.762   2.328
 8450TIP3   OH225271   8.354   5.070   3.728
 8450TIP3    H125272   8.416   5.139   3.698
 8450TIP3    H225273   8.272   5.121   3.728
 8451TIP3   OH225274   7.354   4.751   4.309
 8451TIP3    H125275   7.429   4.696   4.284
 8451TIP3    H225276   7.381   4.780   4.399
 8452TIP3   OH225277   7.421   4.566   2.746
 8452TIP3    H125278   7.390   4.523   2.827
 8452TIP3    H225279   7.458   4.491   2.696
 8453TIP3   OH225280   7.690   4.628   3.977
 8453TIP3    H125281   7.613   4.689   3.979
 8453TIP3    H225282   7.741   4.664   3.901
 8454TIP3   OH225283   7.524   4.362   2.587
 8454TIP3    H125284   7.498   4.370   2.493
 8454TIP3    H225285   7.622   4.364   2.579
 8455TIP3   OH225286   8.232   5.052   4.131
 8455TIP3    H125287   8.245   5.003   4.049
 8455TIP3    H225288   8.203   4.982   4.192
 8456TIP3   OH225289   8.337   4.684   2.257
 8456TIP3    H125290   8.319   4.639   2.173
 8456TIP3    H225291   8.304   4.774   2.234
 8457TIP3   OH225292   7.814   4.420   4.100
 8457TIP3    H125293   7.814   4.340   4.042
 8457TIP3    H225294   7.769   4.486   4.042
 8458TIP3   OH225295   7.816   4.209   3.912
 8458TIP3    H125296   7.845   4.245   3.825
 8458TIP3    H225297   7.723   4.183   3.892
 8459TIP3   OH225298   7.840   4.745   3.788
 8459TIP3    H125299   7.924   4.749   3.740
 8459TIP3    H225300   7.783   4.805   3.736
 8460TIP3   OH225301   8.435   4.703   4.168
 8460TIP3    H125302   8.459   4.609   4.167
 8460TIP3    H225303   8.506   4.741   4.222
 8461TIP3   OH225304   7.693   4.524   4.335
 8461TIP3    H125305   7.626   4.454   4.352
 8461TIP3    H225306   7.725   4.498   4.246
 8462TIP3   OH225307   7.948   3.968   3.982
 8462TIP3    H125308   7.897   4.048   3.958
 8462TIP3    H225309   7.881   3.898   3.970
 8463TIP3   OH225310   8.069   4.471   4.195
 8463TIP3    H125311   8.051   4.452   4.289
 8463TIP3    H225312   7.981   4.447   4.157
 8464TIP3   OH225313   8.312   4.436   4.055
 8464TIP3    H125314   8.237   4.422   4.116
 8464TIP3    H225315   8.387   4.396   4.105
 8465TIP3   OH225316   8.538   4.370   4.195
 8465TIP3    H125317   8.552   4.273   4.207
 8465TIP3    H225318   8.540   4.403   4.287
 8466TIP3   OH225319   7.534   4.305   4.390
 8466TIP3    H125320   7.533   4.213   4.357
 8466TIP3    H225321   7.571   4.291   4.480
 8467TIP3   OH225322   8.041   3.979   4.240
 8467TIP3    H125323   8.107   3.907   4.234
 8467TIP3    H225324   8.002   3.973   4.150
 8468TIP3   OH225325   8.111   4.194   4.394
 8468TIP3    H125326   8.090   4.120   4.332
 8468TIP3    H225327   8.030   4.249   4.387
 8469TIP3   OH225328   7.334   5.427   2.500
 8469TIP3    H125329   7.428   5.414   2.477
 8469TIP3    H225330   7.304   5.473   2.420
 8470TIP3   OH225331   6.809   4.802   2.739
 8470TIP3    H125332   6.897   4.819   2.702
 8470TIP3    H225333   6.773   4.737   2.674
 8471TIP3   OH225334   6.732   5.418   3.121
 8471TIP3    H125335   6.665   5.358   3.082
 8471TIP3    H225336   6.774   5.358   3.187
 8472TIP3   OH225337   6.861   5.265   3.312
 8472TIP3    H125338   6.845   5.196   3.378
 8472TIP3    H225339   6.909   5.330   3.366
 8473TIP3   OH225340   8.604   5.625   3.115
 8473TIP3    H125341   8.614   5.661   3.205
 8473TIP3    H225342   8.609   5.708   3.063
 8474TIP3   OH225343   8.611   5.679   3.395
 8474TIP3    H125344   8.540   5.616   3.412
 8474TIP3    H225345   8.677   5.651   3.461
 8475TIP3   OH225346   8.671   5.359   3.975
 8475TIP3    H125347   8.591   5.378   4.028
 8475TIP3    H225348   8.712   5.448   3.970
 8476TIP3   OH225349   8.461   4.873   2.584
 8476TIP3    H125350   8.521   4.941   2.547
 8476TIP3    H225351   8.515   4.840   2.659
 8477TIP3   OH225352   8.595   4.761   2.803
 8477TIP3    H125353   8.523   4.708   2.845
 8477TIP3    H225354   8.613   4.826   2.872
 8478TIP3   OH225355   8.669   5.130   3.223
 8478TIP3    H125356   8.699   5.077   3.149
 8478TIP3    H225357   8.662   5.219   3.182
 8479TIP3   OH225358   8.532   4.640   2.448
 8479TIP3    H125359   8.475   4.643   2.369
 8479TIP3    H225360   8.505   4.724   2.491
 8480TIP3   OH225361   8.342   4.337   2.411
 8480TIP3    H125362   8.396   4.366   2.336
 8480TIP3    H225363   8.352   4.240   2.406
 8481TIP3   OH225364   8.416   4.603   2.932
 8481TIP3    H125365   8.422   4.506   2.915
 8481TIP3    H225366   8.400   4.607   3.028
 8482TIP3   OH225367   7.040   4.666   3.702
 8482TIP3    H125368   7.032   4.643   3.607
 8482TIP3    H225369   7.138   4.669   3.711
 8483TIP3   OH225370   8.717   5.013   3.790
 8483TIP3    H125371   8.786   4.989   3.724
 8483TIP3    H225372   8.664   5.075   3.738
 8484TIP3   OH225373   8.873   4.762   3.839
 8484TIP3    H125374   8.888   4.684   3.782
 8484TIP3    H225375   8.963   4.801   3.833
 8485TIP3   OH225376   8.358   4.053   2.408
 8485TIP3    H125377   8.424   3.983   2.394
 8485TIP3    H225378   8.278   4.011   2.375
 8486TIP3   OH225379   8.418   4.330   2.826
 8486TIP3    H125380   8.456   4.240   2.842
 8486TIP3    H225381   8.468   4.355   2.745
 8487TIP3   OH225382   8.558   4.489   3.338
 8487TIP3    H125383   8.650   4.509   3.310
 8487TIP3    H225384   8.566   4.516   3.431
 8488TIP3   OH225385   8.644   4.643   3.566
 8488TIP3    H125386   8.569   4.683   3.614
 8488TIP3    H225387   8.674   4.717   3.509
 8489TIP3   OH225388   7.269   4.364   4.371
 8489TIP3    H125389   7.367   4.353   4.368
 8489TIP3    H225390   7.242   4.275   4.398
 8490TIP3   OH225391   8.501   4.078   2.881
 8490TIP3    H125392   8.580   4.053   2.931
 8490TIP3    H225393   8.454   3.993   2.872
 8491TIP3   OH225394   7.225   4.055   3.694
 8491TIP3    H125395   7.283   3.976   3.699
 8491TIP3    H225396   7.291   4.125   3.680
 8492TIP3   OH225397   7.029   4.337   3.755
 8492TIP3    H125398   7.069   4.309   3.671
 8492TIP3    H225399   7.087   4.409   3.779
 8493TIP3   OH225400   8.940   4.421   3.942
 8493TIP3    H125401   8.855   4.405   3.896
 8493TIP3    H225402   8.991   4.341   3.920
 8494TIP3   OH225403   7.012   3.833   3.265
 8494TIP3    H125404   6.919   3.823   3.290
 8494TIP3    H225405   7.005   3.889   3.185
 8495TIP3   OH225406   8.167   5.535   2.767
 8495TIP3    H125407   8.220   5.525   2.686
 8495TIP3    H225408   8.219   5.599   2.818
 8496TIP3   OH225409   7.232   3.915   4.079
 8496TIP3    H125410   7.178   3.902   4.158
 8496TIP3    H225411   7.164   3.947   4.016
 8497TIP3   OH225412   7.270   5.334   4.150
 8497TIP3    H125413   7.175   5.316   4.136
 8497TIP3    H225414   7.279   5.321   4.245
 8498TIP3   OH225415   7.457   5.375   3.704
 8498TIP3    H125416   7.407   5.450   3.667
 8498TIP3    H225417   7.542   5.388   3.656
 8499TIP3   OH225418   7.902   5.607   3.842
 8499TIP3    H125419   7.979   5.594   3.899
 8499TIP3    H225420   7.945   5.657   3.770
 8500TIP3   OH225421   8.067   5.753   3.686
 8500TIP3    H125422   8.126   5.695   3.635
 8500TIP3    H225423   8.131   5.808   3.737
 8501TIP3   OH225424   8.810   4.134   3.808
 8501TIP3    H125425   8.732   4.146   3.750
 8501TIP3    H225426   8.829   4.039   3.794
 8502TIP3   OH225427   7.130   5.636   3.722
 8502TIP3    H125428   7.036   5.658   3.701
 8502TIP3    H225429   7.138   5.680   3.808
 8503TIP3   OH225430   7.367   5.613   3.588
 8503TIP3    H125431   7.279   5.624   3.634
 8503TIP3    H225432   7.341   5.596   3.497
 8504TIP3   OH225433   7.772   5.637   3.383
 8504TIP3    H125434   7.715   5.659   3.308
 8504TIP3    H225435   7.788   5.725   3.423
 8505TIP3   OH225436   8.045   5.567   3.423
 8505TIP3    H125437   7.960   5.605   3.396
 8505TIP3    H225438   8.110   5.635   3.399
 8506TIP3   OH225439   8.255   5.767   3.346
 8506TIP3    H125440   8.242   5.847   3.291
 8506TIP3    H225441   8.282   5.700   3.280
 8507TIP3   OH225442   7.040   5.423   3.473
 8507TIP3    H125443   7.067   5.389   3.560
 8507TIP3    H225444   7.106   5.379   3.416
 8508TIP3   OH225445   7.232   5.294   3.332
 8508TIP3    H125446   7.244   5.208   3.379
 8508TIP3    H225447   7.325   5.324   3.324
 8509TIP3   OH225448   7.501   5.392   3.336
 8509TIP3    H125449   7.529   5.302   3.313
 8509TIP3    H225450   7.557   5.405   3.416
 8510TIP3   OH225451   8.071   4.042   3.421
 8510TIP3    H125452   8.030   3.968   3.470
 8510TIP3    H225453   8.145   3.998   3.375
 8511TIP3   OH225454   8.597   3.903   3.299
 8511TIP3    H125455   8.664   3.973   3.314
 8511TIP3    H225456   8.513   3.951   3.301
 8512TIP3   OH225457   7.320   3.748   3.431
 8512TIP3    H125458   7.228   3.715   3.435
 8512TIP3    H225459   7.368   3.662   3.427
 8513TIP3   OH225460   7.113   3.623   3.083
 8513TIP3    H125461   7.140   3.678   3.008
 8513TIP3    H225462   7.085   3.689   3.148
 8514TIP3   OH225463   7.768   3.781   3.314
 8514TIP3    H125464   7.824   3.829   3.250
 8514TIP3    H225465   7.799   3.818   3.398
 8515TIP3   OH225466   8.301   3.933   3.301
 8515TIP3    H125467   8.305   3.891   3.215
 8515TIP3    H225468   8.294   3.855   3.361
 8516TIP3   OH225469   8.349   3.847   2.864
 8516TIP3    H125470   8.263   3.891   2.873
 8516TIP3    H225471   8.330   3.762   2.910
 8517TIP3   OH225472   6.827   5.199   2.853
 8517TIP3    H125473   6.743   5.160   2.822
 8517TIP3    H225474   6.814   5.290   2.821
 8518TIP3   OH225475   7.228   3.778   2.844
 8518TIP3    H125476   7.275   3.715   2.785
 8518TIP3    H225477   7.301   3.832   2.879
 8519TIP3   OH225478   7.735   3.958   2.943
 8519TIP3    H125479   7.796   3.911   3.003
 8519TIP3    H225480   7.757   4.051   2.966
 8520TIP3   OH225481   7.599   5.375   2.442
 8520TIP3    H125482   7.687   5.398   2.405
 8520TIP3    H225483   7.575   5.301   2.382
 8521TIP3   OH225484   8.314   5.498   2.537
 8521TIP3    H125485   8.305   5.400   2.526
 8521TIP3    H225486   8.268   5.529   2.456
 8522TIP3   OH225487   7.528   4.034   4.328
 8522TIP3    H125488   7.492   3.960   4.381
 8522TIP3    H225489   7.622   4.031   4.354
 8523TIP3   OH225490   7.780   4.029   4.442
 8523TIP3    H125491   7.864   4.000   4.402
 8523TIP3    H225492   7.767   3.959   4.510
 8524TIP3   OH225493   6.904   5.221   2.495
 8524TIP3    H125494   6.900   5.227   2.592
 8524TIP3    H225495   6.989   5.172   2.481
 8525TIP3   OH225496   8.591   4.101   4.231
 8525TIP3    H125497   8.612   4.075   4.323
 8525TIP3    H225498   8.681   4.109   4.192
 8526TIP3   OH225499   8.558   5.648   3.729
 8526TIP3    H125500   8.487   5.582   3.711
 8526TIP3    H225501   8.512   5.733   3.720
 8527TIP3   OH225502   8.734   4.523   2.755
 8527TIP3    H125503   8.690   4.609   2.766
 8527TIP3    H225504   8.672   4.479   2.692
 8528TIP3   OH225505   8.647   5.051   2.493
 8528TIP3    H125506   8.683   5.085   2.409
 8528TIP3    H225507   8.712   5.088   2.555
 8529TIP3   OH225508   8.872   5.187   3.406
 8529TIP3    H125509   8.796   5.164   3.349
 8529TIP3    H225510   8.889   5.105   3.455
 8530TIP3   OH225511   8.725   5.382   3.089
 8530TIP3    H125512   8.793   5.423   3.034
 8530TIP3    H225513   8.665   5.458   3.104
 8531TIP3   OH225514   8.909   4.972   3.590
 8531TIP3    H125515   8.986   4.916   3.615
 8531TIP3    H225516   8.859   4.914   3.530
 8532TIP3   OH225517   9.009   5.518   3.249
 8532TIP3    H125518   8.925   5.470   3.257
 8532TIP3    H225519   8.978   5.611   3.246
 8533TIP3   OH225520   8.762   5.328   2.570
 8533TIP3    H125521   8.704   5.365   2.637
 8533TIP3    H225522   8.728   5.371   2.489
 8534TIP3   OH225523   8.894   5.858   3.612
 8534TIP3    H125524   8.951   5.852   3.692
 8534TIP3    H225525   8.869   5.765   3.602
 8535TIP3   OH225526   9.005   5.258   3.835
 8535TIP3    H125527   9.019   5.170   3.799
 8535TIP3    H225528   8.927   5.287   3.782
 8536TIP3   OH225529   8.598   5.080   2.144
 8536TIP3    H125530   8.680   5.098   2.194
 8536TIP3    H225531   8.595   4.983   2.140
 8537TIP3   OH225532   8.518   5.668   2.605
 8537TIP3    H125533   8.448   5.607   2.571
 8537TIP3    H225534   8.561   5.611   2.672
 8538TIP3   OH225535   8.645   5.513   2.792
 8538TIP3    H125536   8.611   5.452   2.859
 8538TIP3    H225537   8.707   5.567   2.845
 8539TIP3   OH225538   8.858   4.899   3.160
 8539TIP3    H125539   8.874   4.867   3.069
 8539TIP3    H225540   8.939   4.950   3.173
 8540TIP3   OH225541   8.807   4.603   3.281
 8540TIP3    H125542   8.849   4.583   3.195
 8540TIP3    H225543   8.795   4.698   3.275
 8541TIP3   OH225544   9.077   5.572   3.645
 8541TIP3    H125545   8.984   5.563   3.622
 8541TIP3    H225546   9.071   5.572   3.743
 8542TIP3   OH225547   8.911   5.857   3.201
 8542TIP3    H125548   8.845   5.879   3.132
 8542TIP3    H225549   8.874   5.907   3.275
 8543TIP3   OH225550   8.866   5.608   2.948
 8543TIP3    H125551   8.834   5.663   3.021
 8543TIP3    H225552   8.894   5.681   2.886
 8544TIP3   OH225553   8.636   5.439   2.343
 8544TIP3    H125554   8.546   5.407   2.323
 8544TIP3    H225555   8.620   5.535   2.344
 8545TIP3   OH225556   8.607   5.433   2.049
 8545TIP3    H125557   8.604   5.472   2.138
 8545TIP3    H225558   8.697   5.398   2.047
 8546TIP3   OH225559   0.462   5.540   4.688
 8546TIP3    H125560   0.430   5.630   4.668
 8546TIP3    H225561   0.389   5.489   4.649
 8547TIP3   OH225562   0.471   5.541   5.080
 8547TIP3    H125563   0.512   5.519   5.166
 8547TIP3    H225564   0.442   5.453   5.052
 8548TIP3   OH225565   0.707   5.851   4.757
 8548TIP3    H125566   0.697   5.776   4.817
 8548TIP3    H225567   0.743   5.920   4.815
 8549TIP3   OH225568   0.395   6.298   4.764
 8549TIP3    H125569   0.401   6.234   4.689
 8549TIP3    H225570   0.465   6.263   4.821
 8550TIP3   OH225571   0.278   5.739   5.101
 8550TIP3    H125572   0.343   5.669   5.081
 8550TIP3    H225573   0.338   5.806   5.138
 8551TIP3   OH225574   1.278   5.090   5.116
 8551TIP3    H125575   1.309   5.174   5.155
 8551TIP3    H225576   1.307   5.100   5.024
 8552TIP3   OH225577   0.685   5.274   5.147
 8552TIP3    H125578   0.724   5.187   5.169
 8552TIP3    H225579   0.645   5.254   5.061
 8553TIP3   OH225580   0.711   5.032   4.731
 8553TIP3    H125581   0.779   5.013   4.801
 8553TIP3    H225582   0.769   5.061   4.659
 8554TIP3   OH225583   1.351   5.300   5.286
 8554TIP3    H125584   1.266   5.345   5.267
 8554TIP3    H225585   1.357   5.316   5.381
 8555TIP3   OH225586   0.339   5.752   4.572
 8555TIP3    H125587   0.326   5.748   4.476
 8555TIP3    H225588   0.300   5.839   4.595
 8556TIP3   OH225589   0.909   5.034   4.914
 8556TIP3    H125590   0.905   4.972   4.987
 8556TIP3    H225591   0.966   5.105   4.948
 8557TIP3   OH225592   0.768   6.099   4.927
 8557TIP3    H125593   0.675   6.087   4.958
 8557TIP3    H225594   0.761   6.183   4.878
 8558TIP3   OH225595   1.070   4.996   5.286
 8558TIP3    H125596   0.981   5.014   5.249
 8558TIP3    H225597   1.129   5.025   5.214
 8559TIP3   OH225598   0.379   4.638   5.278
 8559TIP3    H125599   0.347   4.547   5.288
 8559TIP3    H225600   0.320   4.675   5.211
 8560TIP3   OH225601   0.483   6.126   4.575
 8560TIP3    H125602   0.533   6.043   4.554
 8560TIP3    H225603   0.548   6.193   4.542
 8561TIP3   OH225604   0.620   5.908   4.499
 8561TIP3    H125605   0.625   5.828   4.443
 8561TIP3    H225606   0.655   5.876   4.585
 8562TIP3   OH225607   1.004   6.006   5.263
 8562TIP3    H125608   0.991   5.927   5.205
 8562TIP3    H225609   0.990   6.079   5.199
 8563TIP3   OH225610   0.284   5.400   4.517
 8563TIP3    H125611   0.200   5.428   4.478
 8563TIP3    H225612   0.342   5.396   4.438
 8564TIP3   OH225613   0.277   5.192   4.234
 8564TIP3    H125614   0.348   5.243   4.279
 8564TIP3    H225615   0.331   5.125   4.187
 8565TIP3   OH225616   1.198   5.649   5.114
 8565TIP3    H125617   1.113   5.698   5.115
 8565TIP3    H225618   1.227   5.665   5.022
 8566TIP3   OH225619   0.647   5.485   4.493
 8566TIP3    H125620   0.593   5.503   4.574
 8566TIP3    H225621   0.731   5.455   4.534
 8567TIP3   OH225622   0.876   5.519   5.407
 8567TIP3    H125623   0.872   5.605   5.453
 8567TIP3    H225624   0.791   5.520   5.359
 8568TIP3   OH225625   0.517   6.087   5.040
 8568TIP3    H125626   0.533   6.164   5.098
 8568TIP3    H225627   0.523   6.011   5.103
 8569TIP3   OH225628   0.481   5.352   4.323
 8569TIP3    H125629   0.545   5.406   4.374
 8569TIP3    H225630   0.510   5.371   4.231
 8570TIP3   OH225631   0.241   6.004   4.611
 8570TIP3    H125632   0.333   6.038   4.611
 8570TIP3    H225633   0.196   6.081   4.572
 8571TIP3   OH225634   0.999   4.578   4.369
 8571TIP3    H125635   0.917   4.602   4.417
 8571TIP3    H225636   1.014   4.658   4.316
 8572TIP3   OH225637   0.802   5.946   3.922
 8572TIP3    H125638   0.810   6.041   3.901
 8572TIP3    H225639   0.894   5.914   3.907
 8573TIP3   OH225640   1.236   6.377   5.302
 8573TIP3    H125641   1.257   6.283   5.318
 8573TIP3    H225642   1.154   6.386   5.355
 8574TIP3   OH225643   0.331   6.180   4.023
 8574TIP3    H125644   0.377   6.098   3.994
 8574TIP3    H225645   0.340   6.177   4.120
 8575TIP3   OH225646   0.387   6.210   4.298
 8575TIP3    H125647   0.313   6.217   4.362
 8575TIP3    H225648   0.448   6.155   4.348
 8576TIP3   OH225649   1.129   5.480   5.583
 8576TIP3    H125650   1.047   5.486   5.532
 8576TIP3    H225651   1.148   5.384   5.576
 8577TIP3   OH225652   0.667   4.834   5.592
 8577TIP3    H125653   0.736   4.800   5.653
 8577TIP3    H225654   0.584   4.807   5.637
 8578TIP3   OH225655   0.901   5.258   5.511
 8578TIP3    H125656   0.847   5.254   5.593
 8578TIP3    H225657   0.873   5.342   5.471
 8579TIP3   OH225658   0.561   5.392   4.071
 8579TIP3    H125659   0.526   5.362   3.984
 8579TIP3    H225660   0.650   5.422   4.044
 8580TIP3   OH225661   0.267   4.760   4.364
 8580TIP3    H125662   0.248   4.752   4.460
 8580TIP3    H225663   0.239   4.671   4.335
 8581TIP3   OH225664   0.432   5.203   4.660
 8581TIP3    H125665   0.380   5.269   4.610
 8581TIP3    H225666   0.488   5.164   4.590
 8582TIP3   OH225667   0.624   5.489   5.753
 8582TIP3    H125668   0.591   5.415   5.810
 8582TIP3    H225669   0.720   5.482   5.771
 8583TIP3   OH225670   0.591   5.228   4.890
 8583TIP3    H125671   0.528   5.247   4.817
 8583TIP3    H225672   0.631   5.147   4.852
 8584TIP3   OH225673  -0.065   4.710   4.332
 8584TIP3    H125674  -0.064   4.698   4.429
 8584TIP3    H225675  -0.149   4.756   4.322
 8585TIP3   OH225676   0.603   5.470   5.311
 8585TIP3    H125677   0.638   5.399   5.251
 8585TIP3    H225678   0.580   5.415   5.388
 8586TIP3   OH225679  -0.018   4.966   4.636
 8586TIP3    H125680   0.076   4.966   4.663
 8586TIP3    H225681  -0.028   5.059   4.612
 8587TIP3   OH225682   0.762   5.015   5.206
 8587TIP3    H125683   0.718   5.027   5.292
 8587TIP3    H225684   0.700   4.948   5.166
 8588TIP3   OH225685   0.938   6.698   5.416
 8588TIP3    H125686   0.938   6.714   5.320
 8588TIP3    H225687   1.019   6.745   5.444
 8589TIP3   OH225688   0.371   5.277   5.111
 8589TIP3    H125689   0.410   5.227   5.037
 8589TIP3    H225690   0.369   5.208   5.179
 8590TIP3   OH225691   0.357   5.142   5.386
 8590TIP3    H125692   0.269   5.176   5.359
 8590TIP3    H225693   0.401   5.219   5.425
 8591TIP3   OH225694   0.962   5.790   5.097
 8591TIP3    H125695   0.988   5.839   5.015
 8591TIP3    H225696   0.879   5.745   5.069
 8592TIP3   OH225697   0.518   4.865   4.332
 8592TIP3    H125698   0.423   4.844   4.343
 8592TIP3    H225699   0.524   4.959   4.359
 8593TIP3   OH225700   0.514   5.895   5.480
 8593TIP3    H125701   0.546   5.835   5.549
 8593TIP3    H225702   0.417   5.880   5.486
 8594TIP3   OH225703   0.591   5.115   4.442
 8594TIP3    H125704   0.687   5.112   4.457
 8594TIP3    H225705   0.581   5.193   4.385
 8595TIP3   OH225706   0.207   5.706   4.318
 8595TIP3    H125707   0.159   5.790   4.324
 8595TIP3    H225708   0.144   5.645   4.363
 8596TIP3   OH225709   0.438   5.678   5.690
 8596TIP3    H125710   0.409   5.639   5.604
 8596TIP3    H225711   0.515   5.622   5.712
 8597TIP3   OH225712   0.638   6.163   5.345
 8597TIP3    H125713   0.545   6.140   5.354
 8597TIP3    H225714   0.658   6.195   5.435
 8598TIP3   OH225715   1.028   5.205   4.275
 8598TIP3    H125716   0.965   5.162   4.212
 8598TIP3    H225717   1.030   5.292   4.231
 8599TIP3   OH225718   1.257   6.064   5.350
 8599TIP3    H125719   1.159   6.060   5.346
 8599TIP3    H225720   1.279   6.033   5.260
 8600TIP3   OH225721   0.738   6.019   4.184
 8600TIP3    H125722   0.711   5.943   4.238
 8600TIP3    H225723   0.751   5.979   4.096
 8601TIP3   OH225724   0.727   5.651   5.011
 8601TIP3    H125725   0.636   5.620   5.023
 8601TIP3    H225726   0.767   5.571   4.970
 8602TIP3   OH225727   0.530   5.861   5.198
 8602TIP3    H125728   0.540   5.862   5.295
 8602TIP3    H225729   0.597   5.797   5.171
 8603TIP3   OH225730   0.502   5.754   4.081
 8603TIP3    H125731   0.542   5.727   4.166
 8603TIP3    H225732   0.414   5.712   4.085
 8604TIP3   OH225733   0.771   6.390   5.253
 8604TIP3    H125734   0.703   6.319   5.257
 8604TIP3    H225735   0.737   6.446   5.180
 8605TIP3   OH225736   0.829   6.220   3.899
 8605TIP3    H125737   0.860   6.291   3.841
 8605TIP3    H225738   0.750   6.264   3.937
 8606TIP3   OH225739   0.654   5.694   4.314
 8606TIP3    H125740   0.644   5.619   4.376
 8606TIP3    H225741   0.750   5.684   4.291
 8607TIP3   OH225742   0.679   5.081   5.469
 8607TIP3    H125743   0.772   5.103   5.487
 8607TIP3    H225744   0.670   4.993   5.512
 8608TIP3   OH225745   0.573   4.821   4.610
 8608TIP3    H125746   0.563   4.842   4.516
 8608TIP3    H225747   0.612   4.904   4.646
 8609TIP3   OH225748   0.243   4.993   4.723
 8609TIP3    H125749   0.313   5.060   4.720
 8609TIP3    H225750   0.245   4.964   4.818
 8610TIP3   OH225751   0.533   5.321   5.522
 8610TIP3    H125752   0.557   5.352   5.611
 8610TIP3    H225753   0.578   5.234   5.519
 8611TIP3   OH225754   0.451   4.689   4.825
 8611TIP3    H125755   0.390   4.743   4.881
 8611TIP3    H225756   0.484   4.753   4.759
 8612TIP3   OH225757  -0.049   4.676   4.609
 8612TIP3    H125758  -0.061   4.756   4.663
 8612TIP3    H225759   0.049   4.673   4.608
 8613TIP3   OH225760   1.166   5.212   5.506
 8613TIP3    H125761   1.068   5.215   5.514
 8613TIP3    H225762   1.173   5.155   5.428
 8614TIP3   OH225763   0.815   5.410   4.896
 8614TIP3    H125764   0.740   5.348   4.904
 8614TIP3    H225765   0.886   5.361   4.942
 8615TIP3   OH225766   0.781   6.373   4.840
 8615TIP3    H125767   0.742   6.429   4.770
 8615TIP3    H225768   0.877   6.389   4.824
 8616TIP3   OH225769   0.027   5.917   3.997
 8616TIP3    H125770  -0.028   5.839   3.980
 8616TIP3    H225771   0.101   5.898   3.937
 8617TIP3   OH225772   0.674   6.265   5.602
 8617TIP3    H125773   0.667   6.200   5.675
 8617TIP3    H225774   0.751   6.318   5.630
 8618TIP3   OH225775   0.455   5.962   3.905
 8618TIP3    H125776   0.493   5.897   3.967
 8618TIP3    H225777   0.515   5.956   3.829
 8619TIP3   OH225778   0.231   5.651   4.044
 8619TIP3    H125779   0.214   5.663   4.139
 8619TIP3    H225780   0.225   5.553   4.034
 8620TIP3   OH225781   0.795   5.883   5.404
 8620TIP3    H125782   0.859   5.939   5.358
 8620TIP3    H225783   0.716   5.940   5.407
 8621TIP3   OH225784   0.005   5.142   4.260
 8621TIP3    H125785   0.021   5.077   4.190
 8621TIP3    H225786   0.097   5.173   4.273
 8622TIP3   OH225787   0.685   5.826   5.806
 8622TIP3    H125788   0.754   5.785   5.751
 8622TIP3    H225789   0.671   5.758   5.873
 8623TIP3   OH225790   0.791   5.477   3.948
 8623TIP3    H125791   0.776   5.430   3.863
 8623TIP3    H225792   0.757   5.565   3.922
 8624TIP3   OH225793   0.296   5.196   5.773
 8624TIP3    H125794   0.288   5.103   5.751
 8624TIP3    H225795   0.204   5.226   5.763
 8625TIP3   OH225796   0.248   4.964   5.568
 8625TIP3    H125797   0.305   5.025   5.516
 8625TIP3    H225798   0.194   4.928   5.496
 8626TIP3   OH225799   0.334   5.590   5.453
 8626TIP3    H125800   0.406   5.531   5.424
 8626TIP3    H225801   0.259   5.551   5.405
 8627TIP3   OH225802   0.894   5.486   5.848
 8627TIP3    H125803   0.931   5.396   5.851
 8627TIP3    H225804   0.965   5.534   5.802
 8628TIP3   OH225805   0.919   5.752   5.602
 8628TIP3    H125806   0.866   5.803   5.536
 8628TIP3    H225807   1.009   5.765   5.563
 8629TIP3   OH225808   0.407   4.758   5.670
 8629TIP3    H125809   0.353   4.831   5.634
 8629TIP3    H225810   0.348   4.682   5.653
 8630TIP3   OH225811   0.535   5.268   5.886
 8630TIP3    H125812   0.515   5.237   5.977
 8630TIP3    H225813   0.449   5.248   5.843
 8631TIP3   OH225814   0.771   5.222   5.744
 8631TIP3    H125815   0.695   5.218   5.806
 8631TIP3    H225816   0.844   5.184   5.798
 8632TIP3   OH225817   0.995   5.153   5.892
 8632TIP3    H125818   1.009   5.056   5.902
 8632TIP3    H225819   0.995   5.184   5.984
 8633TIP3   OH225820   0.490   4.762   5.930
 8633TIP3    H125821   0.554   4.688   5.925
 8633TIP3    H225822   0.454   4.760   5.839
 8634TIP3   OH225823   0.579   4.968   6.082
 8634TIP3    H125824   0.554   4.895   6.022
 8634TIP3    H225825   0.501   5.027   6.073
 8635TIP3   OH225826   1.036   6.464   4.804
 8635TIP3    H125827   1.070   6.489   4.891
 8635TIP3    H225828   1.111   6.485   4.746
 8636TIP3   OH225829   1.073   6.474   5.088
 8636TIP3    H125830   1.025   6.388   5.083
 8636TIP3    H225831   1.144   6.448   5.149
 8637TIP3   OH225832   1.119   6.153   5.654
 8637TIP3    H125833   1.048   6.161   5.722
 8637TIP3    H225834   1.160   6.241   5.659
 8638TIP3   OH225835   0.928   5.666   4.278
 8638TIP3    H125836   0.997   5.727   4.244
 8638TIP3    H225837   0.974   5.626   4.355
 8639TIP3   OH225838   1.057   5.535   4.482
 8639TIP3    H125839   0.992   5.488   4.540
 8639TIP3    H225840   1.125   5.564   4.546
 8640TIP3   OH225841   1.115   5.925   4.910
 8640TIP3    H125842   1.170   5.854   4.869
 8640TIP3    H225843   1.114   5.993   4.839
 8641TIP3   OH225844   0.944   6.226   5.101
 8641TIP3    H125845   0.873   6.264   5.157
 8641TIP3    H225846   0.893   6.177   5.033
 8642TIP3   OH225847   0.997   5.441   4.127
 8642TIP3    H125848   0.925   5.438   4.059
 8642TIP3    H225849   0.965   5.516   4.181
 8643TIP3   OH225850   0.854   5.120   4.084
 8643TIP3    H125851   0.837   5.138   3.991
 8643TIP3    H225852   0.834   5.023   4.086
 8644TIP3   OH225853   0.870   5.388   4.625
 8644TIP3    H125854   0.880   5.292   4.613
 8644TIP3    H225855   0.857   5.396   4.722
 8645TIP3   OH225856   1.165   5.809   5.486
 8645TIP3    H125857   1.235   5.742   5.475
 8645TIP3    H225858   1.185   5.873   5.415
 8646TIP3   OH225859   1.352   5.612   5.498
 8646TIP3    H125860   1.275   5.562   5.532
 8646TIP3    H225861   1.425   5.549   5.519
 8647TIP3   OH225862   0.803   4.855   4.083
 8647TIP3    H125863   0.884   4.816   4.120
 8647TIP3    H225864   0.741   4.781   4.081
 8648TIP3   OH225865   0.871   5.107   4.513
 8648TIP3    H125866   0.911   5.018   4.529
 8648TIP3    H225867   0.928   5.137   4.440
 8649TIP3   OH225868   1.028   5.278   5.015
 8649TIP3    H125869   1.113   5.302   4.972
 8649TIP3    H225870   1.046   5.311   5.105
 8650TIP3   OH225871   1.104   5.424   5.246
 8650TIP3    H125872   1.024   5.457   5.292
 8650TIP3    H225873   1.136   5.504   5.201
 8651TIP3   OH225874   1.545   5.013   5.798
 8651TIP3    H125875   1.609   4.948   5.762
 8651TIP3    H225876   1.525   5.067   5.719
 8652TIP3   OH225877   0.973   4.857   4.560
 8652TIP3    H125878   1.023   4.839   4.642
 8652TIP3    H225879   0.914   4.779   4.556
 8653TIP3   OH225880   1.421   5.156   5.595
 8653TIP3    H125881   1.329   5.191   5.601
 8653TIP3    H225882   1.403   5.074   5.545
 8654TIP3   OH225883   1.054   4.783   4.192
 8654TIP3    H125884   1.090   4.713   4.133
 8654TIP3    H225885   1.122   4.853   4.185
 8655TIP3   OH225886   0.638   6.323   4.467
 8655TIP3    H125887   0.667   6.300   4.376
 8655TIP3    H225888   0.703   6.391   4.487
 8656TIP3   OH225889   0.548   6.531   5.406
 8656TIP3    H125890   0.610   6.461   5.380
 8656TIP3    H225891   0.606   6.587   5.462
 8657TIP3   OH225892   1.320   4.911   5.488
 8657TIP3    H125893   1.231   4.895   5.452
 8657TIP3    H225894   1.359   4.821   5.480
 8658TIP3   OH225895   0.523   6.357   5.112
 8658TIP3    H125896   0.427   6.342   5.121
 8658TIP3    H225897   0.530   6.449   5.087
 8659TIP3   OH225898   0.726   6.569   5.030
 8659TIP3    H125899   0.710   6.641   4.966
 8659TIP3    H225900   0.746   6.494   4.969
 8660TIP3   OH225901   0.566   4.843   5.126
 8660TIP3    H125902   0.482   4.805   5.152
 8660TIP3    H225903   0.589   4.789   5.049
 8661TIP3   OH225904   1.052   4.716   5.013
 8661TIP3    H125905   1.086   4.763   4.934
 8661TIP3    H225906   0.955   4.721   4.999
 8662TIP3   OH225907   1.140   4.810   4.774
 8662TIP3    H125908   1.213   4.756   4.736
 8662TIP3    H225909   1.176   4.900   4.758
 8663TIP3   OH225910   0.782   4.712   4.972
 8663TIP3    H125911   0.745   4.674   4.891
 8663TIP3    H225912   0.759   4.642   5.038
 8664TIP3   OH225913   0.792   4.645   4.550
 8664TIP3    H125914   0.706   4.688   4.567
 8664TIP3    H225915   0.779   4.558   4.594
 8665TIP3   OH225916   0.216   4.735   4.635
 8665TIP3    H125917   0.251   4.690   4.714
 8665TIP3    H225918   0.232   4.828   4.661
 8666TIP3   OH225919   0.765   6.286   4.227
 8666TIP3    H125920   0.762   6.188   4.214
 8666TIP3    H225921   0.721   6.317   4.145
 8667TIP3   OH225922   0.261   4.788   6.149
 8667TIP3    H125923   0.306   4.801   6.064
 8667TIP3    H225924   0.314   4.712   6.183
 8668TIP3   OH225925   1.060   4.883   5.918
 8668TIP3    H125926   1.079   4.850   6.008
 8668TIP3    H225927   1.149   4.877   5.876
 8669TIP3   OH225928   0.990   6.428   5.417
 8669TIP3    H125929   0.914   6.400   5.362
 8669TIP3    H225930   0.971   6.524   5.425
 8670TIP3   OH225931   2.264   5.808   4.173
 8670TIP3    H125932   2.229   5.896   4.150
 8670TIP3    H225933   2.190   5.752   4.141
 8671TIP3   OH225934   2.259   5.806   4.567
 8671TIP3    H125935   2.298   5.779   4.652
 8671TIP3    H225936   2.219   5.722   4.537
 8672TIP3   OH225937   1.554   5.689   4.931
 8672TIP3    H125938   1.587   5.625   4.997
 8672TIP3    H225939   1.638   5.729   4.902
 8673TIP3   OH225940   2.507   6.110   4.243
 8673TIP3    H125941   2.489   6.038   4.305
 8673TIP3    H225942   2.538   6.181   4.301
 8674TIP3   OH225943   1.535   6.111   4.649
 8674TIP3    H125944   1.526   6.013   4.648
 8674TIP3    H225945   1.632   6.118   4.635
 8675TIP3   OH225946   1.236   5.310   4.429
 8675TIP3    H125947   1.184   5.391   4.442
 8675TIP3    H225948   1.169   5.254   4.385
 8676TIP3   OH225949   1.295   5.596   4.612
 8676TIP3    H125950   1.343   5.517   4.645
 8676TIP3    H225951   1.350   5.623   4.538
 8677TIP3   OH225952   2.160   6.568   4.263
 8677TIP3    H125953   2.199   6.498   4.206
 8677TIP3    H225954   2.151   6.522   4.347
 8678TIP3   OH225955   2.057   6.032   4.607
 8678TIP3    H125956   2.096   5.952   4.567
 8678TIP3    H225957   2.141   6.078   4.630
 8679TIP3   OH225958   3.075   5.350   4.604
 8679TIP3    H125959   3.106   5.432   4.646
 8679TIP3    H225960   3.098   5.365   4.511
 8680TIP3   OH225961   2.476   5.531   4.634
 8680TIP3    H125962   2.514   5.444   4.656
 8680TIP3    H225963   2.439   5.512   4.545
 8681TIP3   OH225964   1.815   5.189   4.601
 8681TIP3    H125965   1.793   5.262   4.540
 8681TIP3    H225966   1.768   5.115   4.558
 8682TIP3   OH225967   2.508   5.283   4.222
 8682TIP3    H125968   2.578   5.267   4.290
 8682TIP3    H225969   2.562   5.317   4.149
 8683TIP3   OH225970   1.443   5.390   4.711
 8683TIP3    H125971   1.527   5.369   4.757
 8683TIP3    H225972   1.456   5.335   4.630
 8684TIP3   OH225973   1.881   5.593   4.517
 8684TIP3    H125974   1.975   5.568   4.525
 8684TIP3    H225975   1.841   5.509   4.484
 8685TIP3   OH225976   3.150   5.561   4.771
 8685TIP3    H125977   3.063   5.603   4.752
 8685TIP3    H225978   3.155   5.576   4.866
 8686TIP3   OH225979   1.805   5.175   5.040
 8686TIP3    H125980   1.743   5.208   4.972
 8686TIP3    H225981   1.755   5.194   5.122
 8687TIP3   OH225982   2.149   6.025   4.044
 8687TIP3    H125983   2.107   6.007   3.958
 8687TIP3    H225984   2.101   6.106   4.072
 8688TIP3   OH225985   1.914   5.950   4.826
 8688TIP3    H125986   1.852   6.018   4.861
 8688TIP3    H225987   1.956   5.997   4.751
 8689TIP3   OH225988   2.710   5.288   4.403
 8689TIP3    H125989   2.690   5.243   4.486
 8689TIP3    H225990   2.761   5.366   4.433
 8690TIP3   OH225991   1.679   5.287   4.819
 8690TIP3    H125992   1.743   5.357   4.845
 8690TIP3    H225993   1.728   5.245   4.745
 8691TIP3   OH225994   1.742   6.146   4.930
 8691TIP3    H125995   1.714   6.230   4.889
 8691TIP3    H225996   1.663   6.125   4.984
 8692TIP3   OH225997   1.128   5.834   4.165
 8692TIP3    H125998   1.091   5.858   4.077
 8692TIP3    H225999   1.164   5.919   4.196
 8693TIP3   OH226000   2.572   6.353   4.407
 8693TIP3    H126001   2.482   6.343   4.446
 8693TIP3    H226002   2.563   6.439   4.362
 8694TIP3   OH226003   2.865   5.257   4.770
 8694TIP3    H126004   2.778   5.278   4.735
 8694TIP3    H226005   2.926   5.286   4.699
 8695TIP3   OH226006   2.157   4.893   4.755
 8695TIP3    H126007   2.140   4.799   4.776
 8695TIP3    H226008   2.081   4.934   4.802
 8696TIP3   OH226009   2.269   6.396   4.073
 8696TIP3    H126010   2.319   6.313   4.059
 8696TIP3    H226011   2.333   6.460   4.035
 8697TIP3   OH226012   2.416   6.182   3.993
 8697TIP3    H126013   2.379   6.101   3.956
 8697TIP3    H226014   2.456   6.149   4.077
 8698TIP3   OH226015   2.799   6.260   4.750
 8698TIP3    H126016   2.786   6.182   4.691
 8698TIP3    H226017   2.782   6.334   4.688
 8699TIP3   OH226018   2.093   5.658   4.011
 8699TIP3    H126019   2.011   5.707   3.989
 8699TIP3    H226020   2.136   5.651   3.924
 8700TIP3   OH226021   2.049   5.446   3.718
 8700TIP3    H126022   2.118   5.495   3.767
 8700TIP3    H226023   2.105   5.380   3.672
 8701TIP3   OH226024   2.995   5.904   4.599
 8701TIP3    H126025   2.909   5.953   4.602
 8701TIP3    H226026   3.024   5.925   4.508
 8702TIP3   OH226027   2.441   5.741   3.976
 8702TIP3    H126028   2.386   5.764   4.055
 8702TIP3    H226029   2.525   5.714   4.020
 8703TIP3   OH226030   2.673   5.776   4.895
 8703TIP3    H126031   2.667   5.859   4.946
 8703TIP3    H226032   2.586   5.776   4.850
 8704TIP3   OH226033   1.673   5.738   4.398
 8704TIP3    H126034   1.627   5.678   4.335
 8704TIP3    H226035   1.746   5.681   4.430
 8705TIP3   OH226036   1.800   6.147   4.544
 8705TIP3    H126037   1.780   6.113   4.456
 8705TIP3    H226038   1.889   6.110   4.561
 8706TIP3   OH226039   1.794   5.709   4.756
 8706TIP3    H126040   1.830   5.676   4.670
 8706TIP3    H226041   1.847   5.790   4.771
 8707TIP3   OH226042   2.331   6.345   4.528
 8707TIP3    H126043   2.321   6.423   4.586
 8707TIP3    H226044   2.317   6.270   4.589
 8708TIP3   OH226045   1.943   6.263   5.073
 8708TIP3    H126046   1.867   6.319   5.096
 8708TIP3    H226047   1.896   6.199   5.015
 8709TIP3   OH226048   2.277   5.597   3.807
 8709TIP3    H126049   2.337   5.657   3.856
 8709TIP3    H226050   2.304   5.617   3.714
 8710TIP3   OH226051   1.688   5.839   5.161
 8710TIP3    H126052   1.676   5.907   5.228
 8710TIP3    H226053   1.604   5.790   5.171
 8711TIP3   OH226054   2.024   6.273   4.083
 8711TIP3    H126055   2.108   6.322   4.088
 8711TIP3    H226056   1.966   6.334   4.036
 8712TIP3   OH226057   1.725   6.404   5.161
 8712TIP3    H126058   1.721   6.424   5.065
 8712TIP3    H226059   1.631   6.403   5.182
 8713TIP3   OH226060   2.794   4.833   3.857
 8713TIP3    H126061   2.712   4.854   3.906
 8713TIP3    H226062   2.808   4.916   3.807
 8714TIP3   OH226063   1.532   5.582   4.213
 8714TIP3    H126064   1.463   5.616   4.153
 8714TIP3    H226065   1.520   5.486   4.206
 8715TIP3   OH226066   2.596   6.202   3.406
 8715TIP3    H126067   2.605   6.298   3.389
 8715TIP3    H226068   2.689   6.172   3.392
 8716TIP3   OH226069   1.322   5.968   5.106
 8716TIP3    H126070   1.254   5.943   5.040
 8716TIP3    H226071   1.358   5.880   5.132
 8717TIP3   OH226072   1.177   6.155   4.737
 8717TIP3    H126073   1.270   6.135   4.721
 8717TIP3    H226074   1.184   6.227   4.802
 8718TIP3   OH226075   3.035   6.609   4.799
 8718TIP3    H126076   3.036   6.513   4.813
 8718TIP3    H226077   2.952   6.633   4.845
 8719TIP3   OH226078   2.143   6.392   4.932
 8719TIP3    H126079   2.140   6.486   4.962
 8719TIP3    H226080   2.072   6.352   4.986
 8720TIP3   OH226081   1.907   6.518   3.884
 8720TIP3    H126082   1.859   6.497   3.802
 8720TIP3    H226083   1.871   6.604   3.909
 8721TIP3   OH226084   1.343   6.368   4.272
 8721TIP3    H126085   1.388   6.357   4.358
 8721TIP3    H226086   1.298   6.281   4.263
 8722TIP3   OH226087   2.105   6.423   3.522
 8722TIP3    H126088   2.163   6.352   3.486
 8722TIP3    H226089   2.140   6.432   3.613
 8723TIP3   OH226090   2.159   6.471   3.792
 8723TIP3    H126091   2.070   6.480   3.833
 8723TIP3    H226092   2.208   6.429   3.864
 8724TIP3   OH226093   2.924   5.736   5.072
 8724TIP3    H126094   2.840   5.743   5.024
 8724TIP3    H226095   2.943   5.640   5.063
 8725TIP3   OH226096   1.522   6.156   5.101
 8725TIP3    H126097   1.565   6.139   5.186
 8725TIP3    H226098   1.450   6.089   5.101
 8726TIP3   OH226099   1.921   4.968   4.884
 8726TIP3    H126100   1.830   4.942   4.856
 8726TIP3    H226101   1.900   5.048   4.936
 8727TIP3   OH226102   2.458   5.081   5.078
 8727TIP3    H126103   2.528   5.052   5.140
 8727TIP3    H226104   2.376   5.059   5.126
 8728TIP3   OH226105   2.696   5.515   5.002
 8728TIP3    H126106   2.642   5.511   5.084
 8728TIP3    H226107   2.667   5.598   4.960
 8729TIP3   OH226108   2.358   5.639   3.552
 8729TIP3    H126109   2.319   5.617   3.465
 8729TIP3    H226110   2.442   5.680   3.526
 8730TIP3   OH226111   2.062   5.021   3.837
 8730TIP3    H126112   2.039   5.019   3.933
 8730TIP3    H226113   2.029   4.934   3.811
 8731TIP3   OH226114   1.854   5.484   4.901
 8731TIP3    H126115   1.809   5.504   4.986
 8731TIP3    H226116   1.835   5.566   4.850
 8732TIP3   OH226117   1.734   5.380   4.425
 8732TIP3    H126118   1.643   5.345   4.438
 8732TIP3    H226119   1.750   5.352   4.332
 8733TIP3   OH226120   2.230   5.459   4.148
 8733TIP3    H126121   2.178   5.529   4.102
 8733TIP3    H226122   2.283   5.421   4.075
 8734TIP3   OH226123   2.397   5.733   5.234
 8734TIP3    H126124   2.369   5.657   5.291
 8734TIP3    H226125   2.492   5.736   5.255
 8735TIP3   OH226126   2.387   5.482   4.379
 8735TIP3    H126127   2.321   5.505   4.310
 8735TIP3    H226128   2.423   5.401   4.335
 8736TIP3   OH226129   1.684   5.515   5.120
 8736TIP3    H126130   1.752   5.552   5.179
 8736TIP3    H226131   1.665   5.430   5.164
 8737TIP3   OH226132   1.266   5.034   4.694
 8737TIP3    H126133   1.345   5.064   4.744
 8737TIP3    H226134   1.302   5.001   4.610
 8738TIP3   OH226135   1.229   5.010   4.212
 8738TIP3    H126136   1.273   5.045   4.131
 8738TIP3    H226137   1.167   5.083   4.228
 8739TIP3   OH226138   2.400   5.729   4.799
 8739TIP3    H126139   2.432   5.657   4.739
 8739TIP3    H226140   2.369   5.674   4.875
 8740TIP3   OH226141   2.074   5.194   4.480
 8740TIP3    H126142   1.991   5.190   4.532
 8740TIP3    H226143   2.142   5.182   4.549
 8741TIP3   OH226144   1.499   5.247   4.484
 8741TIP3    H126145   1.406   5.252   4.452
 8741TIP3    H226146   1.525   5.156   4.460
 8742TIP3   OH226147   1.769   5.290   4.175
 8742TIP3    H126148   1.858   5.260   4.148
 8742TIP3    H226149   1.715   5.271   4.095
 8743TIP3   OH226150   2.555   5.268   4.679
 8743TIP3    H126151   2.526   5.281   4.772
 8743TIP3    H226152   2.487   5.206   4.647
 8744TIP3   OH226153   1.606   5.287   3.950
 8744TIP3    H126154   1.540   5.229   3.907
 8744TIP3    H226155   1.657   5.317   3.873
 8745TIP3   OH226156   2.733   6.956   4.900
 8745TIP3    H126157   2.730   6.980   4.805
 8745TIP3    H226158   2.814   7.003   4.930
 8746TIP3   OH226159   1.711   6.114   5.353
 8746TIP3    H126160   1.766   6.036   5.371
 8746TIP3    H226161   1.633   6.096   5.410
 8747TIP3   OH226162   2.146   5.526   4.577
 8747TIP3    H126163   2.214   5.475   4.532
 8747TIP3    H226164   2.144   5.483   4.666
 8748TIP3   OH226165   1.666   5.009   4.456
 8748TIP3    H126166   1.632   4.930   4.503
 8748TIP3    H226167   1.702   4.969   4.375
 8749TIP3   OH226168   2.123   5.435   4.846
 8749TIP3    H126169   2.032   5.459   4.873
 8749TIP3    H226170   2.179   5.487   4.907
 8750TIP3   OH226171   1.857   5.808   3.956
 8750TIP3    H126172   1.788   5.738   3.946
 8750TIP3    H226173   1.837   5.840   4.047
 8751TIP3   OH226174   2.758   6.045   4.583
 8751TIP3    H126175   2.782   6.095   4.502
 8751TIP3    H226176   2.674   6.000   4.556
 8752TIP3   OH226177   2.316   5.119   3.822
 8752TIP3    H126178   2.220   5.100   3.829
 8752TIP3    H226179   2.322   5.212   3.852
 8753TIP3   OH226180   2.262   6.127   4.952
 8753TIP3    H126181   2.289   6.097   5.040
 8753TIP3    H226182   2.227   6.216   4.967
 8754TIP3   OH226183   2.385   5.368   3.929
 8754TIP3    H126184   2.481   5.374   3.944
 8754TIP3    H226185   2.366   5.449   3.878
 8755TIP3   OH226186   1.557   5.837   4.629
 8755TIP3    H126187   1.591   5.807   4.542
 8755TIP3    H226188   1.602   5.776   4.689
 8756TIP3   OH226189   2.007   5.956   3.783
 8756TIP3    H126190   1.958   6.042   3.787
 8756TIP3    H226191   1.951   5.900   3.842
 8757TIP3   OH226192   1.431   5.754   5.247
 8757TIP3    H126193   1.449   5.730   5.339
 8757TIP3    H226194   1.366   5.686   5.221
 8758TIP3   OH226195   2.153   5.868   5.268
 8758TIP3    H126196   2.087   5.801   5.242
 8758TIP3    H226197   2.236   5.826   5.237
 8759TIP3   OH226198   2.419   6.395   4.849
 8759TIP3    H126199   2.323   6.387   4.863
 8759TIP3    H226200   2.445   6.444   4.930
 8760TIP3   OH226201   2.827   5.461   3.759
 8760TIP3    H126202   2.765   5.417   3.695
 8760TIP3    H226203   2.823   5.551   3.720
 8761TIP3   OH226204   3.050   6.322   4.837
 8761TIP3    H126205   2.952   6.313   4.831
 8761TIP3    H226206   3.076   6.289   4.748
 8762TIP3   OH226207   2.532   6.278   3.671
 8762TIP3    H126208   2.504   6.208   3.731
 8762TIP3    H226209   2.544   6.230   3.587
 8763TIP3   OH226210   2.525   5.907   4.498
 8763TIP3    H126211   2.432   5.881   4.513
 8763TIP3    H226212   2.560   5.826   4.456
 8764TIP3   OH226213   1.657   6.139   4.266
 8764TIP3    H126214   1.652   6.217   4.208
 8764TIP3    H226215   1.565   6.109   4.266
 8765TIP3   OH226216   1.219   5.438   3.962
 8765TIP3    H126217   1.266   5.520   3.988
 8765TIP3    H226218   1.144   5.438   4.025
 8766TIP3   OH226219   1.786   5.900   4.199
 8766TIP3    H126220   1.755   5.988   4.225
 8766TIP3    H226221   1.754   5.845   4.273
 8767TIP3   OH226222   1.928   6.475   4.727
 8767TIP3    H126223   1.969   6.549   4.677
 8767TIP3    H226224   2.006   6.436   4.769
 8768TIP3   OH226225   1.571   6.377   4.109
 8768TIP3    H126226   1.486   6.384   4.158
 8768TIP3    H226227   1.602   6.469   4.113
 8769TIP3   OH226228   2.311   6.114   4.684
 8769TIP3    H126229   2.300   6.111   4.782
 8769TIP3    H226230   2.385   6.053   4.672
 8770TIP3   OH226231   2.290   6.011   3.570
 8770TIP3    H126232   2.344   5.985   3.649
 8770TIP3    H226233   2.204   5.975   3.596
 8771TIP3   OH226234   2.560   6.643   4.739
 8771TIP3    H126235   2.482   6.585   4.736
 8771TIP3    H226236   2.541   6.705   4.665
 8772TIP3   OH226237   2.626   6.478   3.387
 8772TIP3    H126238   2.663   6.553   3.337
 8772TIP3    H226239   2.545   6.520   3.422
 8773TIP3   OH226240   1.648   5.261   5.257
 8773TIP3    H126241   1.552   5.246   5.265
 8773TIP3    H226242   1.683   5.205   5.328
 8774TIP3   OH226243   2.451   5.941   3.784
 8774TIP3    H126244   2.439   5.875   3.854
 8774TIP3    H226245   2.548   5.935   3.772
 8775TIP3   OH226246   1.357   6.338   4.883
 8775TIP3    H126247   1.412   6.266   4.918
 8775TIP3    H226248   1.382   6.412   4.940
 8776TIP3   OH226249   1.649   5.985   3.571
 8776TIP3    H126250   1.662   5.892   3.543
 8776TIP3    H226251   1.627   5.973   3.666
 8777TIP3   OH226252   1.593   5.991   3.843
 8777TIP3    H126253   1.669   5.959   3.893
 8777TIP3    H226254   1.602   6.089   3.853
 8778TIP3   OH226255   1.329   5.681   4.047
 8778TIP3    H126256   1.261   5.725   4.102
 8778TIP3    H226257   1.343   5.749   3.978
 8779TIP3   OH226258   2.487   5.318   4.940
 8779TIP3    H126259   2.568   5.351   4.981
 8779TIP3    H226260   2.469   5.237   4.992
 8780TIP3   OH226261   2.372   5.063   4.108
 8780TIP3    H126262   2.351   5.087   4.016
 8780TIP3    H226263   2.408   5.147   4.144
 8781TIP3   OH226264   1.865   6.187   3.791
 8781TIP3    H126265   1.779   6.212   3.828
 8781TIP3    H226266   1.877   6.257   3.725
 8782TIP3   OH226267   2.058   5.250   4.211
 8782TIP3    H126268   2.116   5.327   4.196
 8782TIP3    H226269   2.057   5.244   4.309
 8783TIP3   OH226270   2.327   5.568   5.005
 8783TIP3    H126271   2.340   5.611   5.091
 8783TIP3    H226272   2.372   5.482   5.017
 8784TIP3   OH226273   2.200   4.972   4.318
 8784TIP3    H126274   2.184   5.056   4.365
 8784TIP3    H226275   2.256   5.003   4.243
 8785TIP3   OH226276   1.613   6.265   3.860
 8785TIP3    H126277   1.581   6.335   3.799
 8785TIP3    H226278   1.595   6.306   3.948
 8786TIP3   OH226279   2.961   5.468   4.989
 8786TIP3    H126280   2.864   5.472   5.002
 8786TIP3    H226281   2.965   5.408   4.913
 8787TIP3   OH226282   2.611   5.663   4.380
 8787TIP3    H126283   2.534   5.605   4.392
 8787TIP3    H226284   2.681   5.615   4.429
 8788TIP3   OH226285   1.329   5.887   3.848
 8788TIP3    H126286   1.406   5.947   3.857
 8788TIP3    H226287   1.367   5.824   3.782
 8789TIP3   OH226288   1.259   5.165   3.992
 8789TIP3    H126289   1.260   5.262   3.978
 8789TIP3    H226290   1.207   5.133   3.917
 8790TIP3   OH226291   2.581   6.624   4.327
 8790TIP3    H126292   2.539   6.673   4.253
 8790TIP3    H226293   2.676   6.643   4.307
 8791TIP3   OH226294   1.653   4.890   4.855
 8791TIP3    H126295   1.626   4.854   4.768
 8791TIP3    H226296   1.645   4.810   4.912
 8792TIP3   OH226297   1.198   6.117   4.233
 8792TIP3    H126298   1.129   6.138   4.298
 8792TIP3    H226299   1.160   6.157   4.151
 8793TIP3   OH226300   1.353   6.645   5.314
 8793TIP3    H126301   1.437   6.644   5.364
 8793TIP3    H226302   1.326   6.551   5.314
 8794TIP3   OH226303   1.849   6.589   5.361
 8794TIP3    H126304   1.926   6.642   5.388
 8794TIP3    H226305   1.836   6.620   5.270
 8795TIP3   OH226306   1.815   6.185   3.481
 8795TIP3    H126307   1.759   6.113   3.519
 8795TIP3    H226308   1.890   6.134   3.448
 8796TIP3   OH226309   2.467   6.521   5.093
 8796TIP3    H126310   2.462   6.449   5.161
 8796TIP3    H226311   2.547   6.569   5.120
 8797TIP3   OH226312   2.250   6.225   3.396
 8797TIP3    H126313   2.286   6.158   3.457
 8797TIP3    H226314   2.309   6.218   3.319
 8798TIP3   OH226315   1.484   6.057   5.503
 8798TIP3    H126316   1.501   5.962   5.516
 8798TIP3    H226317   1.397   6.055   5.457
 8799TIP3   OH226318   1.462   5.700   3.706
 8799TIP3    H126319   1.516   5.663   3.778
 8799TIP3    H226320   1.530   5.705   3.635
 8800TIP3   OH226321   2.079   6.142   5.287
 8800TIP3    H126322   2.051   6.148   5.194
 8800TIP3    H226323   2.114   6.050   5.291
 8801TIP3   OH226324   1.980   5.906   3.513
 8801TIP3    H126325   1.980   5.915   3.610
 8801TIP3    H226326   1.981   5.808   3.505
 8802TIP3   OH226327   2.584   6.156   4.893
 8802TIP3    H126328   2.660   6.197   4.848
 8802TIP3    H226329   2.514   6.220   4.873
 8803TIP3   OH226330   1.620   5.806   5.477
 8803TIP3    H126331   1.678   5.731   5.460
 8803TIP3    H226332   1.641   5.827   5.571
 8804TIP3   OH226333   1.669   5.607   3.924
 8804TIP3    H126334   1.644   5.560   4.004
 8804TIP3    H226335   1.707   5.534   3.870
 8805TIP3   OH226336   1.932   5.707   5.155
 8805TIP3    H126337   1.852   5.761   5.137
 8805TIP3    H226338   1.989   5.725   5.078
 8806TIP3   OH226339   1.771   5.409   3.761
 8806TIP3    H126340   1.746   5.413   3.667
 8806TIP3    H226341   1.869   5.409   3.755
 8807TIP3   OH226342   2.460   6.079   5.285
 8807TIP3    H126343   2.532   6.040   5.233
 8807TIP3    H226344   2.448   6.013   5.355
 8808TIP3   OH226345   2.589   5.733   3.432
 8808TIP3    H126346   2.569   5.689   3.347
 8808TIP3    H226347   2.555   5.823   3.411
 8809TIP3   OH226348   2.078   5.215   5.046
 8809TIP3    H126349   2.095   5.280   4.977
 8809TIP3    H226350   1.981   5.218   5.054
 8810TIP3   OH226351   2.091   5.782   4.950
 8810TIP3    H126352   2.178   5.790   4.908
 8810TIP3    H226353   2.038   5.849   4.903
 8811TIP3   OH226354   2.671   5.748   5.340
 8811TIP3    H126355   2.712   5.660   5.347
 8811TIP3    H226356   2.742   5.799   5.299
 8812TIP3   OH226357   2.712   6.008   5.080
 8812TIP3    H126358   2.655   6.063   5.020
 8812TIP3    H226359   2.800   6.026   5.041
 8813TIP3   OH226360   2.203   5.002   5.161
 8813TIP3    H126361   2.156   5.079   5.123
 8813TIP3    H226362   2.135   4.932   5.152
 8814TIP3   OH226363   2.310   5.515   5.370
 8814TIP3    H126364   2.324   5.508   5.466
 8814TIP3    H226365   2.213   5.502   5.372
 8815TIP3   OH226366   2.560   5.473   5.231
 8815TIP3    H126367   2.481   5.461   5.288
 8815TIP3    H226368   2.632   5.436   5.286
 8816TIP3   OH226369   2.796   5.411   5.376
 8816TIP3    H126370   2.807   5.314   5.388
 8816TIP3    H226371   2.789   5.443   5.469
 8817TIP3   OH226372   2.289   5.029   5.421
 8817TIP3    H126373   2.359   4.962   5.417
 8817TIP3    H226374   2.250   5.020   5.332
 8818TIP3   OH226375   2.323   5.255   5.571
 8818TIP3    H126376   2.319   5.177   5.511
 8818TIP3    H226377   2.235   5.294   5.556
 8819TIP3   OH226378   1.582   6.474   3.676
 8819TIP3    H126379   1.676   6.459   3.653
 8819TIP3    H226380   1.554   6.520   3.594
 8820TIP3   OH226381   1.059   5.847   3.886
 8820TIP3    H126382   1.154   5.867   3.869
 8820TIP3    H226383   1.051   5.758   3.845
 8821TIP3   OH226384   0.968   6.460   4.308
 8821TIP3    H126385   0.907   6.396   4.264
 8821TIP3    H226386   1.016   6.400   4.369
 8822TIP3   OH226387   1.103   6.306   4.492
 8822TIP3    H126388   1.096   6.234   4.556
 8822TIP3    H226389   1.160   6.368   4.542
 8823TIP3   OH226390   2.836   6.713   4.290
 8823TIP3    H126391   2.865   6.740   4.379
 8823TIP3    H226392   2.907   6.748   4.234
 8824TIP3   OH226393   2.866   6.729   4.573
 8824TIP3    H126394   2.818   6.643   4.568
 8824TIP3    H226395   2.939   6.703   4.630
 8825TIP3   OH226396   2.910   6.408   5.145
 8825TIP3    H126397   2.840   6.417   5.211
 8825TIP3    H226398   2.954   6.495   5.150
 8826TIP3   OH226399   2.729   5.919   3.762
 8826TIP3    H126400   2.796   5.984   3.733
 8826TIP3    H226401   2.773   5.881   3.842
 8827TIP3   OH226402   2.856   5.787   3.968
 8827TIP3    H126403   2.789   5.744   4.026
 8827TIP3    H226404   2.921   5.821   4.032
 8828TIP3   OH226405   2.913   6.182   4.398
 8828TIP3    H126406   2.966   6.112   4.355
 8828TIP3    H226407   2.908   6.250   4.328
 8829TIP3   OH226408   2.738   6.481   4.591
 8829TIP3    H126409   2.666   6.520   4.644
 8829TIP3    H226410   2.690   6.434   4.520
 8830TIP3   OH226411   2.792   5.696   3.612
 8830TIP3    H126412   2.720   5.697   3.545
 8830TIP3    H226413   2.764   5.771   3.668
 8831TIP3   OH226414   2.665   5.365   3.562
 8831TIP3    H126415   2.615   5.399   3.487
 8831TIP3    H226416   2.644   5.270   3.555
 8832TIP3   OH226417   2.667   5.645   4.111
 8832TIP3    H126418   2.673   5.549   4.103
 8832TIP3    H226419   2.652   5.657   4.208
 8833TIP3   OH226420   1.292   5.722   4.860
 8833TIP3    H126421   1.289   5.684   4.770
 8833TIP3    H226422   1.389   5.719   4.878
 8834TIP3   OH226423   2.959   6.070   4.972
 8834TIP3    H126424   3.029   6.001   4.961
 8834TIP3    H226425   2.983   6.134   4.903
 8835TIP3   OH226426   3.141   5.869   4.978
 8835TIP3    H126427   3.065   5.820   5.016
 8835TIP3    H226428   3.214   5.806   4.997
 8836TIP3   OH226429   2.608   5.099   3.543
 8836TIP3    H126430   2.676   5.068   3.605
 8836TIP3    H226431   2.530   5.045   3.566
 8837TIP3   OH226432   2.666   5.362   4.002
 8837TIP3    H126433   2.706   5.273   4.018
 8837TIP3    H226434   2.724   5.394   3.931
 8838TIP3   OH226435   2.823   5.530   4.502
 8838TIP3    H126436   2.909   5.555   4.460
 8838TIP3    H226437   2.839   5.567   4.591
 8839TIP3   OH226438   2.898   5.679   4.730
 8839TIP3    H126439   2.820   5.711   4.780
 8839TIP3    H226440   2.930   5.761   4.687
 8840TIP3   OH226441   1.534   5.410   5.548
 8840TIP3    H126442   1.623   5.387   5.518
 8840TIP3    H226443   1.504   5.323   5.581
 8841TIP3   OH226444   3.348   5.275   5.287
 8841TIP3    H126445   3.409   5.210   5.245
 8841TIP3    H226446   3.317   5.325   5.208
 8842TIP3   OH226447   2.773   5.112   4.041
 8842TIP3    H126448   2.820   5.096   4.126
 8842TIP3    H226449   2.711   5.036   4.041
 8843TIP3   OH226450   1.472   5.099   4.873
 8843TIP3    H126451   1.531   5.021   4.877
 8843TIP3    H226452   1.537   5.170   4.857
 8844TIP3   OH226453   1.272   5.373   4.934
 8844TIP3    H126454   1.320   5.360   4.849
 8844TIP3    H226455   1.321   5.447   4.971
 8845TIP3   OH226456   3.215   5.406   5.088
 8845TIP3    H126457   3.128   5.448   5.103
 8845TIP3    H226458   3.186   5.330   5.033
 8846TIP3   OH226459   2.850   5.042   3.680
 8846TIP3    H126460   2.890   4.973   3.624
 8846TIP3    H226461   2.917   5.113   3.678
 8847TIP3   OH226462   1.261   4.879   4.446
 8847TIP3    H126463   1.167   4.866   4.466
 8847TIP3    H226464   1.256   4.932   4.363
 8848TIP3   OH226465   2.417   6.582   3.944
 8848TIP3    H126466   2.469   6.568   3.862
 8848TIP3    H226467   2.475   6.641   3.994
 8849TIP3   OH226468   1.477   4.950   5.250
 8849TIP3    H126469   1.428   4.947   5.334
 8849TIP3    H226470   1.410   4.987   5.190
 8850TIP3   OH226471   1.711   6.428   4.889
 8850TIP3    H126472   1.660   6.502   4.847
 8850TIP3    H226473   1.793   6.437   4.835
 8851TIP3   OH226474   2.140   6.659   5.012
 8851TIP3    H126475   2.184   6.659   5.100
 8851TIP3    H226476   2.203   6.712   4.960
 8852TIP3   OH226477   2.320   6.813   4.874
 8852TIP3    H126478   2.391   6.763   4.832
 8852TIP3    H226479   2.371   6.871   4.935
 8853TIP3   OH226480   3.117   5.169   4.974
 8853TIP3    H126481   3.027   5.148   4.943
 8853TIP3    H226482   3.159   5.081   4.964
 8854TIP3   OH226483   1.375   6.674   4.906
 8854TIP3    H126484   1.282   6.700   4.886
 8854TIP3    H226485   1.393   6.734   4.980
 8855TIP3   OH226486   1.610   6.649   4.762
 8855TIP3    H126487   1.522   6.662   4.804
 8855TIP3    H226488   1.593   6.680   4.671
 8856TIP3   OH226489   2.033   6.674   4.560
 8856TIP3    H126490   1.965   6.695   4.494
 8856TIP3    H226491   2.047   6.762   4.603
 8857TIP3   OH226492   2.305   6.616   4.612
 8857TIP3    H126493   2.211   6.633   4.591
 8857TIP3    H226494   2.349   6.689   4.566
 8858TIP3   OH226495   2.510   6.806   4.522
 8858TIP3    H126496   2.497   6.890   4.473
 8858TIP3    H226497   2.537   6.745   4.450
 8859TIP3   OH226498   1.281   6.462   4.646
 8859TIP3    H126499   1.310   6.433   4.735
 8859TIP3    H226500   1.354   6.421   4.593
 8860TIP3   OH226501   1.480   6.338   4.508
 8860TIP3    H126502   1.495   6.254   4.556
 8860TIP3    H226503   1.571   6.373   4.501
 8861TIP3   OH226504   1.750   6.428   4.510
 8861TIP3    H126505   1.777   6.336   4.496
 8861TIP3    H226506   1.800   6.448   4.591
 8862TIP3   OH226507   2.322   5.089   4.601
 8862TIP3    H126508   2.277   5.018   4.651
 8862TIP3    H226509   2.390   5.040   4.552
 8863TIP3   OH226510   2.839   4.964   4.490
 8863TIP3    H126511   2.875   5.019   4.417
 8863TIP3    H226512   2.743   4.985   4.486
 8864TIP3   OH226513   2.937   5.067   4.257
 8864TIP3    H126514   3.013   5.015   4.221
 8864TIP3    H226515   2.971   5.158   4.244
 8865TIP3   OH226516   1.568   4.794   4.608
 8865TIP3    H126517   1.475   4.761   4.611
 8865TIP3    H226518   1.616   4.709   4.603
 8866TIP3   OH226519   1.360   4.660   4.272
 8866TIP3    H126520   1.403   4.710   4.201
 8866TIP3    H226521   1.333   4.730   4.334
 8867TIP3   OH226522   2.020   4.831   4.493
 8867TIP3    H126523   2.080   4.875   4.431
 8867TIP3    H226524   2.049   4.868   4.578
 8868TIP3   OH226525   2.558   4.977   4.469
 8868TIP3    H126526   2.549   4.935   4.383
 8868TIP3    H226527   2.546   4.899   4.529
 8869TIP3   OH226528   2.591   4.900   4.037
 8869TIP3    H126529   2.507   4.945   4.057
 8869TIP3    H226530   2.575   4.813   4.080
 8870TIP3   OH226531   1.071   6.243   4.031
 8870TIP3    H126532   0.986   6.207   4.000
 8870TIP3    H226533   1.062   6.335   3.998
 8871TIP3   OH226534   2.014   5.005   4.100
 8871TIP3    H126535   2.024   4.947   4.176
 8871TIP3    H226536   2.030   5.093   4.141
 8872TIP3   OH226537   1.846   6.420   3.617
 8872TIP3    H126538   1.934   6.442   3.581
 8872TIP3    H226539   1.823   6.345   3.557
 8873TIP3   OH226540   2.566   6.544   3.714
 8873TIP3    H126541   2.559   6.446   3.704
 8873TIP3    H226542   2.520   6.574   3.632
 8874TIP3   OH226543   1.760   5.061   5.483
 8874TIP3    H126544   1.744   4.994   5.552
 8874TIP3    H226545   1.849   5.092   5.510
 8875TIP3   OH226546   2.012   5.068   5.608
 8875TIP3    H126547   2.098   5.049   5.568
 8875TIP3    H226548   2.007   5.001   5.678
 8876TIP3   OH226549   1.152   6.262   3.672
 8876TIP3    H126550   1.154   6.272   3.768
 8876TIP3    H226551   1.238   6.216   3.654
 8877TIP3   OH226552   2.855   5.140   5.405
 8877TIP3    H126553   2.870   5.106   5.496
 8877TIP3    H226554   2.944   5.131   5.366
 8878TIP3   OH226555   2.787   6.686   4.899
 8878TIP3    H126556   2.709   6.656   4.848
 8878TIP3    H226557   2.768   6.782   4.906
 8879TIP3   OH226558   4.059   6.063   3.661
 8879TIP3    H126559   4.024   6.151   3.637
 8879TIP3    H226560   3.987   6.006   3.629
 8880TIP3   OH226561   4.056   6.064   4.052
 8880TIP3    H126562   4.092   6.034   4.138
 8880TIP3    H226563   4.019   5.981   4.017
 8881TIP3   OH226564   3.352   5.951   4.413
 8881TIP3    H126565   3.381   5.882   4.475
 8881TIP3    H226566   3.435   5.999   4.400
 8882TIP3   OH226567   4.296   6.361   3.728
 8882TIP3    H126568   4.283   6.280   3.779
 8882TIP3    H226569   4.302   6.427   3.798
 8883TIP3   OH226570   3.329   6.366   4.132
 8883TIP3    H126571   3.321   6.268   4.132
 8883TIP3    H226572   3.426   6.375   4.127
 8884TIP3   OH226573   3.035   5.566   3.913
 8884TIP3    H126574   2.986   5.648   3.933
 8884TIP3    H226575   2.964   5.513   3.873
 8885TIP3   OH226576   3.091   5.853   4.098
 8885TIP3    H126577   3.141   5.775   4.132
 8885TIP3    H226578   3.151   5.887   4.031
 8886TIP3   OH226579   3.855   6.288   4.095
 8886TIP3    H126580   3.896   6.209   4.056
 8886TIP3    H226581   3.937   6.337   4.118
 8887TIP3   OH226582   4.881   5.607   4.086
 8887TIP3    H126583   4.904   5.695   4.119
 8887TIP3    H226584   4.899   5.617   3.991
 8888TIP3   OH226585   4.269   5.785   4.125
 8888TIP3    H126586   4.314   5.700   4.142
 8888TIP3    H226587   4.235   5.770   4.034
 8889TIP3   OH226588   3.609   5.447   4.089
 8889TIP3    H126589   3.590   5.519   4.025
 8889TIP3    H226590   3.560   5.373   4.046
 8890TIP3   OH226591   4.286   5.534   3.740
 8890TIP3    H126592   4.375   5.528   3.782
 8890TIP3    H226593   4.303   5.492   3.654
 8891TIP3   OH226594   3.240   5.647   4.198
 8891TIP3    H126595   3.323   5.628   4.246
 8891TIP3    H226596   3.254   5.592   4.118
 8892TIP3   OH226597   3.677   5.845   3.998
 8892TIP3    H126598   3.772   5.822   4.008
 8892TIP3    H226599   3.640   5.761   3.963
 8893TIP3   OH226600   4.952   5.825   4.260
 8893TIP3    H126601   4.864   5.859   4.235
 8893TIP3    H226602   4.955   5.853   4.352
 8894TIP3   OH226603   3.603   5.431   4.525
 8894TIP3    H126604   3.543   5.466   4.457
 8894TIP3    H226605   3.550   5.445   4.606
 8895TIP3   OH226606   3.941   6.277   3.533
 8895TIP3    H126607   3.903   6.263   3.445
 8895TIP3    H226608   3.900   6.363   3.558
 8896TIP3   OH226609   3.710   6.206   4.315
 8896TIP3    H126610   3.650   6.276   4.351
 8896TIP3    H226611   3.753   6.253   4.241
 8897TIP3   OH226612   4.514   5.545   3.890
 8897TIP3    H126613   4.508   5.492   3.970
 8897TIP3    H226614   4.563   5.624   3.920
 8898TIP3   OH226615   3.475   5.545   4.308
 8898TIP3    H126616   3.538   5.616   4.332
 8898TIP3    H226617   3.525   5.504   4.233
 8899TIP3   OH226618   3.540   6.404   4.417
 8899TIP3    H126619   3.513   6.491   4.382
 8899TIP3    H226620   3.461   6.384   4.472
 8900TIP3   OH226621   2.928   6.092   3.652
 8900TIP3    H126622   2.887   6.120   3.568
 8900TIP3    H226623   2.961   6.177   3.687
 8901TIP3   OH226624   4.658   5.523   4.256
 8901TIP3    H126625   4.567   5.531   4.221
 8901TIP3    H226626   4.713   5.544   4.178
 8902TIP3   OH226627   3.949   5.147   4.236
 8902TIP3    H126628   3.937   5.054   4.262
 8902TIP3    H226629   3.874   5.188   4.285
 8903TIP3   OH226630   4.082   6.678   3.595
 8903TIP3    H126631   4.114   6.589   3.566
 8903TIP3    H226632   4.129   6.734   3.529
 8904TIP3   OH226633   4.197   6.451   3.487
 8904TIP3    H126634   4.169   6.371   3.442
 8904TIP3    H226635   4.243   6.413   3.566
 8905TIP3   OH226636   4.589   6.529   4.223
 8905TIP3    H126637   4.577   6.448   4.170
 8905TIP3    H226638   4.562   6.598   4.157
 8906TIP3   OH226639   3.889   5.915   3.497
 8906TIP3    H126640   3.810   5.967   3.472
 8906TIP3    H226641   3.936   5.906   3.412
 8907TIP3   OH226642   3.841   5.702   3.208
 8907TIP3    H126643   3.911   5.750   3.257
 8907TIP3    H226644   3.896   5.636   3.161
 8908TIP3   OH226645   4.796   6.165   4.090
 8908TIP3    H126646   4.710   6.211   4.094
 8908TIP3    H226647   4.822   6.184   3.997
 8909TIP3   OH226648   4.236   5.997   3.461
 8909TIP3    H126649   4.183   6.018   3.542
 8909TIP3    H226650   4.319   5.966   3.503
 8910TIP3   OH226651   4.469   6.032   4.381
 8910TIP3    H126652   4.464   6.117   4.429
 8910TIP3    H226653   4.383   6.032   4.336
 8911TIP3   OH226654   3.469   5.991   3.885
 8911TIP3    H126655   3.428   5.932   3.817
 8911TIP3    H226656   3.544   5.936   3.916
 8912TIP3   OH226657   3.599   6.407   4.030
 8912TIP3    H126658   3.579   6.369   3.942
 8912TIP3    H226659   3.687   6.369   4.048
 8913TIP3   OH226660   3.598   5.964   4.240
 8913TIP3    H126661   3.633   5.935   4.153
 8913TIP3    H226662   3.645   6.048   4.255
 8914TIP3   OH226663   4.110   6.605   4.001
 8914TIP3    H126664   4.148   6.660   4.070
 8914TIP3    H226665   4.100   6.520   4.050
 8915TIP3   OH226666   3.743   6.519   4.563
 8915TIP3    H126667   3.681   6.580   4.609
 8915TIP3    H226668   3.680   6.465   4.512
 8916TIP3   OH226669   4.065   5.861   3.290
 8916TIP3    H126670   4.130   5.911   3.342
 8916TIP3    H226671   4.096   5.879   3.198
 8917TIP3   OH226672   3.499   6.073   4.670
 8917TIP3    H126673   3.501   6.162   4.710
 8917TIP3    H226674   3.404   6.052   4.681
 8918TIP3   OH226675   3.834   6.532   3.563
 8918TIP3    H126676   3.906   6.592   3.590
 8918TIP3    H226677   3.768   6.591   3.525
 8919TIP3   OH226678   3.535   6.684   4.650
 8919TIP3    H126679   3.500   6.687   4.559
 8919TIP3    H226680   3.454   6.664   4.702
 8920TIP3   OH226681   4.583   5.103   3.350
 8920TIP3    H126682   4.508   5.147   3.395
 8920TIP3    H226683   4.607   5.177   3.290
 8921TIP3   OH226684   3.335   5.836   3.687
 8921TIP3    H126685   3.264   5.876   3.633
 8921TIP3    H226686   3.302   5.746   3.700
 8922TIP3   OH226687   4.393   6.458   2.892
 8922TIP3    H126688   4.402   6.554   2.876
 8922TIP3    H226689   4.485   6.428   2.879
 8923TIP3   OH226690   3.115   6.219   4.596
 8923TIP3    H126691   3.047   6.198   4.529
 8923TIP3    H226692   3.152   6.132   4.618
 8924TIP3   OH226693   2.971   6.413   4.222
 8924TIP3    H126694   3.066   6.401   4.215
 8924TIP3    H226695   2.965   6.487   4.284
 8925TIP3   OH226696   4.832   6.865   4.289
 8925TIP3    H126697   4.824   6.768   4.298
 8925TIP3    H226698   4.747   6.892   4.332
 8926TIP3   OH226699   3.936   6.649   4.419
 8926TIP3    H126700   3.933   6.741   4.452
 8926TIP3    H226701   3.866   6.607   4.473
 8927TIP3   OH226702   3.705   6.776   3.373
 8927TIP3    H126703   3.657   6.756   3.290
 8927TIP3    H226704   3.671   6.863   3.398
 8928TIP3   OH226705   3.140   6.623   3.758
 8928TIP3    H126706   3.185   6.615   3.845
 8928TIP3    H226707   3.092   6.538   3.754
 8929TIP3   OH226708   3.901   6.679   3.008
 8929TIP3    H126709   3.959   6.608   2.973
 8929TIP3    H226710   3.937   6.690   3.099
 8930TIP3   OH226711   3.955   6.727   3.277
 8930TIP3    H126712   3.867   6.738   3.320
 8930TIP3    H226713   4.003   6.678   3.345
 8931TIP3   OH226714   4.725   5.992   4.555
 8931TIP3    H126715   4.639   6.004   4.511
 8931TIP3    H226716   4.737   5.896   4.547
 8932TIP3   OH226717   3.319   6.403   4.580
 8932TIP3    H126718   3.368   6.385   4.662
 8932TIP3    H226719   3.245   6.339   4.587
 8933TIP3   OH226720   3.717   5.225   4.372
 8933TIP3    H126721   3.629   5.194   4.342
 8933TIP3    H226722   3.690   5.304   4.423
 8934TIP3   OH226723   4.253   5.342   4.565
 8934TIP3    H126724   4.322   5.305   4.624
 8934TIP3    H226725   4.170   5.319   4.612
 8935TIP3   OH226726   4.501   5.776   4.494
 8935TIP3    H126727   4.442   5.770   4.572
 8935TIP3    H226728   4.470   5.857   4.449
 8936TIP3   OH226729   4.150   5.897   3.035
 8936TIP3    H126730   4.117   5.871   2.948
 8936TIP3    H226731   4.237   5.935   3.012
 8937TIP3   OH226732   3.866   5.266   3.344
 8937TIP3    H126733   3.833   5.266   3.436
 8937TIP3    H226734   3.826   5.183   3.311
 8938TIP3   OH226735   3.651   5.742   4.388
 8938TIP3    H126736   3.600   5.760   4.470
 8938TIP3    H226737   3.634   5.823   4.336
 8939TIP3   OH226738   3.533   5.628   3.902
 8939TIP3    H126739   3.442   5.600   3.921
 8939TIP3    H226740   3.546   5.586   3.813
 8940TIP3   OH226741   4.019   5.714   3.640
 8940TIP3    H126742   3.974   5.783   3.587
 8940TIP3    H226743   4.082   5.677   3.573
 8941TIP3   OH226744   4.199   5.987   4.715
 8941TIP3    H126745   4.176   5.914   4.777
 8941TIP3    H226746   4.293   5.999   4.737
 8942TIP3   OH226747   4.175   5.746   3.870
 8942TIP3    H126748   4.113   5.765   3.797
 8942TIP3    H226749   4.215   5.664   3.831
 8943TIP3   OH226750   3.470   5.767   4.596
 8943TIP3    H126751   3.501   5.828   4.664
 8943TIP3    H226752   3.457   5.684   4.646
 8944TIP3   OH226753   3.516   5.244   3.306
 8944TIP3    H126754   3.509   5.245   3.403
 8944TIP3    H226755   3.441   5.301   3.282
 8945TIP3   OH226756   3.065   5.290   4.175
 8945TIP3    H126757   3.138   5.322   4.232
 8945TIP3    H226758   3.109   5.258   4.096
 8946TIP3   OH226759   3.026   5.269   3.695
 8946TIP3    H126760   3.072   5.306   3.617
 8946TIP3    H226761   2.965   5.343   3.714
 8947TIP3   OH226762   4.194   5.983   4.289
 8947TIP3    H126763   4.227   5.912   4.229
 8947TIP3    H226764   4.162   5.929   4.363
 8948TIP3   OH226765   3.868   5.443   3.961
 8948TIP3    H126766   3.789   5.444   4.019
 8948TIP3    H226767   3.941   5.437   4.026
 8949TIP3   OH226768   3.296   5.506   3.968
 8949TIP3    H126769   3.202   5.512   3.940
 8949TIP3    H226770   3.320   5.414   3.947
 8950TIP3   OH226771   3.559   5.499   3.662
 8950TIP3    H126772   3.654   5.513   3.644
 8950TIP3    H226773   3.516   5.521   3.577
 8951TIP3   OH226774   4.362   5.527   4.173
 8951TIP3    H126775   4.320   5.538   4.261
 8951TIP3    H226776   4.300   5.466   4.130
 8952TIP3   OH226777   3.412   5.536   3.435
 8952TIP3    H126778   3.341   5.491   3.385
 8952TIP3    H226779   3.464   5.574   3.361
 8953TIP3   OH226780   4.528   7.213   4.388
 8953TIP3    H126781   4.524   7.238   4.294
 8953TIP3    H226782   4.608   7.261   4.418
 8954TIP3   OH226783   3.481   6.326   4.803
 8954TIP3    H126784   3.561   6.353   4.852
 8954TIP3    H226785   3.416   6.321   4.876
 8955TIP3   OH226786   3.943   5.780   4.059
 8955TIP3    H126787   4.016   5.744   4.007
 8955TIP3    H226788   3.950   5.731   4.143
 8956TIP3   OH226789   3.461   5.264   3.945
 8956TIP3    H126790   3.424   5.188   3.995
 8956TIP3    H226791   3.512   5.219   3.876
 8957TIP3   OH226792   3.920   5.677   4.347
 8957TIP3    H126793   3.829   5.711   4.362
 8957TIP3    H226794   3.976   5.739   4.398
 8958TIP3   OH226795   3.653   6.066   3.440
 8958TIP3    H126796   3.583   5.998   3.430
 8958TIP3    H226797   3.635   6.098   3.532
 8959TIP3   OH226798   4.555   6.296   4.076
 8959TIP3    H126799   4.583   6.346   3.997
 8959TIP3    H226800   4.471   6.254   4.046
 8960TIP3   OH226801   4.084   5.413   3.256
 8960TIP3    H126802   4.009   5.368   3.301
 8960TIP3    H226803   4.143   5.434   3.331
 8961TIP3   OH226804   4.056   6.382   4.439
 8961TIP3    H126805   4.087   6.363   4.529
 8961TIP3    H226806   4.017   6.471   4.448
 8962TIP3   OH226807   4.183   5.633   3.438
 8962TIP3    H126808   4.280   5.621   3.447
 8962TIP3    H226809   4.177   5.696   3.364
 8963TIP3   OH226810   3.352   6.090   4.117
 8963TIP3    H126811   3.390   6.060   4.032
 8963TIP3    H226812   3.397   6.032   4.180
 8964TIP3   OH226813   3.802   6.214   3.266
 8964TIP3    H126814   3.753   6.299   3.271
 8964TIP3    H226815   3.748   6.158   3.326
 8965TIP3   OH226816   3.233   6.006   4.734
 8965TIP3    H126817   3.247   5.989   4.829
 8965TIP3    H226818   3.163   5.941   4.713
 8966TIP3   OH226819   3.959   6.124   4.753
 8966TIP3    H126820   3.896   6.064   4.709
 8966TIP3    H226821   4.045   6.086   4.723
 8967TIP3   OH226822   4.212   6.644   4.341
 8967TIP3    H126823   4.116   6.639   4.354
 8967TIP3    H226824   4.239   6.698   4.418
 8968TIP3   OH226825   4.630   5.714   3.240
 8968TIP3    H126826   4.564   5.671   3.181
 8968TIP3    H226827   4.622   5.805   3.204
 8969TIP3   OH226828   4.841   6.572   4.316
 8969TIP3    H126829   4.744   6.569   4.300
 8969TIP3    H226830   4.873   6.545   4.227
 8970TIP3   OH226831   4.326   6.533   3.156
 8970TIP3    H126832   4.301   6.460   3.215
 8970TIP3    H226833   4.341   6.487   3.071
 8971TIP3   OH226834   4.322   6.164   3.984
 8971TIP3    H126835   4.228   6.139   4.000
 8971TIP3    H226836   4.356   6.081   3.943
 8972TIP3   OH226837   3.453   6.394   3.747
 8972TIP3    H126838   3.447   6.474   3.691
 8972TIP3    H226839   3.360   6.371   3.758
 8973TIP3   OH226840   3.017   5.693   3.453
 8973TIP3    H126841   3.061   5.778   3.475
 8973TIP3    H226842   2.940   5.697   3.514
 8974TIP3   OH226843   3.580   6.154   3.685
 8974TIP3    H126844   3.549   6.244   3.708
 8974TIP3    H226845   3.549   6.102   3.761
 8975TIP3   OH226846   3.722   6.731   4.214
 8975TIP3    H126847   3.764   6.805   4.165
 8975TIP3    H226848   3.798   6.692   4.258
 8976TIP3   OH226849   3.367   6.632   3.596
 8976TIP3    H126850   3.283   6.639   3.644
 8976TIP3    H226851   3.399   6.725   3.599
 8977TIP3   OH226852   4.109   6.370   4.169
 8977TIP3    H126853   4.097   6.369   4.267
 8977TIP3    H226854   4.186   6.313   4.160
 8978TIP3   OH226855   4.087   6.267   3.059
 8978TIP3    H126856   4.142   6.242   3.137
 8978TIP3    H226857   4.001   6.232   3.086
 8979TIP3   OH226858   4.333   6.917   4.237
 8979TIP3    H126859   4.346   6.822   4.219
 8979TIP3    H226860   4.355   6.955   4.149
 8980TIP3   OH226861   4.422   6.734   2.874
 8980TIP3    H126862   4.460   6.809   2.825
 8980TIP3    H226863   4.341   6.778   2.908
 8981TIP3   OH226864   3.438   5.514   4.737
 8981TIP3    H126865   3.341   5.515   4.747
 8981TIP3    H226866   3.464   5.454   4.809
 8982TIP3   OH226867   4.248   6.202   3.273
 8982TIP3    H126868   4.234   6.133   3.342
 8982TIP3    H226869   4.345   6.193   3.260
 8983TIP3   OH226870   3.158   6.594   4.372
 8983TIP3    H126871   3.213   6.521   4.406
 8983TIP3    H226872   3.186   6.667   4.429
 8984TIP3   OH226873   3.446   6.242   3.058
 8984TIP3    H126874   3.460   6.149   3.032
 8984TIP3    H226875   3.425   6.232   3.153
 8985TIP3   OH226876   3.390   6.247   3.329
 8985TIP3    H126877   3.467   6.217   3.381
 8985TIP3    H226878   3.397   6.345   3.339
 8986TIP3   OH226879   3.125   5.937   3.534
 8986TIP3    H126880   3.058   5.983   3.589
 8986TIP3    H226881   3.139   6.005   3.465
 8987TIP3   OH226882   4.279   5.583   4.434
 8987TIP3    H126883   4.366   5.609   4.468
 8987TIP3    H226884   4.263   5.499   4.482
 8988TIP3   OH226885   3.660   6.443   3.277
 8988TIP3    H126886   3.573   6.468   3.314
 8988TIP3    H226887   3.674   6.517   3.216
 8989TIP3   OH226888   3.840   5.511   3.693
 8989TIP3    H126889   3.906   5.581   3.674
 8989TIP3    H226890   3.852   5.500   3.790
 8990TIP3   OH226891   4.118   5.822   4.494
 8990TIP3    H126892   4.145   5.869   4.575
 8990TIP3    H226893   4.170   5.739   4.498
 8991TIP3   OH226894   3.998   5.236   3.793
 8991TIP3    H126895   3.978   5.307   3.857
 8991TIP3    H226896   4.072   5.277   3.745
 8992TIP3   OH226897   3.407   6.520   3.347
 8992TIP3    H126898   3.376   6.591   3.286
 8992TIP3    H226899   3.390   6.562   3.434
 8993TIP3   OH226900   3.505   5.235   3.581
 8993TIP3    H126901   3.501   5.324   3.621
 8993TIP3    H226902   3.601   5.217   3.591
 8994TIP3   OH226903   4.761   5.709   4.465
 8994TIP3    H126904   4.666   5.722   4.490
 8994TIP3    H226905   4.747   5.655   4.386
 8995TIP3   OH226906   4.408   5.919   3.869
 8995TIP3    H126907   4.330   5.859   3.874
 8995TIP3    H226908   4.477   5.867   3.915
 8996TIP3   OH226909   3.124   6.143   3.336
 8996TIP3    H126910   3.199   6.206   3.346
 8996TIP3    H226911   3.165   6.082   3.270
 8997TIP3   OH226912   3.062   5.422   3.470
 8997TIP3    H126913   3.066   5.520   3.469
 8997TIP3    H226914   2.978   5.406   3.426
 8998TIP3   OH226915   3.453   5.146   4.341
 8998TIP3    H126916   3.422   5.109   4.255
 8998TIP3    H226917   3.440   5.070   4.401
 8999TIP3   OH226918   2.990   6.367   3.720
 8999TIP3    H126919   2.927   6.393   3.788
 8999TIP3    H226920   2.953   6.409   3.639
 9000TIP3   OH226921   3.153   6.913   4.796
 9000TIP3    H126922   3.239   6.913   4.843
 9000TIP3    H226923   3.134   6.817   4.794
 9001TIP3   OH226924   3.626   6.864   4.840
 9001TIP3    H126925   3.721   6.848   4.846
 9001TIP3    H226926   3.601   6.802   4.769
 9002TIP3   OH226927   3.610   6.443   2.966
 9002TIP3    H126928   3.555   6.371   3.005
 9002TIP3    H226929   3.687   6.391   2.935
 9003TIP3   OH226930   4.264   6.778   4.577
 9003TIP3    H126931   4.260   6.708   4.646
 9003TIP3    H226932   4.342   6.830   4.605
 9004TIP3   OH226933   4.046   6.481   2.882
 9004TIP3    H126934   4.083   6.414   2.944
 9004TIP3    H226935   4.106   6.475   2.806
 9005TIP3   OH226936   3.279   6.314   4.996
 9005TIP3    H126937   3.296   6.218   5.002
 9005TIP3    H226938   3.192   6.315   4.950
 9006TIP3   OH226939   3.259   5.956   3.193
 9006TIP3    H126940   3.316   5.926   3.267
 9006TIP3    H226941   3.326   5.962   3.121
 9007TIP3   OH226942   3.886   6.400   4.770
 9007TIP3    H126943   3.845   6.420   4.684
 9007TIP3    H226944   3.917   6.307   4.759
 9008TIP3   OH226945   3.774   6.159   2.998
 9008TIP3    H126946   3.776   6.171   3.095
 9008TIP3    H226947   3.775   6.061   2.992
 9009TIP3   OH226948   4.383   6.417   4.377
 9009TIP3    H126949   4.456   6.460   4.329
 9009TIP3    H226950   4.312   6.482   4.361
 9010TIP3   OH226951   3.400   6.054   4.980
 9010TIP3    H126952   3.474   6.000   4.951
 9010TIP3    H226953   3.430   6.083   5.069
 9011TIP3   OH226954   3.459   5.868   3.407
 9011TIP3    H126955   3.436   5.829   3.493
 9011TIP3    H226956   3.500   5.793   3.360
 9012TIP3   OH226957   3.735   5.931   4.642
 9012TIP3    H126958   3.656   5.990   4.642
 9012TIP3    H226959   3.785   5.965   4.565
 9013TIP3   OH226960   3.568   5.664   3.250
 9013TIP3    H126961   3.545   5.672   3.155
 9013TIP3    H226962   3.666   5.667   3.245
 9014TIP3   OH226963   4.253   6.333   4.772
 9014TIP3    H126964   4.326   6.296   4.721
 9014TIP3    H226965   4.245   6.268   4.845
 9015TIP3   OH226966   4.384   5.990   2.919
 9015TIP3    H126967   4.365   5.945   2.834
 9015TIP3    H226968   4.350   6.079   2.897
 9016TIP3   OH226969   3.860   5.722   4.764
 9016TIP3    H126970   3.859   5.642   4.706
 9016TIP3    H226971   3.814   5.788   4.707
 9017TIP3   OH226972   3.860   5.510   4.575
 9017TIP3    H126973   3.889   5.548   4.490
 9017TIP3    H226974   3.768   5.485   4.556
 9018TIP3   OH226975   3.883   6.041   4.448
 9018TIP3    H126976   3.969   6.052   4.406
 9018TIP3    H226977   3.827   6.106   4.400
 9019TIP3   OH226978   4.465   6.008   4.824
 9019TIP3    H126979   4.510   5.923   4.833
 9019TIP3    H226980   4.534   6.065   4.787
 9020TIP3   OH226981   4.507   6.265   4.563
 9020TIP3    H126982   4.451   6.321   4.504
 9020TIP3    H226983   4.595   6.284   4.524
 9021TIP3   OH226984   3.738   5.824   5.000
 9021TIP3    H126985   3.671   5.755   5.015
 9021TIP3    H226986   3.770   5.801   4.910
 9022TIP3   OH226987   3.993   5.270   4.645
 9022TIP3    H126988   3.940   5.349   4.622
 9022TIP3    H226989   3.927   5.199   4.633
 9023TIP3   OH226990   4.117   5.769   4.857
 9023TIP3    H126991   4.098   5.752   4.952
 9023TIP3    H226992   4.029   5.747   4.820
 9024TIP3   OH226993   4.358   5.726   4.718
 9024TIP3    H126994   4.280   5.724   4.777
 9024TIP3    H226995   4.429   5.690   4.774
 9025TIP3   OH226996   4.599   5.664   4.865
 9025TIP3    H126997   4.597   5.568   4.882
 9025TIP3    H226998   4.587   5.702   4.955
 9026TIP3   OH226999   3.577   5.606   5.054
 9026TIP3    H127000   3.577   5.514   5.021
 9026TIP3    H227001   3.615   5.592   5.144
 9027TIP3   OH227002   4.082   5.279   4.905
 9027TIP3    H127003   4.148   5.206   4.899
 9027TIP3    H227004   4.044   5.275   4.815
 9028TIP3   OH227005   4.154   5.494   5.057
 9028TIP3    H127006   4.132   5.421   4.995
 9028TIP3    H227007   4.074   5.551   5.051
 9029TIP3   OH227008   3.378   6.728   3.162
 9029TIP3    H127009   3.472   6.714   3.140
 9029TIP3    H227010   3.350   6.776   3.082
 9030TIP3   OH227011   2.854   6.106   3.370
 9030TIP3    H127012   2.950   6.126   3.357
 9030TIP3    H227013   2.848   6.017   3.330
 9031TIP3   OH227014   2.770   6.716   3.792
 9031TIP3    H127015   2.705   6.654   3.752
 9031TIP3    H227016   2.815   6.656   3.856
 9032TIP3   OH227017   2.903   6.561   3.978
 9032TIP3    H127018   2.893   6.491   4.045
 9032TIP3    H227019   2.957   6.624   4.029
 9033TIP3   OH227020   4.615   7.022   3.754
 9033TIP3    H127021   4.637   6.988   3.842
 9033TIP3    H227022   4.701   7.022   3.710
 9034TIP3   OH227023   4.667   7.005   4.057
 9034TIP3    H127024   4.611   6.925   4.039
 9034TIP3    H227025   4.731   6.965   4.117
 9035TIP3   OH227026   4.709   6.663   4.634
 9035TIP3    H127027   4.636   6.673   4.699
 9035TIP3    H227028   4.750   6.752   4.637
 9036TIP3   OH227029   4.525   6.176   3.249
 9036TIP3    H127030   4.593   6.240   3.219
 9036TIP3    H227031   4.568   6.138   3.329
 9037TIP3   OH227032   4.650   6.045   3.455
 9037TIP3    H127033   4.583   5.998   3.511
 9037TIP3    H227034   4.713   6.078   3.522
 9038TIP3   OH227035   4.707   6.435   3.894
 9038TIP3    H127036   4.754   6.377   3.832
 9038TIP3    H227037   4.679   6.509   3.837
 9039TIP3   OH227038   4.588   5.953   3.098
 9039TIP3    H127039   4.515   5.954   3.032
 9039TIP3    H227040   4.560   6.027   3.155
 9040TIP3   OH227041   4.462   5.620   3.045
 9040TIP3    H127042   4.407   5.649   2.971
 9040TIP3    H227043   4.443   5.524   3.045
 9041TIP3   OH227044   4.462   5.898   3.594
 9041TIP3    H127045   4.463   5.802   3.577
 9041TIP3    H227046   4.449   5.902   3.691
 9042TIP3   OH227047   3.088   5.976   4.347
 9042TIP3    H127048   3.085   5.940   4.256
 9042TIP3    H227049   3.185   5.976   4.364
 9043TIP3   OH227050   4.754   6.329   4.457
 9043TIP3    H127051   4.825   6.262   4.441
 9043TIP3    H227052   4.776   6.398   4.392
 9044TIP3   OH227053   4.941   6.130   4.460
 9044TIP3    H127054   4.864   6.082   4.499
 9044TIP3    H227055   5.012   6.065   4.481
 9045TIP3   OH227056   4.414   5.349   3.034
 9045TIP3    H127057   4.480   5.330   3.104
 9045TIP3    H227058   4.334   5.310   3.071
 9046TIP3   OH227059   4.462   5.632   3.482
 9046TIP3    H127060   4.449   5.534   3.485
 9046TIP3    H227061   4.532   5.637   3.416
 9047TIP3   OH227062   4.622   5.786   3.992
 9047TIP3    H127063   4.708   5.810   3.949
 9047TIP3    H227064   4.637   5.826   4.080
 9048TIP3   OH227065   4.697   5.937   4.217
 9048TIP3    H127066   4.619   5.969   4.266
 9048TIP3    H227067   4.729   6.020   4.175
 9049TIP3   OH227068   3.311   5.663   5.030
 9049TIP3    H127069   3.408   5.653   5.030
 9049TIP3    H227070   3.285   5.574   5.062
 9050TIP3   OH227071   5.158   5.537   4.775
 9050TIP3    H127072   5.200   5.459   4.733
 9050TIP3    H227073   5.104   5.572   4.701
 9051TIP3   OH227074   3.269   5.354   4.350
 9051TIP3    H127075   3.330   5.278   4.359
 9051TIP3    H227076   3.333   5.427   4.342
 9052TIP3   OH227077   3.068   5.626   4.421
 9052TIP3    H127078   3.119   5.621   4.337
 9052TIP3    H227079   3.103   5.706   4.461
 9053TIP3   OH227080   5.011   5.671   4.583
 9053TIP3    H127081   4.936   5.705   4.636
 9053TIP3    H227082   4.965   5.653   4.499
 9054TIP3   OH227083   4.659   5.299   3.167
 9054TIP3    H127084   4.695   5.230   3.107
 9054TIP3    H227085   4.725   5.370   3.160
 9055TIP3   OH227086   3.056   5.125   3.922
 9055TIP3    H127087   2.965   5.122   3.955
 9055TIP3    H227088   3.048   5.186   3.846
 9056TIP3   OH227089   4.228   6.834   3.431
 9056TIP3    H127090   4.266   6.815   3.343
 9056TIP3    H227091   4.287   6.904   3.461
 9057TIP3   OH227092   3.278   5.220   4.742
 9057TIP3    H127093   3.224   5.204   4.821
 9057TIP3    H227094   3.210   5.249   4.679
 9058TIP3   OH227095   3.314   6.643   4.813
 9058TIP3    H127096   3.221   6.616   4.798
 9058TIP3    H227097   3.327   6.618   4.905
 9059TIP3   OH227098   3.495   6.675   4.365
 9059TIP3    H127099   3.449   6.752   4.325
 9059TIP3    H227100   3.581   6.687   4.320
 9060TIP3   OH227101   3.936   6.917   4.499
 9060TIP3    H127102   3.978   6.915   4.588
 9060TIP3    H227103   4.005   6.965   4.448
 9061TIP3   OH227104   4.121   7.062   4.355
 9061TIP3    H127105   4.196   7.010   4.320
 9061TIP3    H227106   4.169   7.122   4.416
 9062TIP3   OH227107   3.169   6.930   4.387
 9062TIP3    H127108   3.078   6.961   4.367
 9062TIP3    H227109   3.184   6.974   4.472
 9063TIP3   OH227110   3.406   6.909   4.247
 9063TIP3    H127111   3.318   6.920   4.290
 9063TIP3    H227112   3.387   6.938   4.156
 9064TIP3   OH227113   3.819   6.941   4.048
 9064TIP3    H127114   3.748   6.959   3.983
 9064TIP3    H227115   3.834   7.030   4.087
 9065TIP3   OH227116   4.095   6.908   3.999
 9065TIP3    H127117   4.002   6.909   4.031
 9065TIP3    H227118   4.142   6.952   4.071
 9066TIP3   OH227119   4.346   7.073   3.997
 9066TIP3    H127120   4.308   7.152   3.952
 9066TIP3    H227121   4.400   7.033   3.928
 9067TIP3   OH227122   3.081   6.720   4.133
 9067TIP3    H127123   3.108   6.691   4.222
 9067TIP3    H227124   3.153   6.677   4.081
 9068TIP3   OH227125   3.278   6.594   3.993
 9068TIP3    H127126   3.292   6.510   4.041
 9068TIP3    H227127   3.370   6.628   3.989
 9069TIP3   OH227128   3.546   6.686   3.996
 9069TIP3    H127129   3.575   6.594   3.984
 9069TIP3    H227130   3.595   6.707   4.078
 9070TIP3   OH227131   4.112   5.340   4.078
 9070TIP3    H127132   4.075   5.266   4.129
 9070TIP3    H227133   4.191   5.299   4.036
 9071TIP3   OH227134   4.633   5.236   3.999
 9071TIP3    H127135   4.676   5.280   3.921
 9071TIP3    H227136   4.538   5.250   3.981
 9072TIP3   OH227137   4.753   5.320   3.771
 9072TIP3    H127138   4.815   5.275   3.710
 9072TIP3    H227139   4.760   5.412   3.739
 9073TIP3   OH227140   3.364   5.051   4.093
 9073TIP3    H127141   3.272   5.018   4.098
 9073TIP3    H227142   3.413   4.966   4.088
 9074TIP3   OH227143   3.153   4.923   3.745
 9074TIP3    H127144   3.183   4.981   3.673
 9074TIP3    H227145   3.126   4.988   3.813
 9075TIP3   OH227146   3.811   5.089   3.980
 9075TIP3    H127147   3.870   5.131   3.915
 9075TIP3    H227148   3.847   5.123   4.063
 9076TIP3   OH227149   4.349   5.233   3.960
 9076TIP3    H127150   4.359   5.199   3.871
 9076TIP3    H227151   4.338   5.151   4.013
 9077TIP3   OH227152   2.868   6.498   3.518
 9077TIP3    H127153   2.783   6.464   3.487
 9077TIP3    H227154   2.859   6.592   3.491
 9078TIP3   OH227155   3.274   5.081   3.504
 9078TIP3    H127156   3.323   5.018   3.448
 9078TIP3    H227157   3.347   5.135   3.540
 9079TIP3   OH227158   3.782   5.258   3.609
 9079TIP3    H127159   3.847   5.214   3.666
 9079TIP3    H227160   3.801   5.351   3.632
 9080TIP3   OH227161   3.643   6.676   3.105
 9080TIP3    H127162   3.731   6.699   3.069
 9080TIP3    H227163   3.620   6.602   3.045
 9081TIP3   OH227164   4.361   6.799   3.197
 9081TIP3    H127165   4.354   6.701   3.186
 9081TIP3    H227166   4.315   6.830   3.116
 9082TIP3   OH227167   3.572   5.335   4.991
 9082TIP3    H127168   3.537   5.261   5.044
 9082TIP3    H227169   3.667   5.332   5.017
 9083TIP3   OH227170   3.825   5.331   5.105
 9083TIP3    H127171   3.908   5.303   5.063
 9083TIP3    H227172   3.812   5.261   5.172
 9084TIP3   OH227173   2.947   6.516   3.159
 9084TIP3    H127174   2.950   6.530   3.254
 9084TIP3    H227175   3.033   6.472   3.141
 9085TIP3   OH227176   4.642   5.382   4.896
 9085TIP3    H127177   4.639   5.354   4.990
 9085TIP3    H227178   4.737   5.383   4.883
 9086TIP3   OH227179   4.585   6.944   4.385
 9086TIP3    H127180   4.505   6.912   4.338
 9086TIP3    H227181   4.563   7.040   4.392
 9087TIP3   OH227182   5.856   6.322   3.147
 9087TIP3    H127183   5.820   6.409   3.121
 9087TIP3    H227184   5.784   6.263   3.116
 9088TIP3   OH227185   5.878   6.309   3.522
 9088TIP3    H127186   5.883   6.280   3.614
 9088TIP3    H227187   5.831   6.236   3.480
 9089TIP3   OH227188   5.159   6.201   3.888
 9089TIP3    H127189   5.183   6.137   3.957
 9089TIP3    H227190   5.245   6.238   3.864
 9090TIP3   OH227191   6.103   6.623   3.213
 9090TIP3    H127192   6.075   6.552   3.273
 9090TIP3    H227193   6.129   6.694   3.274
 9091TIP3   OH227194   5.129   6.624   3.647
 9091TIP3    H127195   5.130   6.526   3.633
 9091TIP3    H227196   5.219   6.648   3.621
 9092TIP3   OH227197   4.831   5.826   3.401
 9092TIP3    H127198   4.778   5.906   3.419
 9092TIP3    H227199   4.763   5.768   3.364
 9093TIP3   OH227200   4.889   6.111   3.584
 9093TIP3    H127201   4.938   6.031   3.615
 9093TIP3    H227202   4.942   6.137   3.507
 9094TIP3   OH227203   5.746   7.086   3.226
 9094TIP3    H127204   5.792   7.010   3.184
 9094TIP3    H227205   5.723   7.050   3.313
 9095TIP3   OH227206   5.659   6.482   3.635
 9095TIP3    H127207   5.690   6.443   3.552
 9095TIP3    H227208   5.703   6.568   3.631
 9096TIP3   OH227209   6.672   5.866   3.581
 9096TIP3    H127210   6.703   5.947   3.626
 9096TIP3    H227211   6.643   5.901   3.496
 9097TIP3   OH227212   6.067   6.043   3.614
 9097TIP3    H127213   6.105   5.954   3.627
 9097TIP3    H227214   6.029   6.033   3.524
 9098TIP3   OH227215   5.406   5.705   3.574
 9098TIP3    H127216   5.386   5.776   3.510
 9098TIP3    H227217   5.359   5.630   3.532
 9099TIP3   OH227218   6.090   5.800   3.245
 9099TIP3    H127219   6.184   5.778   3.242
 9099TIP3    H227220   6.056   5.761   3.161
 9100TIP3   OH227221   5.036   5.903   3.685
 9100TIP3    H127222   5.120   5.882   3.732
 9100TIP3    H227223   5.048   5.848   3.605
 9101TIP3   OH227224   5.469   6.096   3.494
 9101TIP3    H127225   5.565   6.076   3.499
 9101TIP3    H227226   5.433   6.014   3.453
 9102TIP3   OH227227   6.743   6.076   3.747
 9102TIP3    H127228   6.656   6.118   3.728
 9102TIP3    H227229   6.753   6.099   3.840
 9103TIP3   OH227230   5.399   5.688   4.014
 9103TIP3    H127231   5.342   5.720   3.941
 9103TIP3    H227232   5.343   5.707   4.091
 9104TIP3   OH227233   5.747   6.539   3.014
 9104TIP3    H127234   5.701   6.517   2.932
 9104TIP3    H227235   5.699   6.621   3.040
 9105TIP3   OH227236   6.341   5.786   3.385
 9105TIP3    H127237   6.276   5.758   3.451
 9105TIP3    H227238   6.361   5.877   3.413
 9106TIP3   OH227239   5.274   5.801   3.794
 9106TIP3    H127240   5.337   5.873   3.816
 9106TIP3    H227241   5.321   5.760   3.718
 9107TIP3   OH227242   4.724   6.349   3.139
 9107TIP3    H127243   4.685   6.377   3.055
 9107TIP3    H227244   4.759   6.434   3.175
 9108TIP3   OH227245   6.173   6.867   3.380
 9108TIP3    H127246   6.084   6.856   3.422
 9108TIP3    H227247   6.159   6.951   3.333
 9109TIP3   OH227248   6.456   5.767   3.746
 9109TIP3    H127249   6.366   5.783   3.712
 9109TIP3    H227250   6.511   5.791   3.670
 9110TIP3   OH227251   5.750   5.382   3.744
 9110TIP3    H127252   5.737   5.292   3.782
 9110TIP3    H227253   5.670   5.427   3.779
 9111TIP3   OH227254   5.870   6.908   3.056
 9111TIP3    H127255   5.919   6.825   3.036
 9111TIP3    H227256   5.932   6.973   3.015
 9112TIP3   OH227257   6.012   6.693   2.963
 9112TIP3    H127258   5.965   6.614   2.933
 9112TIP3    H227259   6.053   6.660   3.046
 9113TIP3   OH227260   6.392   6.771   3.724
 9113TIP3    H127261   6.378   6.695   3.664
 9113TIP3    H227262   6.372   6.847   3.665
 9114TIP3   OH227263   5.684   6.171   2.989
 9114TIP3    H127264   5.605   6.223   2.963
 9114TIP3    H227265   5.731   6.163   2.904
 9115TIP3   OH227266   5.635   5.956   2.697
 9115TIP3    H127267   5.704   6.009   2.743
 9115TIP3    H227268   5.690   5.882   2.665
 9116TIP3   OH227269   6.587   6.413   3.570
 9116TIP3    H127270   6.502   6.463   3.574
 9116TIP3    H227271   6.617   6.440   3.480
 9117TIP3   OH227272   6.034   6.252   2.949
 9117TIP3    H127273   5.979   6.275   3.028
 9117TIP3    H227274   6.116   6.222   2.993
 9118TIP3   OH227275   6.268   6.288   3.869
 9118TIP3    H127276   6.261   6.374   3.915
 9118TIP3    H227277   6.181   6.285   3.825
 9119TIP3   OH227278   5.260   6.243   3.375
 9119TIP3    H127279   5.221   6.187   3.304
 9119TIP3    H227280   5.336   6.188   3.404
 9120TIP3   OH227281   5.412   6.231   3.725
 9120TIP3    H127282   5.425   6.181   3.641
 9120TIP3    H227283   5.469   6.307   3.708
 9121TIP3   OH227284   5.936   6.857   3.505
 9121TIP3    H127285   5.906   6.935   3.554
 9121TIP3    H227286   5.915   6.783   3.566
 9122TIP3   OH227287   5.851   6.118   2.778
 9122TIP3    H127288   5.923   6.154   2.833
 9122TIP3    H227289   5.888   6.131   2.688
 9123TIP3   OH227290   5.291   6.358   4.130
 9123TIP3    H127291   5.288   6.427   4.198
 9123TIP3    H227292   5.200   6.321   4.139
 9124TIP3   OH227293   5.621   6.783   3.045
 9124TIP3    H127294   5.698   6.839   3.065
 9124TIP3    H227295   5.556   6.846   3.013
 9125TIP3   OH227296   5.334   6.910   4.145
 9125TIP3    H127297   5.316   6.949   4.057
 9125TIP3    H227298   5.249   6.923   4.194
 9126TIP3   OH227299   6.389   5.346   2.830
 9126TIP3    H127300   6.308   5.367   2.881
 9126TIP3    H227301   6.403   5.429   2.781
 9127TIP3   OH227302   5.131   6.091   3.174
 9127TIP3    H127303   5.060   6.133   3.120
 9127TIP3    H227304   5.097   6.001   3.184
 9128TIP3   OH227305   6.187   6.714   2.377
 9128TIP3    H127306   6.195   6.811   2.363
 9128TIP3    H227307   6.280   6.685   2.365
 9129TIP3   OH227308   4.919   6.481   4.075
 9129TIP3    H127309   4.845   6.462   4.013
 9129TIP3    H227310   4.956   6.392   4.091
 9130TIP3   OH227311   4.753   6.672   3.701
 9130TIP3    H127312   4.849   6.683   3.711
 9130TIP3    H227313   4.718   6.718   3.778
 9131TIP3   OH227314   6.629   7.123   3.774
 9131TIP3    H127315   6.627   7.027   3.788
 9131TIP3    H227316   6.545   7.149   3.819
 9132TIP3   OH227317   5.754   6.901   3.927
 9132TIP3    H127318   5.755   6.996   3.952
 9132TIP3    H227319   5.664   6.894   3.893
 9133TIP3   OH227320   5.500   7.033   2.857
 9133TIP3    H127321   5.450   7.016   2.775
 9133TIP3    H227322   5.466   7.121   2.885
 9134TIP3   OH227323   4.940   6.882   3.251
 9134TIP3    H127324   4.991   6.872   3.334
 9134TIP3    H227325   4.892   6.797   3.249
 9135TIP3   OH227326   5.698   6.936   2.496
 9135TIP3    H127327   5.756   6.865   2.461
 9135TIP3    H227328   5.732   6.947   2.587
 9136TIP3   OH227329   5.750   6.984   2.766
 9136TIP3    H127330   5.660   6.994   2.806
 9136TIP3    H227331   5.797   6.938   2.838
 9137TIP3   OH227332   6.516   6.248   4.047
 9137TIP3    H127333   6.433   6.258   3.998
 9137TIP3    H227334   6.533   6.152   4.036
 9138TIP3   OH227335   5.512   5.486   3.842
 9138TIP3    H127336   5.423   5.456   3.818
 9138TIP3    H227337   5.490   5.554   3.908
 9139TIP3   OH227338   6.052   5.604   4.054
 9139TIP3    H127339   6.118   5.564   4.114
 9139TIP3    H227340   5.966   5.577   4.095
 9140TIP3   OH227341   6.290   6.028   3.974
 9140TIP3    H127342   6.235   6.025   4.056
 9140TIP3    H227343   6.262   6.112   3.932
 9141TIP3   OH227344   5.947   6.141   2.523
 9141TIP3    H127345   5.914   6.122   2.433
 9141TIP3    H227346   6.030   6.189   2.503
 9142TIP3   OH227347   5.651   5.529   2.775
 9142TIP3    H127348   5.693   5.562   2.856
 9142TIP3    H227349   5.608   5.447   2.805
 9143TIP3   OH227350   5.449   6.004   3.875
 9143TIP3    H127351   5.396   6.021   3.955
 9143TIP3    H227352   5.439   6.088   3.826
 9144TIP3   OH227353   5.328   5.885   3.388
 9144TIP3    H127354   5.236   5.857   3.407
 9144TIP3    H227355   5.341   5.844   3.299
 9145TIP3   OH227356   5.832   5.969   3.125
 9145TIP3    H127357   5.781   6.032   3.070
 9145TIP3    H227358   5.868   5.906   3.061
 9146TIP3   OH227359   5.996   6.243   4.203
 9146TIP3    H127360   5.974   6.169   4.264
 9146TIP3    H227361   6.091   6.254   4.223
 9147TIP3   OH227362   5.969   6.007   3.362
 9147TIP3    H127363   5.912   6.022   3.283
 9147TIP3    H227364   6.013   5.925   3.328
 9148TIP3   OH227365   5.270   6.025   4.085
 9148TIP3    H127366   5.276   6.079   4.164
 9148TIP3    H227367   5.253   5.936   4.123
 9149TIP3   OH227368   5.307   5.494   2.791
 9149TIP3    H127369   5.306   5.498   2.888
 9149TIP3    H227370   5.235   5.556   2.769
 9150TIP3   OH227371   4.858   5.549   3.659
 9150TIP3    H127372   4.934   5.577   3.713
 9150TIP3    H227373   4.898   5.511   3.580
 9151TIP3   OH227374   4.829   5.527   3.181
 9151TIP3    H127375   4.873   5.566   3.102
 9151TIP3    H227376   4.765   5.598   3.200
 9152TIP3   OH227377   6.002   6.239   3.784
 9152TIP3    H127378   6.028   6.171   3.717
 9152TIP3    H227379   5.964   6.182   3.853
 9153TIP3   OH227380   5.669   5.698   3.449
 9153TIP3    H127381   5.587   5.698   3.503
 9153TIP3    H227382   5.738   5.689   3.517
 9154TIP3   OH227383   5.092   5.762   3.456
 9154TIP3    H127384   4.998   5.770   3.427
 9154TIP3    H227385   5.115   5.670   3.434
 9155TIP3   OH227386   5.352   5.756   3.150
 9155TIP3    H127387   5.448   5.767   3.133
 9155TIP3    H227388   5.311   5.778   3.063
 9156TIP3   OH227389   6.153   5.781   3.656
 9156TIP3    H127390   6.114   5.793   3.745
 9156TIP3    H227391   6.090   5.718   3.618
 9157TIP3   OH227392   5.207   5.793   2.920
 9157TIP3    H127393   5.137   5.748   2.870
 9157TIP3    H227394   5.260   5.831   2.847
 9158TIP3   OH227395   6.325   7.469   3.874
 9158TIP3    H127396   6.323   7.494   3.780
 9158TIP3    H227397   6.405   7.516   3.905
 9159TIP3   OH227398   5.286   6.609   4.263
 9159TIP3    H127399   5.359   6.625   4.327
 9159TIP3    H227400   5.211   6.599   4.327
 9160TIP3   OH227401   5.739   6.036   3.547
 9160TIP3    H127402   5.809   6.001   3.490
 9160TIP3    H227403   5.746   5.982   3.627
 9161TIP3   OH227404   5.259   5.521   3.431
 9161TIP3    H127405   5.223   5.443   3.479
 9161TIP3    H227406   5.305   5.479   3.357
 9162TIP3   OH227407   5.715   5.931   3.832
 9162TIP3    H127408   5.624   5.964   3.845
 9162TIP3    H227409   5.769   5.993   3.885
 9163TIP3   OH227410   5.448   6.324   2.928
 9163TIP3    H127411   5.377   6.257   2.917
 9163TIP3    H227412   5.431   6.355   3.020
 9164TIP3   OH227413   6.352   6.555   3.558
 9164TIP3    H127414   6.372   6.607   3.477
 9164TIP3    H227415   6.268   6.510   3.533
 9165TIP3   OH227416   5.828   6.635   3.954
 9165TIP3    H127417   5.907   6.632   4.011
 9165TIP3    H227418   5.813   6.730   3.942
 9166TIP3   OH227419   5.151   6.352   3.603
 9166TIP3    H127420   5.186   6.322   3.517
 9166TIP3    H227421   5.179   6.280   3.661
 9167TIP3   OH227422   5.597   6.470   2.751
 9167TIP3    H127423   5.548   6.556   2.756
 9167TIP3    H227424   5.543   6.415   2.812
 9168TIP3   OH227425   5.039   6.255   4.211
 9168TIP3    H127426   5.041   6.239   4.307
 9168TIP3    H227427   4.961   6.201   4.185
 9169TIP3   OH227428   5.754   6.373   4.246
 9169TIP3    H127429   5.688   6.314   4.204
 9169TIP3    H227430   5.838   6.337   4.209
 9170TIP3   OH227431   6.021   6.895   3.835
 9170TIP3    H127432   5.924   6.895   3.843
 9170TIP3    H227433   6.045   6.952   3.910
 9171TIP3   OH227434   6.437   5.976   2.718
 9171TIP3    H127435   6.371   5.931   2.660
 9171TIP3    H227436   6.423   6.067   2.685
 9172TIP3   OH227437   6.642   6.833   3.812
 9172TIP3    H127438   6.544   6.825   3.803
 9172TIP3    H227439   6.669   6.802   3.723
 9173TIP3   OH227440   6.128   6.790   2.646
 9173TIP3    H127441   6.095   6.723   2.708
 9173TIP3    H227442   6.136   6.740   2.562
 9174TIP3   OH227443   6.127   6.417   3.475
 9174TIP3    H127444   6.034   6.390   3.489
 9174TIP3    H227445   6.160   6.338   3.428
 9175TIP3   OH227446   5.237   6.639   3.206
 9175TIP3    H127447   5.245   6.730   3.175
 9175TIP3    H227448   5.145   6.635   3.233
 9176TIP3   OH227449   4.812   5.951   2.938
 9176TIP3    H127450   4.857   6.034   2.961
 9176TIP3    H227451   4.735   5.953   3.000
 9177TIP3   OH227452   5.381   6.407   3.175
 9177TIP3    H127453   5.344   6.497   3.190
 9177TIP3    H227454   5.347   6.360   3.254
 9178TIP3   OH227455   5.160   6.895   3.078
 9178TIP3    H127456   5.078   6.900   3.131
 9178TIP3    H227457   5.193   6.987   3.085
 9179TIP3   OH227458   5.909   6.631   3.670
 9179TIP3    H127459   5.890   6.610   3.763
 9179TIP3    H227460   5.974   6.565   3.646
 9180TIP3   OH227461   5.882   6.522   2.544
 9180TIP3    H127462   5.937   6.497   2.622
 9180TIP3    H227463   5.795   6.490   2.573
 9181TIP3   OH227464   6.152   7.156   3.710
 9181TIP3    H127465   6.070   7.104   3.700
 9181TIP3    H227466   6.140   7.222   3.638
 9182TIP3   OH227467   6.217   6.990   2.361
 9182TIP3    H127468   6.250   7.063   2.306
 9182TIP3    H227469   6.138   7.033   2.398
 9183TIP3   OH227470   5.229   5.771   4.220
 9183TIP3    H127471   5.132   5.780   4.233
 9183TIP3    H227472   5.255   5.715   4.295
 9184TIP3   OH227473   6.043   6.451   2.754
 9184TIP3    H127474   6.028   6.385   2.825
 9184TIP3    H227475   6.141   6.446   2.747
 9185TIP3   OH227476   4.941   6.860   3.851
 9185TIP3    H127477   4.986   6.781   3.884
 9185TIP3    H227478   4.966   6.929   3.914
 9186TIP3   OH227479   5.243   6.498   2.544
 9186TIP3    H127480   5.257   6.404   2.520
 9186TIP3    H227481   5.223   6.490   2.640
 9187TIP3   OH227482   5.187   6.503   2.815
 9187TIP3    H127483   5.261   6.474   2.870
 9187TIP3    H227484   5.191   6.601   2.827
 9188TIP3   OH227485   4.921   6.194   3.020
 9188TIP3    H127486   4.855   6.239   3.077
 9188TIP3    H227487   4.936   6.262   2.953
 9189TIP3   OH227488   6.071   5.843   3.921
 9189TIP3    H127489   6.159   5.869   3.951
 9189TIP3    H227490   6.057   5.758   3.969
 9190TIP3   OH227491   5.455   6.700   2.760
 9190TIP3    H127492   5.368   6.721   2.800
 9190TIP3    H227493   5.470   6.780   2.708
 9191TIP3   OH227494   5.630   5.765   3.176
 9191TIP3    H127495   5.711   5.808   3.145
 9191TIP3    H227496   5.647   5.760   3.272
 9192TIP3   OH227497   5.907   6.080   3.983
 9192TIP3    H127498   5.941   6.124   4.063
 9192TIP3    H227499   5.958   5.997   3.980
 9193TIP3   OH227500   5.798   5.503   3.269
 9193TIP3    H127501   5.775   5.574   3.333
 9193TIP3    H227502   5.844   5.556   3.200
 9194TIP3   OH227503   5.202   6.776   2.834
 9194TIP3    H127504   5.172   6.846   2.773
 9194TIP3    H227505   5.185   6.818   2.922
 9195TIP3   OH227506   5.299   5.492   3.068
 9195TIP3    H127507   5.296   5.581   3.107
 9195TIP3    H227508   5.396   5.474   3.078
 9196TIP3   OH227509   6.553   5.979   3.964
 9196TIP3    H127510   6.456   5.983   3.977
 9196TIP3    H227511   6.556   5.926   3.883
 9197TIP3   OH227512   6.205   6.173   3.354
 9197TIP3    H127513   6.122   6.122   3.359
 9197TIP3    H227514   6.268   6.117   3.404
 9198TIP3   OH227515   4.920   6.400   2.822
 9198TIP3    H127516   4.994   6.463   2.833
 9198TIP3    H227517   4.962   6.340   2.757
 9199TIP3   OH227518   4.859   5.680   2.955
 9199TIP3    H127519   4.862   5.778   2.955
 9199TIP3    H227520   4.772   5.663   2.917
 9200TIP3   OH227521   6.174   7.140   3.302
 9200TIP3    H127522   6.130   7.189   3.229
 9200TIP3    H227523   6.268   7.157   3.279
 9201TIP3   OH227524   5.244   5.401   3.829
 9201TIP3    H127525   5.217   5.369   3.740
 9201TIP3    H227526   5.237   5.319   3.883
 9202TIP3   OH227527   4.787   6.621   3.208
 9202TIP3    H127528   4.725   6.650   3.276
 9202TIP3    H227529   4.750   6.666   3.128
 9203TIP3   OH227530   4.949   7.171   4.279
 9203TIP3    H127531   5.033   7.171   4.329
 9203TIP3    H227532   4.924   7.078   4.281
 9204TIP3   OH227533   5.424   7.114   4.327
 9204TIP3    H127534   5.520   7.111   4.332
 9204TIP3    H227535   5.406   7.045   4.261
 9205TIP3   OH227536   5.405   6.699   2.450
 9205TIP3    H127537   5.349   6.629   2.492
 9205TIP3    H227538   5.482   6.645   2.425
 9206TIP3   OH227539   6.061   7.038   4.068
 9206TIP3    H127540   6.058   6.966   4.134
 9206TIP3    H227541   6.141   7.088   4.094
 9207TIP3   OH227542   5.842   6.737   2.370
 9207TIP3    H127543   5.877   6.669   2.431
 9207TIP3    H227544   5.903   6.731   2.294
 9208TIP3   OH227545   5.083   6.576   4.459
 9208TIP3    H127546   5.100   6.481   4.475
 9208TIP3    H227547   4.992   6.574   4.423
 9209TIP3   OH227548   5.056   6.212   2.680
 9209TIP3    H127549   5.112   6.183   2.754
 9209TIP3    H227550   5.123   6.219   2.609
 9210TIP3   OH227551   5.681   6.643   4.247
 9210TIP3    H127552   5.695   6.651   4.152
 9210TIP3    H227553   5.717   6.553   4.261
 9211TIP3   OH227554   5.571   6.416   2.483
 9211TIP3    H127555   5.572   6.429   2.580
 9211TIP3    H227556   5.571   6.318   2.479
 9212TIP3   OH227557   6.176   6.670   3.869
 9212TIP3    H127558   6.255   6.705   3.823
 9212TIP3    H227559   6.112   6.740   3.846
 9213TIP3   OH227560   5.210   6.316   4.463
 9213TIP3    H127561   5.269   6.240   4.453
 9213TIP3    H227562   5.231   6.345   4.554
 9214TIP3   OH227563   5.254   6.126   2.893
 9214TIP3    H127564   5.233   6.086   2.979
 9214TIP3    H227565   5.295   6.050   2.845
 9215TIP3   OH227566   5.544   6.208   4.121
 9215TIP3    H127567   5.458   6.253   4.118
 9215TIP3    H227568   5.585   6.240   4.037
 9216TIP3   OH227569   5.363   5.922   2.737
 9216TIP3    H127570   5.341   5.929   2.642
 9216TIP3    H227571   5.461   5.924   2.733
 9217TIP3   OH227572   6.048   6.588   4.259
 9217TIP3    H127573   6.123   6.556   4.207
 9217TIP3    H227574   6.043   6.520   4.329
 9218TIP3   OH227575   6.180   6.245   2.405
 9218TIP3    H127576   6.161   6.201   2.320
 9218TIP3    H227577   6.147   6.335   2.385
 9219TIP3   OH227578   5.653   5.981   4.249
 9219TIP3    H127579   5.654   5.900   4.192
 9219TIP3    H227580   5.613   6.047   4.189
 9220TIP3   OH227581   5.655   5.771   4.064
 9220TIP3    H127582   5.683   5.802   3.975
 9220TIP3    H227583   5.564   5.738   4.045
 9221TIP3   OH227584   5.675   6.320   3.911
 9221TIP3    H127585   5.759   6.277   3.894
 9221TIP3    H227586   5.680   6.398   3.852
 9222TIP3   OH227587   6.264   6.265   4.313
 9222TIP3    H127588   6.306   6.177   4.314
 9222TIP3    H227589   6.332   6.320   4.273
 9223TIP3   OH227590   6.303   6.521   4.053
 9223TIP3    H127591   6.247   6.576   3.994
 9223TIP3    H227592   6.391   6.540   4.014
 9224TIP3   OH227593   5.537   6.081   4.486
 9224TIP3    H127594   5.468   6.014   4.503
 9224TIP3    H227595   5.567   6.055   4.396
 9225TIP3   OH227596   5.796   5.539   4.136
 9225TIP3    H127597   5.744   5.618   4.110
 9225TIP3    H227598   5.728   5.469   4.125
 9226TIP3   OH227599   5.912   6.025   4.344
 9226TIP3    H127600   5.892   6.008   4.438
 9226TIP3    H227601   5.824   6.003   4.306
 9227TIP3   OH227602   6.157   5.989   4.206
 9227TIP3    H127603   6.079   5.980   4.264
 9227TIP3    H227604   6.229   5.951   4.259
 9228TIP3   OH227605   6.390   5.924   4.351
 9228TIP3    H127606   6.399   5.827   4.363
 9228TIP3    H227607   6.382   5.956   4.443
 9229TIP3   OH227608   5.374   5.863   4.539
 9229TIP3    H127609   5.376   5.772   4.504
 9229TIP3    H227610   5.409   5.849   4.629
 9230TIP3   OH227611   5.874   5.532   4.397
 9230TIP3    H127612   5.943   5.463   4.386
 9230TIP3    H227613   5.840   5.536   4.305
 9231TIP3   OH227614   5.950   5.749   4.546
 9231TIP3    H127615   5.928   5.676   4.484
 9231TIP3    H227616   5.871   5.807   4.538
 9232TIP3   OH227617   5.173   6.979   2.647
 9232TIP3    H127618   5.267   6.968   2.627
 9232TIP3    H227619   5.145   7.032   2.570
 9233TIP3   OH227620   4.650   6.363   2.857
 9233TIP3    H127621   4.746   6.383   2.844
 9233TIP3    H227622   4.645   6.273   2.817
 9234TIP3   OH227623   4.566   6.970   3.279
 9234TIP3    H127624   4.501   6.908   3.238
 9234TIP3    H227625   4.610   6.910   3.342
 9235TIP3   OH227626   4.698   6.816   3.464
 9235TIP3    H127627   4.695   6.746   3.532
 9235TIP3    H227628   4.749   6.883   3.513
 9236TIP3   OH227629   6.432   7.222   3.263
 9236TIP3    H127630   6.456   7.253   3.352
 9236TIP3    H227631   6.501   7.262   3.208
 9237TIP3   OH227632   6.459   7.241   3.546
 9237TIP3    H127633   6.411   7.156   3.542
 9237TIP3    H227634   6.532   7.216   3.604
 9238TIP3   OH227635   6.505   6.920   4.119
 9238TIP3    H127636   6.433   6.930   4.184
 9238TIP3    H227637   6.547   7.008   4.122
 9239TIP3   OH227638   6.322   6.431   2.737
 9239TIP3    H127639   6.389   6.497   2.708
 9239TIP3    H227640   6.366   6.392   2.816
 9240TIP3   OH227641   6.451   6.295   2.940
 9240TIP3    H127642   6.380   6.251   2.992
 9240TIP3    H227643   6.505   6.337   3.010
 9241TIP3   OH227644   6.508   6.697   3.376
 9241TIP3    H127645   6.556   6.628   3.326
 9241TIP3    H227646   6.496   6.767   3.308
 9242TIP3   OH227647   6.332   6.994   3.568
 9242TIP3    H127648   6.258   7.034   3.618
 9242TIP3    H227649   6.284   6.948   3.495
 9243TIP3   OH227650   6.385   6.212   2.582
 9243TIP3    H127651   6.312   6.212   2.516
 9243TIP3    H227652   6.355   6.285   2.640
 9244TIP3   OH227653   6.267   5.873   2.529
 9244TIP3    H127654   6.206   5.913   2.466
 9244TIP3    H227655   6.242   5.779   2.522
 9245TIP3   OH227656   6.263   6.158   3.082
 9245TIP3    H127657   6.272   6.061   3.067
 9245TIP3    H227658   6.245   6.161   3.178
 9246TIP3   OH227659   4.888   6.220   3.837
 9246TIP3    H127660   4.882   6.190   3.744
 9246TIP3    H227661   4.986   6.224   3.848
 9247TIP3   OH227662   6.550   6.583   3.946
 9247TIP3    H127663   6.621   6.516   3.932
 9247TIP3    H227664   6.572   6.650   3.879
 9248TIP3   OH227665   6.732   6.381   3.948
 9248TIP3    H127666   6.657   6.333   3.990
 9248TIP3    H227667   6.805   6.318   3.967
 9249TIP3   OH227668   6.199   5.606   2.519
 9249TIP3    H127669   6.265   5.579   2.586
 9249TIP3    H227670   6.116   5.566   2.552
 9250TIP3   OH227671   6.300   5.895   3.004
 9250TIP3    H127672   6.317   5.799   3.017
 9250TIP3    H227673   6.283   5.898   2.909
 9251TIP3   OH227674   6.418   6.037   3.481
 9251TIP3    H127675   6.499   6.068   3.436
 9251TIP3    H227676   6.430   6.079   3.568
 9252TIP3   OH227677   6.490   6.192   3.704
 9252TIP3    H127678   6.412   6.224   3.754
 9252TIP3    H227679   6.521   6.275   3.661
 9253TIP3   OH227680   5.108   5.922   4.515
 9253TIP3    H127681   5.206   5.912   4.515
 9253TIP3    H227682   5.082   5.837   4.555
 9254TIP3   OH227683   6.943   5.788   4.261
 9254TIP3    H127684   7.002   5.723   4.217
 9254TIP3    H227685   6.908   5.838   4.184
 9255TIP3   OH227686   6.376   5.621   3.014
 9255TIP3    H127687   6.413   5.600   3.102
 9255TIP3    H227688   6.305   5.554   3.008
 9256TIP3   OH227689   5.066   5.611   3.840
 9256TIP3    H127690   5.125   5.534   3.844
 9256TIP3    H227691   5.129   5.683   3.828
 9257TIP3   OH227692   4.869   5.882   3.913
 9257TIP3    H127693   4.916   5.872   3.828
 9257TIP3    H227694   4.891   5.973   3.936
 9258TIP3   OH227695   6.807   5.918   4.065
 9258TIP3    H127696   6.722   5.963   4.084
 9258TIP3    H227697   6.773   5.845   4.008
 9259TIP3   OH227698   6.448   5.554   2.656
 9259TIP3    H127699   6.481   5.486   2.594
 9259TIP3    H227700   6.513   5.627   2.644
 9260TIP3   OH227701   4.862   5.388   3.410
 9260TIP3    H127702   4.768   5.373   3.432
 9260TIP3    H227703   4.855   5.447   3.331
 9261TIP3   OH227704   6.016   7.094   2.920
 9261TIP3    H127705   6.060   7.078   2.834
 9261TIP3    H227706   6.075   7.159   2.960
 9262TIP3   OH227707   5.049   5.455   4.244
 9262TIP3    H127708   4.962   5.434   4.279
 9262TIP3    H227709   5.020   5.511   4.169
 9263TIP3   OH227710   5.105   6.887   4.287
 9263TIP3    H127711   5.008   6.873   4.286
 9263TIP3    H227712   5.124   6.872   4.380
 9264TIP3   OH227713   5.283   6.887   3.880
 9264TIP3    H127714   5.252   6.974   3.847
 9264TIP3    H227715   5.322   6.861   3.792
 9265TIP3   OH227716   5.731   7.175   3.987
 9265TIP3    H127717   5.775   7.175   4.075
 9265TIP3    H227718   5.795   7.228   3.935
 9266TIP3   OH227719   5.909   7.330   3.849
 9266TIP3    H127720   5.975   7.277   3.802
 9266TIP3    H227721   5.965   7.383   3.908
 9267TIP3   OH227722   6.708   5.683   3.947
 9267TIP3    H127723   6.618   5.671   3.912
 9267TIP3    H227724   6.743   5.591   3.937
 9268TIP3   OH227725   4.962   7.184   3.879
 9268TIP3    H127726   4.873   7.219   3.854
 9268TIP3    H227727   4.973   7.229   3.964
 9269TIP3   OH227728   5.206   7.182   3.754
 9269TIP3    H127729   5.114   7.181   3.787
 9269TIP3    H227730   5.192   7.175   3.657
 9270TIP3   OH227731   5.659   7.222   3.494
 9270TIP3    H127732   5.569   7.215   3.461
 9270TIP3    H227733   5.654   7.298   3.555
 9271TIP3   OH227734   5.899   7.130   3.590
 9271TIP3    H127735   5.806   7.147   3.562
 9271TIP3    H227736   5.945   7.197   3.536
 9272TIP3   OH227737   6.112   7.323   3.498
 9272TIP3    H127738   6.089   7.405   3.450
 9272TIP3    H227739   6.134   7.262   3.424
 9273TIP3   OH227740   4.881   6.979   3.612
 9273TIP3    H127741   4.905   6.949   3.702
 9273TIP3    H227742   4.954   6.937   3.561
 9274TIP3   OH227743   5.077   6.841   3.481
 9274TIP3    H127744   5.082   6.759   3.534
 9274TIP3    H227745   5.170   6.871   3.497
 9275TIP3   OH227746   5.911   5.597   3.579
 9275TIP3    H127747   5.876   5.524   3.632
 9275TIP3    H227748   5.982   5.553   3.529
 9276TIP3   OH227749   6.434   5.482   3.480
 9276TIP3    H127750   6.468   5.534   3.404
 9276TIP3    H227751   6.338   5.499   3.473
 9277TIP3   OH227752   6.530   5.569   3.237
 9277TIP3    H127753   6.606   5.523   3.196
 9277TIP3    H227754   6.564   5.661   3.237
 9278TIP3   OH227755   5.162   5.307   3.582
 9278TIP3    H127756   5.069   5.275   3.583
 9278TIP3    H227757   5.209   5.221   3.577
 9279TIP3   OH227758   4.954   5.179   3.232
 9279TIP3    H127759   4.982   5.236   3.159
 9279TIP3    H227760   4.926   5.244   3.299
 9280TIP3   OH227761   5.609   5.338   3.471
 9280TIP3    H127762   5.661   5.391   3.409
 9280TIP3    H227763   5.645   5.365   3.557
 9281TIP3   OH227764   6.157   5.495   3.449
 9281TIP3    H127765   6.143   5.462   3.360
 9281TIP3    H227766   6.140   5.413   3.502
 9282TIP3   OH227767   6.183   5.418   3.002
 9282TIP3    H127768   6.098   5.467   2.999
 9282TIP3    H227769   6.158   5.337   3.051
 9283TIP3   OH227770   4.664   6.755   3.006
 9283TIP3    H127771   4.579   6.721   2.975
 9283TIP3    H227772   4.656   6.848   2.979
 9284TIP3   OH227773   5.070   5.337   2.991
 9284TIP3    H127774   5.119   5.275   2.934
 9284TIP3    H227775   5.144   5.391   3.026
 9285TIP3   OH227776   5.571   5.507   3.102
 9285TIP3    H127777   5.645   5.470   3.153
 9285TIP3    H227778   5.592   5.602   3.112
 9286TIP3   OH227779   5.438   6.932   2.592
 9286TIP3    H127780   5.526   6.956   2.555
 9286TIP3    H227781   5.416   6.857   2.532
 9287TIP3   OH227782   6.160   7.057   2.687
 9287TIP3    H127783   6.153   6.959   2.676
 9287TIP3    H227784   6.111   7.087   2.607
 9288TIP3   OH227785   5.373   5.589   4.468
 9288TIP3    H127786   5.335   5.524   4.529
 9288TIP3    H227787   5.467   5.588   4.496
 9289TIP3   OH227788   5.624   5.588   4.589
 9289TIP3    H127789   5.706   5.563   4.543
 9289TIP3    H227790   5.614   5.516   4.654
 9290TIP3   OH227791   4.741   6.771   2.646
 9290TIP3    H127792   4.747   6.789   2.741
 9290TIP3    H227793   4.828   6.728   2.627
 9291TIP3   OH227794   6.448   5.652   4.378
 9291TIP3    H127795   6.464   5.620   4.469
 9291TIP3    H227796   6.537   5.644   4.338
 9292TIP3   OH227797   6.380   7.199   3.872
 9292TIP3    H127798   6.301   7.169   3.821
 9292TIP3    H227799   6.360   7.294   3.878
 9293TIP3   OH227800   7.650   6.573   2.634
 9293TIP3    H127801   7.618   6.664   2.614
 9293TIP3    H227802   7.575   6.521   2.600
 9294TIP3   OH227803   7.648   6.577   3.024
 9294TIP3    H127804   7.684   6.552   3.112
 9294TIP3    H227805   7.610   6.494   2.993
 9295TIP3   OH227806   6.948   6.460   3.381
 9295TIP3    H127807   6.976   6.395   3.448
 9295TIP3    H227808   7.024   6.519   3.380
 9296TIP3   OH227809   7.894   6.877   2.704
 9296TIP3    H127810   7.881   6.808   2.770
 9296TIP3    H227811   7.929   6.950   2.758
 9297TIP3   OH227812   6.922   6.880   3.106
 9297TIP3    H127813   6.914   6.782   3.107
 9297TIP3    H227814   7.019   6.889   3.098
 9298TIP3   OH227815   6.633   6.078   2.897
 9298TIP3    H127816   6.581   6.159   2.911
 9298TIP3    H227817   6.566   6.024   2.852
 9299TIP3   OH227818   6.685   6.371   3.075
 9299TIP3    H127819   6.731   6.289   3.100
 9299TIP3    H227820   6.737   6.403   3.000
 9300TIP3   OH227821   7.549   7.340   2.722
 9300TIP3    H127822   7.585   7.266   2.669
 9300TIP3    H227823   7.533   7.297   2.807
 9301TIP3   OH227824   7.446   6.799   3.069
 9301TIP3    H127825   7.489   6.723   3.026
 9301TIP3    H227826   7.527   6.848   3.095
 9302TIP3   OH227827   8.425   6.134   3.073
 9302TIP3    H127828   8.482   6.207   3.105
 9302TIP3    H227829   8.474   6.103   2.995
 9303TIP3   OH227830   7.853   6.297   3.097
 9303TIP3    H127831   7.902   6.215   3.118
 9303TIP3    H227832   7.826   6.280   3.005
 9304TIP3   OH227833   7.896   6.053   2.685
 9304TIP3    H127834   7.967   6.039   2.751
 9304TIP3    H227835   7.949   6.086   2.610
 9305TIP3   OH227836   6.836   6.162   3.174
 9305TIP3    H127837   6.924   6.195   3.193
 9305TIP3    H227838   6.853   6.096   3.103
 9306TIP3   OH227839   7.271   6.355   2.967
 9306TIP3    H127840   7.367   6.334   2.977
 9306TIP3    H227841   7.235   6.268   2.939
 9307TIP3   OH227842   8.539   6.339   3.230
 9307TIP3    H127843   8.450   6.377   3.212
 9307TIP3    H227844   8.547   6.357   3.324
 9308TIP3   OH227845   7.183   5.956   3.483
 9308TIP3    H127846   7.161   6.044   3.450
 9308TIP3    H227847   7.131   5.954   3.567
 9309TIP3   OH227848   7.534   6.791   2.505
 9309TIP3    H127849   7.497   6.780   2.416
 9309TIP3    H227850   7.489   6.874   2.534
 9310TIP3   OH227851   7.299   6.716   3.288
 9310TIP3    H127852   7.241   6.786   3.324
 9310TIP3    H227853   7.344   6.763   3.214
 9311TIP3   OH227854   8.099   6.059   2.864
 9311TIP3    H127855   8.094   6.015   2.950
 9311TIP3    H227856   8.154   6.138   2.886
 9312TIP3   OH227857   7.132   6.916   3.390
 9312TIP3    H127858   7.107   7.004   3.354
 9312TIP3    H227859   7.053   6.899   3.445
 9313TIP3   OH227860   6.522   6.605   2.626
 9313TIP3    H127861   6.478   6.631   2.543
 9313TIP3    H227862   6.553   6.692   2.660
 9314TIP3   OH227863   7.957   7.122   2.865
 9314TIP3    H127864   7.868   7.108   2.907
 9314TIP3    H227865   7.941   7.206   2.818
 9315TIP3   OH227866   8.240   6.019   3.231
 9315TIP3    H127867   8.155   6.051   3.195
 9315TIP3    H227868   8.305   6.059   3.168
 9316TIP3   OH227869   7.540   5.654   3.202
 9316TIP3    H127870   7.533   5.561   3.232
 9316TIP3    H227871   7.463   5.694   3.244
 9317TIP3   OH227872   7.656   7.164   2.535
 9317TIP3    H127873   7.708   7.082   2.519
 9317TIP3    H227874   7.720   7.231   2.503
 9318TIP3   OH227875   7.803   6.949   2.455
 9318TIP3    H127876   7.772   6.868   2.413
 9318TIP3    H227877   7.841   6.916   2.539
 9319TIP3   OH227878   8.185   7.032   3.211
 9319TIP3    H127879   8.174   6.954   3.153
 9319TIP3    H227880   8.173   7.106   3.148
 9320TIP3   OH227881   7.480   6.425   2.471
 9320TIP3    H127882   7.401   6.479   2.451
 9320TIP3    H227883   7.526   6.422   2.385
 9321TIP3   OH227884   7.438   6.213   2.181
 9321TIP3    H127885   7.505   6.265   2.228
 9321TIP3    H227886   7.496   6.150   2.133
 9322TIP3   OH227887   8.374   6.661   3.051
 9322TIP3    H127888   8.294   6.717   3.059
 9322TIP3    H227889   8.408   6.691   2.964
 9323TIP3   OH227890   7.829   6.509   2.438
 9323TIP3    H127891   7.774   6.532   2.516
 9323TIP3    H227892   7.913   6.484   2.481
 9324TIP3   OH227893   8.060   6.544   3.360
 9324TIP3    H127894   8.060   6.627   3.410
 9324TIP3    H227895   7.975   6.551   3.312
 9325TIP3   OH227896   7.059   6.501   2.860
 9325TIP3    H127897   7.018   6.444   2.792
 9325TIP3    H227898   7.137   6.449   2.887
 9326TIP3   OH227899   7.190   6.917   3.003
 9326TIP3    H127900   7.171   6.884   2.914
 9326TIP3    H227901   7.278   6.879   3.021
 9327TIP3   OH227902   7.199   6.467   3.214
 9327TIP3    H127903   7.231   6.446   3.124
 9327TIP3    H227904   7.240   6.554   3.232
 9328TIP3   OH227905   7.719   7.113   2.990
 9328TIP3    H127906   7.706   7.194   3.043
 9328TIP3    H227907   7.703   7.041   3.054
 9329TIP3   OH227908   7.336   7.032   3.537
 9329TIP3    H127909   7.274   7.093   3.583
 9329TIP3    H227910   7.272   6.979   3.485
 9330TIP3   OH227911   7.665   6.367   2.267
 9330TIP3    H127912   7.725   6.428   2.316
 9330TIP3    H227913   7.691   6.387   2.173
 9331TIP3   OH227914   7.089   6.582   3.643
 9331TIP3    H127915   7.095   6.672   3.681
 9331TIP3    H227916   6.994   6.564   3.658
 9332TIP3   OH227917   7.412   7.040   2.542
 9332TIP3    H127918   7.495   7.091   2.549
 9332TIP3    H227919   7.353   7.102   2.499
 9333TIP3   OH227920   7.128   7.195   3.624
 9333TIP3    H127921   7.094   7.200   3.533
 9333TIP3    H227922   7.048   7.175   3.676
 9334TIP3   OH227923   8.182   5.607   2.318
 9334TIP3    H127924   8.100   5.629   2.367
 9334TIP3    H227925   8.196   5.689   2.267
 9335TIP3   OH227926   6.924   6.345   2.664
 9335TIP3    H127927   6.860   6.396   2.610
 9335TIP3    H227928   6.882   6.258   2.664
 9336TIP3   OH227929   7.990   6.961   1.869
 9336TIP3    H127930   8.000   7.059   1.873
 9336TIP3    H227931   8.082   6.933   1.852
 9337TIP3   OH227932   6.707   6.732   3.570
 9337TIP3    H127933   6.637   6.715   3.503
 9337TIP3    H227934   6.742   6.643   3.588
 9338TIP3   OH227935   6.562   6.927   3.197
 9338TIP3    H127936   6.658   6.920   3.191
 9338TIP3    H227937   6.551   7.003   3.256
 9339TIP3   OH227938   8.406   7.374   3.250
 9339TIP3    H127939   8.433   7.284   3.274
 9339TIP3    H227940   8.332   7.390   3.312
 9340TIP3   OH227941   7.531   7.161   3.394
 9340TIP3    H127942   7.527   7.254   3.425
 9340TIP3    H227943   7.460   7.120   3.448
 9341TIP3   OH227944   7.295   7.287   2.347
 9341TIP3    H127945   7.248   7.270   2.264
 9341TIP3    H227946   7.260   7.374   2.375
 9342TIP3   OH227947   6.732   7.137   2.731
 9342TIP3    H127948   6.777   7.128   2.818
 9342TIP3    H227949   6.682   7.053   2.727
 9343TIP3   OH227950   7.493   7.192   1.983
 9343TIP3    H127951   7.550   7.122   1.944
 9343TIP3    H227952   7.528   7.197   2.074
 9344TIP3   OH227953   7.544   7.226   2.259
 9344TIP3    H127954   7.454   7.240   2.298
 9344TIP3    H227955   7.590   7.184   2.333
 9345TIP3   OH227956   8.312   6.503   3.535
 9345TIP3    H127957   8.233   6.516   3.481
 9345TIP3    H227958   8.331   6.409   3.520
 9346TIP3   OH227959   6.912   6.914   3.552
 9346TIP3    H127960   6.960   6.899   3.636
 9346TIP3    H227961   6.837   6.852   3.561
 9347TIP3   OH227962   7.234   5.746   3.306
 9347TIP3    H127963   7.200   5.677   3.364
 9347TIP3    H227964   7.239   5.821   3.370
 9348TIP3   OH227965   7.848   5.854   3.537
 9348TIP3    H127966   7.921   5.822   3.594
 9348TIP3    H227967   7.768   5.834   3.590
 9349TIP3   OH227968   8.081   6.279   3.454
 9349TIP3    H127969   8.031   6.279   3.539
 9349TIP3    H227970   8.062   6.368   3.419
 9350TIP3   OH227971   7.741   6.405   2.011
 9350TIP3    H127972   7.706   6.385   1.923
 9350TIP3    H227973   7.827   6.446   1.988
 9351TIP3   OH227974   7.456   5.783   2.316
 9351TIP3    H127975   7.418   5.780   2.406
 9351TIP3    H227976   7.416   5.703   2.278
 9352TIP3   OH227977   7.235   6.237   3.362
 9352TIP3    H127978   7.180   6.263   3.438
 9352TIP3    H227979   7.222   6.316   3.304
 9353TIP3   OH227980   7.139   6.125   2.889
 9353TIP3    H127981   7.046   6.102   2.905
 9353TIP3    H227982   7.150   6.088   2.798
 9354TIP3   OH227983   7.617   6.224   2.605
 9354TIP3    H127984   7.567   6.296   2.560
 9354TIP3    H227985   7.673   6.191   2.532
 9355TIP3   OH227986   7.792   6.498   3.686
 9355TIP3    H127987   7.771   6.426   3.749
 9355TIP3    H227988   7.885   6.514   3.708
 9356TIP3   OH227989   7.768   6.248   2.841
 9356TIP3    H127990   7.708   6.276   2.768
 9356TIP3    H227991   7.808   6.170   2.797
 9357TIP3   OH227992   7.062   6.277   3.570
 9357TIP3    H127993   7.091   6.347   3.631
 9357TIP3    H227994   7.047   6.202   3.631
 9358TIP3   OH227995   7.114   5.762   2.282
 9358TIP3    H127996   7.099   5.758   2.378
 9358TIP3    H227997   7.036   5.812   2.253
 9359TIP3   OH227998   6.686   5.791   3.161
 9359TIP3    H127999   6.719   5.879   3.136
 9359TIP3    H228000   6.661   5.754   3.074
 9360TIP3   OH228001   6.628   5.783   2.670
 9360TIP3    H128002   6.668   5.821   2.589
 9360TIP3    H228003   6.563   5.855   2.688
 9361TIP3   OH228004   7.777   6.496   3.261
 9361TIP3    H128005   7.813   6.425   3.203
 9361TIP3    H228006   7.749   6.442   3.338
 9362TIP3   OH228007   7.472   5.960   2.925
 9362TIP3    H128008   7.401   5.999   2.977
 9362TIP3    H228009   7.545   5.952   2.990
 9363TIP3   OH228010   6.878   5.983   2.967
 9363TIP3    H128011   6.788   6.013   2.938
 9363TIP3    H228012   6.897   5.917   2.899
 9364TIP3   OH228013   7.151   6.010   2.638
 9364TIP3    H128014   7.245   6.028   2.616
 9364TIP3    H228015   7.104   6.035   2.556
 9365TIP3   OH228016   7.947   6.041   3.141
 9365TIP3    H128017   7.914   6.053   3.233
 9365TIP3    H228018   7.882   5.978   3.106
 9366TIP3   OH228019   7.006   6.047   2.412
 9366TIP3    H128020   6.935   6.002   2.363
 9366TIP3    H228021   7.057   6.085   2.337
 9367TIP3   OH228022   8.105   7.719   3.349
 9367TIP3    H128023   8.105   7.739   3.253
 9367TIP3    H228024   8.156   7.794   3.383
 9368TIP3   OH228025   7.075   6.834   3.777
 9368TIP3    H128026   7.154   6.865   3.825
 9368TIP3    H228027   7.009   6.834   3.849
 9369TIP3   OH228028   7.536   6.285   3.028
 9369TIP3    H128029   7.615   6.258   2.977
 9369TIP3    H228030   7.554   6.247   3.115
 9370TIP3   OH228031   7.080   5.759   2.890
 9370TIP3    H128032   7.034   5.675   2.872
 9370TIP3    H228033   7.130   5.771   2.808
 9371TIP3   OH228034   7.511   6.185   3.331
 9371TIP3    H128035   7.422   6.224   3.340
 9371TIP3    H228036   7.569   6.250   3.376
 9372TIP3   OH228037   7.249   6.576   2.418
 9372TIP3    H128038   7.177   6.511   2.405
 9372TIP3    H228039   7.228   6.610   2.508
 9373TIP3   OH228040   8.144   6.814   3.048
 9373TIP3    H128041   8.171   6.861   2.967
 9373TIP3    H228042   8.061   6.770   3.020
 9374TIP3   OH228043   7.708   5.885   2.290
 9374TIP3    H128044   7.611   5.865   2.296
 9374TIP3    H228045   7.713   5.980   2.311
 9375TIP3   OH228046   7.644   6.894   3.417
 9375TIP3    H128047   7.684   6.883   3.504
 9375TIP3    H228048   7.609   6.985   3.421
 9376TIP3   OH228049   7.774   6.139   2.389
 9376TIP3    H128050   7.871   6.144   2.402
 9376TIP3    H228051   7.755   6.219   2.335
 9377TIP3   OH228052   6.947   6.603   3.093
 9377TIP3    H128053   6.983   6.573   3.007
 9377TIP3    H228054   6.991   6.544   3.155
 9378TIP3   OH228055   7.396   6.727   2.243
 9378TIP3    H128056   7.346   6.812   2.245
 9378TIP3    H228057   7.341   6.672   2.303
 9379TIP3   OH228058   6.826   6.515   3.706
 9379TIP3    H128059   6.839   6.501   3.802
 9379TIP3    H228060   6.753   6.453   3.688
 9380TIP3   OH228061   7.553   6.636   3.727
 9380TIP3    H128062   7.492   6.578   3.679
 9380TIP3    H228063   7.640   6.600   3.698
 9381TIP3   OH228064   7.806   7.157   3.313
 9381TIP3    H128065   7.709   7.157   3.327
 9381TIP3    H228066   7.835   7.208   3.392
 9382TIP3   OH228067   8.214   6.230   2.220
 9382TIP3    H128068   8.152   6.186   2.157
 9382TIP3    H228069   8.212   6.319   2.179
 9383TIP3   OH228070   8.437   7.089   3.301
 9383TIP3    H128071   8.339   7.085   3.293
 9383TIP3    H228072   8.462   7.061   3.210
 9384TIP3   OH228073   7.923   7.033   2.132
 9384TIP3    H128074   7.889   6.967   2.194
 9384TIP3    H228075   7.931   6.984   2.049
 9385TIP3   OH228076   7.913   6.678   2.959
 9385TIP3    H128077   7.819   6.654   2.973
 9385TIP3    H228078   7.946   6.598   2.915
 9386TIP3   OH228079   7.046   6.907   2.721
 9386TIP3    H128080   7.042   6.987   2.666
 9386TIP3    H228081   6.952   6.886   2.731
 9387TIP3   OH228082   6.612   6.207   2.428
 9387TIP3    H128083   6.654   6.293   2.449
 9387TIP3    H228084   6.532   6.211   2.486
 9388TIP3   OH228085   7.172   6.667   2.660
 9388TIP3    H128086   7.142   6.757   2.680
 9388TIP3    H228087   7.138   6.618   2.738
 9389TIP3   OH228088   7.316   7.246   3.187
 9389TIP3    H128089   7.357   7.319   3.136
 9389TIP3    H228090   7.392   7.209   3.234
 9390TIP3   OH228091   6.962   7.143   2.571
 9390TIP3    H128092   6.876   7.153   2.618
 9390TIP3    H228093   6.994   7.236   2.574
 9391TIP3   OH228094   7.697   6.882   3.149
 9391TIP3    H128095   7.686   6.879   3.247
 9391TIP3    H228096   7.778   6.831   3.137
 9392TIP3   OH228097   7.680   6.778   2.033
 9392TIP3    H128098   7.732   6.752   2.112
 9392TIP3    H228099   7.591   6.748   2.059
 9393TIP3   OH228100   7.946   7.408   3.194
 9393TIP3    H128101   7.868   7.350   3.196
 9393TIP3    H228102   7.921   7.472   3.125
 9394TIP3   OH228103   8.025   7.233   1.887
 9394TIP3    H128104   8.085   7.309   1.891
 9394TIP3    H228105   7.942   7.273   1.920
 9395TIP3   OH228106   7.032   6.020   3.712
 9395TIP3    H128107   6.936   6.026   3.725
 9395TIP3    H228108   7.059   5.967   3.789
 9396TIP3   OH228109   7.840   6.712   2.248
 9396TIP3    H128110   7.829   6.643   2.317
 9396TIP3    H228111   7.937   6.705   2.233
 9397TIP3   OH228112   6.752   7.108   3.344
 9397TIP3    H128113   6.807   7.036   3.380
 9397TIP3    H228114   6.777   7.181   3.403
 9398TIP3   OH228115   7.040   6.754   2.031
 9398TIP3    H128116   7.052   6.661   2.005
 9398TIP3    H228117   7.018   6.745   2.126
 9399TIP3   OH228118   6.984   6.761   2.302
 9399TIP3    H128119   7.059   6.734   2.356
 9399TIP3    H228120   6.987   6.859   2.310
 9400TIP3   OH228121   6.720   6.454   2.508
 9400TIP3    H128122   6.652   6.498   2.563
 9400TIP3    H228123   6.731   6.521   2.438
 9401TIP3   OH228124   7.872   6.093   3.401
 9401TIP3    H128125   7.957   6.131   3.430
 9401TIP3    H228126   7.865   6.012   3.455
 9402TIP3   OH228127   7.754   5.837   2.569
 9402TIP3    H128128   7.741   5.857   2.474
 9402TIP3    H228129   7.794   5.920   2.603
 9403TIP3   OH228130   7.253   6.956   2.250
 9403TIP3    H128131   7.166   6.980   2.287
 9403TIP3    H228132   7.268   7.032   2.191
 9404TIP3   OH228133   7.434   6.025   2.661
 9404TIP3    H128134   7.499   6.097   2.642
 9404TIP3    H228135   7.450   6.012   2.756
 9405TIP3   OH228136   7.710   6.333   3.469
 9405TIP3    H128137   7.737   6.384   3.548
 9405TIP3    H228138   7.766   6.253   3.475
 9406TIP3   OH228139   7.580   5.738   2.762
 9406TIP3    H128140   7.574   5.815   2.820
 9406TIP3    H228141   7.645   5.771   2.695
 9407TIP3   OH228142   6.999   7.033   2.321
 9407TIP3    H128143   6.969   7.103   2.259
 9407TIP3    H228144   6.982   7.075   2.408
 9408TIP3   OH228145   7.096   5.747   2.561
 9408TIP3    H128146   7.097   5.841   2.587
 9408TIP3    H228147   7.192   5.729   2.563
 9409TIP3   OH228148   8.351   6.239   3.450
 9409TIP3    H128149   8.253   6.238   3.457
 9409TIP3    H228150   8.362   6.188   3.368
 9410TIP3   OH228151   7.995   6.436   2.838
 9410TIP3    H128152   7.922   6.373   2.852
 9410TIP3    H228153   8.070   6.393   2.886
 9411TIP3   OH228154   6.716   6.655   2.310
 9411TIP3    H128155   6.787   6.721   2.319
 9411TIP3    H228156   6.758   6.597   2.243
 9412TIP3   OH228157   6.655   5.936   2.444
 9412TIP3    H128158   6.655   6.033   2.444
 9412TIP3    H228159   6.571   5.916   2.402
 9413TIP3   OH228160   7.972   7.400   2.778
 9413TIP3    H128161   7.942   7.458   2.705
 9413TIP3    H228162   8.067   7.396   2.763
 9414TIP3   OH228163   6.581   6.878   2.693
 9414TIP3    H128164   6.518   6.906   2.761
 9414TIP3    H228165   6.544   6.921   2.613
 9415TIP3   OH228166   6.746   7.427   3.767
 9415TIP3    H128167   6.831   7.429   3.816
 9415TIP3    H228168   6.726   7.332   3.768
 9416TIP3   OH228169   7.218   7.377   3.815
 9416TIP3    H128170   7.313   7.364   3.820
 9416TIP3    H228171   7.194   7.315   3.743
 9417TIP3   OH228172   7.202   6.956   1.939
 9417TIP3    H128173   7.147   6.884   1.977
 9417TIP3    H228174   7.279   6.905   1.907
 9418TIP3   OH228175   7.860   7.289   3.548
 9418TIP3    H128176   7.855   7.220   3.618
 9418TIP3    H228177   7.937   7.342   3.578
 9419TIP3   OH228178   7.636   6.994   1.858
 9419TIP3    H128179   7.678   6.927   1.916
 9419TIP3    H228180   7.690   6.990   1.776
 9420TIP3   OH228181   6.872   6.826   3.968
 9420TIP3    H128182   6.887   6.730   3.975
 9420TIP3    H228183   6.785   6.829   3.923
 9421TIP3   OH228184   6.851   6.470   2.165
 9421TIP3    H128185   6.908   6.441   2.239
 9421TIP3    H228186   6.917   6.476   2.093
 9422TIP3   OH228187   7.478   6.913   3.744
 9422TIP3    H128188   7.439   6.935   3.657
 9422TIP3    H228189   7.510   6.822   3.731
 9423TIP3   OH228190   7.368   6.675   1.973
 9423TIP3    H128191   7.368   6.686   2.070
 9423TIP3    H228192   7.368   6.577   1.966
 9424TIP3   OH228193   7.970   6.926   3.352
 9424TIP3    H128194   8.048   6.965   3.307
 9424TIP3    H228195   7.903   6.996   3.334
 9425TIP3   OH228196   6.992   6.563   3.956
 9425TIP3    H128197   7.070   6.516   3.926
 9425TIP3    H228198   7.021   6.596   4.043
 9426TIP3   OH228199   7.055   6.381   2.382
 9426TIP3    H128200   7.027   6.338   2.464
 9426TIP3    H228201   7.094   6.306   2.332
 9427TIP3   OH228202   7.326   6.441   3.612
 9427TIP3    H128203   7.249   6.501   3.614
 9427TIP3    H228204   7.377   6.476   3.536
 9428TIP3   OH228205   7.160   6.177   2.225
 9428TIP3    H128206   7.135   6.184   2.130
 9428TIP3    H228207   7.258   6.178   2.217
 9429TIP3   OH228208   7.844   6.845   3.745
 9429TIP3    H128209   7.922   6.816   3.697
 9429TIP3    H228210   7.839   6.781   3.818
 9430TIP3   OH228211   7.972   6.498   1.897
 9430TIP3    H128212   7.962   6.456   1.809
 9430TIP3    H228213   7.941   6.589   1.873
 9431TIP3   OH228214   7.452   6.234   3.736
 9431TIP3    H128215   7.450   6.156   3.678
 9431TIP3    H228216   7.408   6.302   3.681
 9432TIP3   OH228217   7.448   6.014   3.546
 9432TIP3    H128218   7.481   6.062   3.467
 9432TIP3    H228219   7.355   5.998   3.521
 9433TIP3   OH228220   7.476   6.553   3.420
 9433TIP3    H128221   7.563   6.571   3.381
 9433TIP3    H228222   7.419   6.618   3.373
 9434TIP3   OH228223   8.060   6.520   3.796
 9434TIP3    H128224   8.110   6.437   3.802
 9434TIP3    H228225   8.127   6.580   3.759
 9435TIP3   OH228226   8.101   6.775   3.534
 9435TIP3    H128227   8.045   6.832   3.476
 9435TIP3    H228228   8.190   6.797   3.496
 9436TIP3   OH228229   7.332   6.337   3.973
 9436TIP3    H128230   7.262   6.269   3.989
 9436TIP3    H228231   7.362   6.313   3.883
 9437TIP3   OH228232   7.586   5.785   3.624
 9437TIP3    H128233   7.536   5.865   3.599
 9437TIP3    H228234   7.518   5.716   3.613
 9438TIP3   OH228235   7.711   6.281   3.832
 9438TIP3    H128236   7.693   6.270   3.927
 9438TIP3    H228237   7.622   6.260   3.797
 9439TIP3   OH228238   7.950   6.238   3.687
 9439TIP3    H128239   7.876   6.239   3.751
 9439TIP3    H228240   8.025   6.208   3.743
 9440TIP3   OH228241   8.178   6.176   3.837
 9440TIP3    H128242   8.190   6.080   3.852
 9440TIP3    H228243   8.176   6.213   3.928
 9441TIP3   OH228244   7.167   6.119   4.028
 9441TIP3    H128245   7.170   6.026   3.996
 9441TIP3    H228246   7.204   6.108   4.118
 9442TIP3   OH228247   7.681   5.785   3.881
 9442TIP3    H128248   7.747   5.714   3.871
 9442TIP3    H228249   7.640   5.787   3.792
 9443TIP3   OH228250   7.745   6.003   4.037
 9443TIP3    H128251   7.722   5.934   3.971
 9443TIP3    H228252   7.668   6.064   4.030
 9444TIP3   OH228253   6.970   7.237   2.134
 9444TIP3    H128254   7.064   7.226   2.113
 9444TIP3    H228255   6.941   7.288   2.056
 9445TIP3   OH228256   6.446   6.618   2.345
 9445TIP3    H128257   6.541   6.638   2.331
 9445TIP3    H228258   6.439   6.529   2.304
 9446TIP3   OH228259   6.363   7.228   2.764
 9446TIP3    H128260   6.298   7.167   2.724
 9446TIP3    H228261   6.407   7.168   2.828
 9447TIP3   OH228262   6.496   7.074   2.950
 9447TIP3    H128263   6.483   7.004   3.017
 9447TIP3    H228264   6.548   7.138   3.002
 9448TIP3   OH228265   8.278   7.485   3.037
 9448TIP3    H128266   8.225   7.406   3.019
 9448TIP3    H228267   8.323   7.454   3.119
 9449TIP3   OH228268   8.297   7.172   3.605
 9449TIP3    H128269   8.226   7.184   3.671
 9449TIP3    H228270   8.341   7.259   3.606
 9450TIP3   OH228271   8.118   6.687   2.223
 9450TIP3    H128272   8.187   6.748   2.191
 9450TIP3    H228273   8.161   6.650   2.303
 9451TIP3   OH228274   8.244   6.561   2.432
 9451TIP3    H128275   8.175   6.517   2.488
 9451TIP3    H228276   8.305   6.596   2.499
 9452TIP3   OH228277   8.287   6.941   2.857
 9452TIP3    H128278   8.347   6.877   2.813
 9452TIP3    H228279   8.302   7.022   2.804
 9453TIP3   OH228280   8.125   7.250   3.046
 9453TIP3    H128281   8.056   7.290   3.102
 9453TIP3    H228282   8.073   7.199   2.981
 9454TIP3   OH228283   8.180   6.463   2.071
 9454TIP3    H128284   8.108   6.464   2.003
 9454TIP3    H228285   8.151   6.539   2.125
 9455TIP3   OH228286   8.051   6.136   2.025
 9455TIP3    H128287   8.008   6.173   1.947
 9455TIP3    H228288   8.027   6.041   2.016
 9456TIP3   OH228289   8.055   6.416   2.571
 9456TIP3    H128290   8.065   6.320   2.564
 9456TIP3    H228291   8.040   6.429   2.667
 9457TIP3   OH228292   6.682   6.485   3.324
 9457TIP3    H128293   6.677   6.453   3.231
 9457TIP3    H228294   6.780   6.486   3.337
 9458TIP3   OH228295   8.349   6.840   3.430
 9458TIP3    H128296   8.423   6.775   3.420
 9458TIP3    H228297   8.377   6.910   3.369
 9459TIP3   OH228298   8.532   6.640   3.455
 9459TIP3    H128299   8.454   6.592   3.489
 9459TIP3    H228300   8.602   6.572   3.469
 9460TIP3   OH228301   7.993   5.871   2.007
 9460TIP3    H128302   8.065   5.839   2.065
 9460TIP3    H228303   7.919   5.812   2.028
 9461TIP3   OH228304   8.054   6.132   2.463
 9461TIP3    H128305   8.095   6.043   2.478
 9461TIP3    H228306   8.111   6.165   2.392
 9462TIP3   OH228307   8.207   6.311   2.957
 9462TIP3    H128308   8.295   6.329   2.917
 9462TIP3    H228309   8.227   6.336   3.049
 9463TIP3   OH228310   8.285   6.448   3.196
 9463TIP3    H128311   8.207   6.484   3.242
 9463TIP3    H228312   8.316   6.526   3.145
 9464TIP3   OH228313   6.901   6.171   3.996
 9464TIP3    H128314   6.998   6.166   4.001
 9464TIP3    H228315   6.877   6.084   4.033
 9465TIP3   OH228316   8.736   6.041   3.746
 9465TIP3    H128317   8.796   5.980   3.698
 9465TIP3    H228318   8.703   6.096   3.672
 9466TIP3   OH228319   8.163   5.882   2.504
 9466TIP3    H128320   8.212   5.866   2.587
 9466TIP3    H228321   8.102   5.806   2.504
 9467TIP3   OH228322   6.664   6.134   3.402
 9467TIP3    H128323   6.716   6.143   3.319
 9467TIP3    H228324   6.677   6.220   3.443
 9468TIP3   OH228325   8.603   6.180   3.554
 9468TIP3    H128326   8.513   6.216   3.560
 9468TIP3    H228327   8.590   6.113   3.485
 9469TIP3   OH228328   8.236   5.812   2.138
 9469TIP3    H128329   8.277   5.743   2.082
 9469TIP3    H228330   8.303   5.884   2.135
 9470TIP3   OH228331   6.640   5.672   2.916
 9470TIP3    H128332   6.548   5.644   2.931
 9470TIP3    H228333   6.635   5.714   2.827
 9471TIP3   OH228334   7.813   7.355   2.422
 9471TIP3    H128335   7.833   7.336   2.328
 9471TIP3    H228336   7.903   7.367   2.454
 9472TIP3   OH228337   6.870   5.721   3.712
 9472TIP3    H128338   6.816   5.716   3.793
 9472TIP3    H228339   6.805   5.760   3.650
 9473TIP3   OH228340   6.907   7.152   3.787
 9473TIP3    H128341   6.813   7.129   3.773
 9473TIP3    H228342   6.918   7.135   3.881
 9474TIP3   OH228343   7.090   7.187   3.337
 9474TIP3    H128344   7.042   7.263   3.298
 9474TIP3    H228345   7.176   7.201   3.292
 9475TIP3   OH228346   7.527   7.428   3.473
 9475TIP3    H128347   7.568   7.427   3.561
 9475TIP3    H228348   7.593   7.480   3.423
 9476TIP3   OH228349   7.708   7.582   3.338
 9476TIP3    H128350   7.782   7.532   3.300
 9476TIP3    H228351   7.758   7.643   3.398
 9477TIP3   OH228352   8.487   5.929   3.440
 9477TIP3    H128353   8.397   5.907   3.410
 9477TIP3    H228354   8.532   5.843   3.425
 9478TIP3   OH228355   6.764   7.443   3.361
 9478TIP3    H128356   6.672   7.472   3.342
 9478TIP3    H228357   6.779   7.485   3.447
 9479TIP3   OH228358   7.000   7.421   3.221
 9479TIP3    H128359   6.913   7.432   3.264
 9479TIP3    H228360   6.981   7.449   3.129
 9480TIP3   OH228361   7.422   7.445   3.018
 9480TIP3    H128362   7.353   7.465   2.953
 9480TIP3    H228363   7.435   7.532   3.061
 9481TIP3   OH228364   7.688   7.380   3.072
 9481TIP3    H128365   7.595   7.400   3.052
 9481TIP3    H228366   7.734   7.456   3.031
 9482TIP3   OH228367   7.873   7.565   2.968
 9482TIP3    H128368   7.859   7.641   2.908
 9482TIP3    H228369   7.905   7.497   2.905
 9483TIP3   OH228370   6.674   7.235   3.106
 9483TIP3    H128371   6.702   7.205   3.195
 9483TIP3    H228372   6.745   7.192   3.053
 9484TIP3   OH228373   6.869   7.108   2.966
 9484TIP3    H128374   6.884   7.024   3.015
 9484TIP3    H228375   6.961   7.143   2.962
 9485TIP3   OH228376   7.138   7.198   2.971
 9485TIP3    H128377   7.166   7.105   2.961
 9485TIP3    H228378   7.187   7.221   3.052
 9486TIP3   OH228379   7.707   5.855   3.050
 9486TIP3    H128380   7.670   5.778   3.096
 9486TIP3    H228381   7.785   5.816   3.005
 9487TIP3   OH228382   8.231   5.732   2.956
 9487TIP3    H128383   8.270   5.786   2.883
 9487TIP3    H228384   8.138   5.759   2.953
 9488TIP3   OH228385   8.329   5.836   2.721
 9488TIP3    H128386   8.402   5.783   2.682
 9488TIP3    H228387   8.365   5.926   2.707
 9489TIP3   OH228388   6.959   5.576   3.093
 9489TIP3    H128389   6.865   5.547   3.094
 9489TIP3    H228390   7.002   5.488   3.089
 9490TIP3   OH228391   6.760   5.439   2.721
 9490TIP3    H128392   6.781   5.492   2.642
 9490TIP3    H228393   6.719   5.503   2.780
 9491TIP3   OH228394   7.403   5.604   2.959
 9491TIP3    H128395   7.450   5.645   2.885
 9491TIP3    H228396   7.461   5.626   3.034
 9492TIP3   OH228397   7.938   5.742   2.936
 9492TIP3    H128398   7.951   5.701   2.850
 9492TIP3    H228399   7.931   5.663   2.994
 9493TIP3   OH228400   7.979   5.670   2.498
 9493TIP3    H128401   7.892   5.712   2.514
 9493TIP3    H228402   7.965   5.583   2.541
 9494TIP3   OH228403   6.461   7.012   2.492
 9494TIP3    H128404   6.375   6.978   2.461
 9494TIP3    H228405   6.453   7.105   2.462
 9495TIP3   OH228406   6.865   5.592   2.479
 9495TIP3    H128407   6.910   5.528   2.422
 9495TIP3    H228408   6.941   5.644   2.514
 9496TIP3   OH228409   7.370   5.773   2.580
 9496TIP3    H128410   7.436   5.726   2.635
 9496TIP3    H228411   7.394   5.866   2.601
 9497TIP3   OH228412   7.235   7.188   2.080
 9497TIP3    H128413   7.322   7.213   2.042
 9497TIP3    H228414   7.212   7.115   2.019
 9498TIP3   OH228415   7.919   7.302   2.183
 9498TIP3    H128416   7.929   7.205   2.167
 9498TIP3    H228417   7.883   7.333   2.098
 9499TIP3   OH228418   7.165   5.845   3.959
 9499TIP3    H128419   7.127   5.775   4.016
 9499TIP3    H228420   7.258   5.844   3.989
 9500TIP3   OH228421   7.415   5.842   4.079
 9500TIP3    H128422   7.501   5.817   4.040
 9500TIP3    H228423   7.402   5.771   4.145
 9501TIP3   OH228424   6.537   7.028   2.132
 9501TIP3    H128425   6.540   7.047   2.226
 9501TIP3    H228426   6.625   6.985   2.116
 9502TIP3   OH228427   8.238   5.900   3.866
 9502TIP3    H128428   8.263   5.871   3.956
 9502TIP3    H228429   8.325   5.903   3.821
 9503TIP3   OH228430   8.167   7.452   3.369
 9503TIP3    H128431   8.093   7.423   3.312
 9503TIP3    H228432   8.154   7.549   3.365
 9504TIP3   OH228433   8.732   6.713   2.879
 9504TIP3    H128434   8.768   6.652   2.947
 9504TIP3    H228435   8.812   6.751   2.842
 9505TIP3   OH228436   8.416   6.341   2.373
 9505TIP3    H128437   8.363   6.421   2.392
 9505TIP3    H228438   8.348   6.285   2.331
 9506TIP3   OH228439   8.487   6.624   2.556
 9506TIP3    H128440   8.533   6.548   2.598
 9506TIP3    H228441   8.526   6.622   2.468
 9507TIP3   OH228442   8.632   6.424   2.665
 9507TIP3    H128443   8.723   6.432   2.696
 9507TIP3    H228444   8.643   6.357   2.594
 9508TIP3   OH228445   8.318   6.860   2.105
 9508TIP3    H128446   8.281   6.870   2.014
 9508TIP3    H228447   8.295   6.945   2.145
 9509TIP3   OH228448   8.492   6.987   3.052
 9509TIP3    H128449   8.421   6.959   2.992
 9509TIP3    H228450   8.523   6.903   3.092
 9510TIP3   OH228451   8.359   7.174   2.719
 9510TIP3    H128452   8.436   7.179   2.663
 9510TIP3    H228453   8.337   7.268   2.730
 9511TIP3   OH228454   8.761   7.054   3.004
 9511TIP3    H128455   8.775   7.089   3.093
 9511TIP3    H228456   8.666   7.031   3.008
 9512TIP3   OH228457   8.843   6.542   3.068
 9512TIP3    H128458   8.865   6.594   3.146
 9512TIP3    H228459   8.841   6.451   3.106
 9513TIP3   OH228460   8.459   6.055   2.631
 9513TIP3    H128461   8.533   6.098   2.678
 9513TIP3    H228462   8.503   6.021   2.552
 9514TIP3   OH228463   8.414   6.040   2.154
 9514TIP3    H128464   8.458   6.080   2.076
 9514TIP3    H228465   8.353   6.113   2.178
 9515TIP3   OH228466   8.670   6.272   2.446
 9515TIP3    H128467   8.580   6.291   2.410
 9515TIP3    H228468   8.695   6.193   2.396
 9516TIP3   OH228469   8.594   6.789   3.206
 9516TIP3    H128470   8.641   6.775   3.289
 9516TIP3    H228471   8.551   6.703   3.191
 9517TIP3   OH228472   8.404   6.456   1.909
 9517TIP3    H128473   8.454   6.536   1.938
 9517TIP3    H228474   8.324   6.464   1.966
 9518TIP3   OH228475   8.812   6.298   3.199
 9518TIP3    H128476   8.715   6.310   3.206
 9518TIP3    H228477   8.820   6.211   3.240
 9519TIP3   OH228478   8.514   6.695   1.984
 9519TIP3    H128479   8.455   6.749   2.040
 9519TIP3    H228480   8.511   6.742   1.898
 9520TIP3   OH228481   8.453   6.190   1.930
 9520TIP3    H128482   8.451   6.288   1.931
 9520TIP3    H228483   8.370   6.170   1.885
 9521TIP3   OH228484   8.901   5.838   2.797
 9521TIP3    H128485   8.870   5.869   2.710
 9521TIP3    H228486   8.829   5.873   2.854
 9522TIP3   OH228487   8.647   7.084   3.480
 9522TIP3    H128488   8.703   7.019   3.436
 9522TIP3    H228489   8.570   7.087   3.420
 9523TIP3   OH228490   8.802   6.817   3.429
 9523TIP3    H128491   8.839   6.729   3.440
 9523TIP3    H228492   8.814   6.856   3.518
 9524TIP3   OH228493   8.967   6.373   3.512
 9524TIP3    H128494   8.975   6.279   3.488
 9524TIP3    H228495   8.988   6.370   3.607
 9525TIP3   OH228496   8.250   6.870   1.840
 9525TIP3    H128497   8.340   6.865   1.801
 9525TIP3    H228498   8.216   6.785   1.802
 9526TIP3   OH228499   8.475   6.749   2.805
 9526TIP3    H128500   8.478   6.710   2.715
 9526TIP3    H228501   8.570   6.744   2.830
 9527TIP3   OH228502   8.702   6.434   3.492
 9527TIP3    H128503   8.799   6.421   3.481
 9527TIP3    H228504   8.677   6.345   3.525
 9528TIP3   OH228505   8.667   6.130   2.793
 9528TIP3    H128506   8.661   6.049   2.847
 9528TIP3    H228507   8.728   6.183   2.845
 9529TIP3   OH228508   8.455   6.397   2.879
 9529TIP3    H128509   8.512   6.393   2.799
 9529TIP3    H228510   8.490   6.474   2.924
 9530TIP3   OH228511   8.437   5.888   2.378
 9530TIP3    H128512   8.346   5.890   2.413
 9530TIP3    H228513   8.433   5.953   2.305
 9531TIP3   OH228514   8.688   6.046   3.277
 9531TIP3    H128515   8.607   6.012   3.316
 9531TIP3    H228516   8.677   6.016   3.184
 9532TIP3   OH228517   8.743   5.825   2.560
 9532TIP3    H128518   8.651   5.791   2.560
 9532TIP3    H228519   8.793   5.744   2.554
 9533TIP3   OH228520   8.546   5.697   2.210
 9533TIP3    H128521   8.544   5.761   2.137
 9533TIP3    H228522   8.514   5.752   2.284
 9534TIP3   OH228523   8.641   5.861   1.975
 9534TIP3    H128524   8.699   5.785   1.991
 9534TIP3    H228525   8.688   5.931   2.023
 9535TIP3   OH228526   9.005   6.102   3.477
 9535TIP3    H128527   8.963   6.023   3.516
 9535TIP3    H228528   9.060   6.064   3.407
 9536TIP3   OH228529   0.930   6.919   4.744
 9536TIP3    H128530   0.969   7.008   4.735
 9536TIP3    H228531   0.948   6.887   4.653
 9537TIP3   OH228532   0.348   6.801   4.396
 9537TIP3    H128533   0.410   6.827   4.466
 9537TIP3    H228534   0.336   6.883   4.346
 9538TIP3   OH228535   0.565   6.853   4.598
 9538TIP3    H128536   0.587   6.760   4.587
 9538TIP3    H228537   0.640   6.897   4.556
 9539TIP3   OH228538   0.696   6.878   4.909
 9539TIP3    H128539   0.627   6.846   4.849
 9539TIP3    H228540   0.776   6.873   4.853
 9540TIP3   OH228541   0.634   7.828   4.906
 9540TIP3    H128542   0.628   7.738   4.867
 9540TIP3    H228543   0.576   7.877   4.847
 9541TIP3   OH228544   0.842   7.439   4.745
 9541TIP3    H128545   0.758   7.487   4.760
 9541TIP3    H228546   0.868   7.475   4.659
 9542TIP3   OH228547   0.641   6.392   4.005
 9542TIP3    H128548   0.556   6.412   4.051
 9542TIP3    H228549   0.653   6.474   3.953
 9543TIP3   OH228550   0.446   7.747   3.559
 9543TIP3    H128551   0.448   7.842   3.533
 9543TIP3    H228552   0.539   7.721   3.540
 9544TIP3   OH228553   0.913   8.148   4.974
 9544TIP3    H128554   0.899   8.053   4.994
 9544TIP3    H228555   0.823   8.177   4.953
 9545TIP3   OH228556   0.734   7.236   5.156
 9545TIP3    H128557   0.672   7.306   5.183
 9545TIP3    H228558   0.751   7.197   5.244
 9546TIP3   OH228559   0.287   7.184   3.635
 9546TIP3    H128560   0.220   7.182   3.565
 9546TIP3    H228561   0.293   7.277   3.657
 9547TIP3   OH228562   0.615   7.601   4.751
 9547TIP3    H128563   0.635   7.647   4.667
 9547TIP3    H228564   0.519   7.586   4.747
 9548TIP3   OH228565   0.241   6.901   4.012
 9548TIP3    H128566   0.330   6.906   4.054
 9548TIP3    H228567   0.210   6.992   4.023
 9549TIP3   OH228568   0.672   7.017   3.908
 9549TIP3    H128569   0.609   6.974   3.845
 9549TIP3    H228570   0.667   7.108   3.870
 9550TIP3   OH228571   0.886   7.873   4.991
 9550TIP3    H128572   0.789   7.869   4.973
 9550TIP3    H228573   0.920   7.842   4.904
 9551TIP3   OH228574   0.335   7.794   3.811
 9551TIP3    H128575   0.396   7.751   3.872
 9551TIP3    H228576   0.379   7.782   3.725
 9552TIP3   OH228577   0.468   8.016   3.533
 9552TIP3    H128578   0.534   8.085   3.518
 9552TIP3    H228579   0.388   8.069   3.551
 9553TIP3   OH228580   0.486   7.167   4.510
 9553TIP3    H128581   0.406   7.207   4.548
 9553TIP3    H228582   0.508   7.097   4.574
 9554TIP3   OH228583   0.504   7.321   3.536
 9554TIP3    H128584   0.443   7.245   3.532
 9554TIP3    H228585   0.442   7.395   3.519
 9555TIP3   OH228586   0.717   6.970   5.589
 9555TIP3    H128587   0.722   6.873   5.589
 9555TIP3    H228588   0.620   6.982   5.586
 9556TIP3   OH228589   0.681   8.251   4.493
 9556TIP3    H128590   0.697   8.343   4.524
 9556TIP3    H228591   0.697   8.264   4.399
 9557TIP3   OH228592   0.717   8.237   4.776
 9557TIP3    H128593   0.661   8.218   4.698
 9557TIP3    H228594   0.800   8.199   4.747
 9558TIP3   OH228595   0.744   7.967   5.300
 9558TIP3    H128596   0.670   8.007   5.252
 9558TIP3    H228597   0.800   8.046   5.317
 9559TIP3   OH228598   0.579   7.478   3.902
 9559TIP3    H128599   0.651   7.538   3.875
 9559TIP3    H228600   0.615   7.441   3.985
 9560TIP3   OH228601   0.706   7.352   4.110
 9560TIP3    H128602   0.637   7.300   4.158
 9560TIP3    H228603   0.760   7.386   4.184
 9561TIP3   OH228604   0.753   7.739   4.553
 9561TIP3    H128605   0.804   7.670   4.506
 9561TIP3    H228606   0.765   7.817   4.494
 9562TIP3   OH228607   0.642   7.252   3.762
 9562TIP3    H128608   0.588   7.266   3.681
 9562TIP3    H228609   0.608   7.326   3.817
 9563TIP3   OH228610   0.511   6.929   3.709
 9563TIP3    H128611   0.446   6.970   3.650
 9563TIP3    H228612   0.490   6.834   3.697
 9564TIP3   OH228613   0.536   7.191   4.242
 9564TIP3    H128614   0.506   7.102   4.215
 9564TIP3    H228615   0.517   7.189   4.338
 9565TIP3   OH228616   0.793   7.636   5.138
 9565TIP3    H128617   0.852   7.559   5.123
 9565TIP3    H228618   0.818   7.696   5.066
 9566TIP3   OH228619   0.962   7.420   5.137
 9566TIP3    H128620   0.904   7.343   5.143
 9566TIP3    H228621   1.049   7.378   5.149
 9567TIP3   OH228622   0.470   6.659   3.689
 9567TIP3    H128623   0.544   6.636   3.748
 9567TIP3    H228624   0.395   6.614   3.734
 9568TIP3   OH228625   0.503   6.925   4.141
 9568TIP3    H128626   0.534   6.836   4.169
 9568TIP3    H228627   0.568   6.947   4.072
 9569TIP3   OH228628   0.687   7.152   4.730
 9569TIP3    H128629   0.770   7.134   4.679
 9569TIP3    H228630   0.651   7.224   4.676
 9570TIP3   OH228631   1.186   6.827   5.430
 9570TIP3    H128632   1.247   6.758   5.395
 9570TIP3    H228633   1.168   6.881   5.350
 9571TIP3   OH228634   0.619   6.671   4.192
 9571TIP3    H128635   0.662   6.648   4.276
 9571TIP3    H228636   0.551   6.601   4.186
 9572TIP3   OH228637   1.053   6.973   5.235
 9572TIP3    H128638   0.991   7.006   5.304
 9572TIP3    H228639   1.005   6.897   5.197
 9573TIP3   OH228640   0.701   6.600   3.832
 9573TIP3    H128641   0.736   6.530   3.773
 9573TIP3    H228642   0.769   6.670   3.824
 9574TIP3   OH228643   0.955   6.719   5.134
 9574TIP3    H128644   0.866   6.690   5.106
 9574TIP3    H228645   1.004   6.634   5.122
 9575TIP3   OH228646   0.679   6.566   4.670
 9575TIP3    H128647   0.721   6.583   4.583
 9575TIP3    H228648   0.586   6.546   4.645
 9576TIP3   OH228649   0.776   6.620   4.421
 9576TIP3    H128650   0.845   6.564   4.380
 9576TIP3    H228651   0.814   6.709   4.399
 9577TIP3   OH228652   0.406   6.538   4.625
 9577TIP3    H128653   0.379   6.536   4.532
 9577TIP3    H228654   0.394   6.445   4.653
 9578TIP3   OH228655   0.437   6.458   4.184
 9578TIP3    H128656   0.345   6.477   4.159
 9578TIP3    H228657   0.427   6.369   4.224
 9579TIP3   OH228658   0.700   6.696   5.558
 9579TIP3    H128659   0.716   6.667   5.651
 9579TIP3    H228660   0.791   6.689   5.520
 9580TIP3   OH228661   1.910   7.625   3.813
 9580TIP3    H128662   1.892   7.719   3.794
 9580TIP3    H228663   1.820   7.593   3.819
 9581TIP3   OH228664   1.887   7.615   4.207
 9581TIP3    H128665   1.933   7.601   4.292
 9581TIP3    H228666   1.854   7.525   4.190
 9582TIP3   OH228667   1.198   7.508   4.560
 9582TIP3    H128668   1.223   7.438   4.623
 9582TIP3    H228669   1.268   7.573   4.578
 9583TIP3   OH228670   2.140   7.918   3.880
 9583TIP3    H128671   2.136   7.852   3.951
 9583TIP3    H228672   2.170   7.997   3.929
 9584TIP3   OH228673   1.171   7.927   4.287
 9584TIP3    H128674   1.160   7.830   4.289
 9584TIP3    H228675   1.268   7.934   4.279
 9585TIP3   OH228676   0.876   7.126   4.065
 9585TIP3    H128677   0.824   7.207   4.084
 9585TIP3    H228678   0.807   7.072   4.023
 9586TIP3   OH228679   0.934   7.414   4.257
 9586TIP3    H128680   0.982   7.334   4.286
 9586TIP3    H228681   0.982   7.439   4.177
 9587TIP3   OH228682   1.796   8.361   3.933
 9587TIP3    H128683   1.836   8.313   3.857
 9587TIP3    H228684   1.812   8.298   4.004
 9588TIP3   OH228685   1.699   7.841   4.241
 9588TIP3    H128686   1.746   7.761   4.211
 9588TIP3    H228687   1.778   7.894   4.266
 9589TIP3   OH228688   2.711   7.163   4.242
 9589TIP3    H128689   2.742   7.246   4.284
 9589TIP3    H228690   2.737   7.179   4.149
 9590TIP3   OH228691   2.109   7.345   4.272
 9590TIP3    H128692   2.153   7.261   4.296
 9590TIP3    H228693   2.076   7.323   4.183
 9591TIP3   OH228694   1.449   7.005   4.237
 9591TIP3    H128695   1.427   7.076   4.173
 9591TIP3    H228696   1.403   6.929   4.195
 9592TIP3   OH228697   2.143   7.102   3.856
 9592TIP3    H128698   2.212   7.085   3.925
 9592TIP3    H228699   2.201   7.131   3.783
 9593TIP3   OH228700   1.078   7.201   4.349
 9593TIP3    H128701   1.161   7.183   4.397
 9593TIP3    H228702   1.091   7.146   4.270
 9594TIP3   OH228703   1.529   7.401   4.115
 9594TIP3    H128704   1.620   7.378   4.145
 9594TIP3    H228705   1.489   7.311   4.106
 9595TIP3   OH228706   2.786   7.373   4.411
 9595TIP3    H128707   2.700   7.417   4.395
 9595TIP3    H228708   2.805   7.404   4.501
 9596TIP3   OH228709   1.442   6.987   4.676
 9596TIP3    H128710   1.383   7.024   4.608
 9596TIP3    H228711   1.391   7.004   4.757
 9597TIP3   OH228712   1.760   7.822   3.684
 9597TIP3    H128713   1.758   7.829   3.588
 9597TIP3    H228714   1.726   7.911   3.710
 9598TIP3   OH228715   1.548   7.763   4.463
 9598TIP3    H128716   1.489   7.831   4.503
 9598TIP3    H228717   1.592   7.814   4.392
 9599TIP3   OH228718   2.343   7.105   4.039
 9599TIP3    H128719   2.337   7.055   4.122
 9599TIP3    H228720   2.398   7.181   4.066
 9600TIP3   OH228721   1.314   7.101   4.457
 9600TIP3    H128722   1.375   7.174   4.483
 9600TIP3    H228723   1.366   7.061   4.384
 9601TIP3   OH228724   1.380   7.957   4.569
 9601TIP3    H128725   1.356   8.046   4.538
 9601TIP3    H228726   1.301   7.937   4.623
 9602TIP3   OH228727   0.778   7.644   3.801
 9602TIP3    H128728   0.734   7.683   3.724
 9602TIP3    H228729   0.808   7.725   3.850
 9603TIP3   OH228730   2.198   8.144   4.036
 9603TIP3    H128731   2.109   8.145   4.076
 9603TIP3    H228732   2.198   8.232   3.992
 9604TIP3   OH228733   2.505   7.063   4.408
 9604TIP3    H128734   2.418   7.090   4.374
 9604TIP3    H228735   2.566   7.095   4.338
 9605TIP3   OH228736   1.792   6.701   4.388
 9605TIP3    H128737   1.780   6.607   4.411
 9605TIP3    H228738   1.717   6.740   4.437
 9606TIP3   OH228739   1.922   8.193   3.742
 9606TIP3    H128740   1.957   8.104   3.718
 9606TIP3    H228741   1.999   8.247   3.717
 9607TIP3   OH228742   2.046   7.976   3.627
 9607TIP3    H128743   2.057   7.899   3.569
 9607TIP3    H228744   2.088   7.945   3.711
 9608TIP3   OH228745   2.437   8.068   4.391
 9608TIP3    H128746   2.426   7.989   4.333
 9608TIP3    H228747   2.420   8.140   4.327
 9609TIP3   OH228748   1.688   7.259   3.365
 9609TIP3    H128749   1.758   7.315   3.405
 9609TIP3    H228750   1.745   7.194   3.318
 9610TIP3   OH228751   2.631   7.715   4.235
 9610TIP3    H128752   2.547   7.765   4.237
 9610TIP3    H228753   2.662   7.738   4.145
 9611TIP3   OH228754   2.080   7.553   3.612
 9611TIP3    H128755   2.028   7.577   3.693
 9611TIP3    H228756   2.164   7.525   3.653
 9612TIP3   OH228757   2.310   7.588   4.536
 9612TIP3    H128758   2.309   7.670   4.589
 9612TIP3    H228759   2.225   7.595   4.489
 9613TIP3   OH228760   1.309   7.540   4.036
 9613TIP3    H128761   1.250   7.476   3.993
 9613TIP3    H228762   1.378   7.483   4.079
 9614TIP3   OH228763   1.445   7.954   4.183
 9614TIP3    H128764   1.427   7.923   4.093
 9614TIP3    H228765   1.535   7.919   4.200
 9615TIP3   OH228766   1.453   7.519   4.379
 9615TIP3    H128767   1.495   7.507   4.293
 9615TIP3    H228768   1.489   7.606   4.409
 9616TIP3   OH228769   1.957   8.160   4.161
 9616TIP3    H128770   1.950   8.242   4.213
 9616TIP3    H228771   1.949   8.089   4.228
 9617TIP3   OH228772   1.583   8.077   4.714
 9617TIP3    H128773   1.523   8.139   4.761
 9617TIP3    H228774   1.518   8.023   4.665
 9618TIP3   OH228775   1.915   7.403   3.448
 9618TIP3    H128776   1.968   7.469   3.498
 9618TIP3    H228777   1.940   7.427   3.355
 9619TIP3   OH228778   1.336   7.636   4.804
 9619TIP3    H128779   1.345   7.721   4.852
 9619TIP3    H228780   1.245   7.611   4.831
 9620TIP3   OH228781   1.668   8.077   3.718
 9620TIP3    H128782   1.748   8.131   3.739
 9620TIP3    H228783   1.602   8.144   3.695
 9621TIP3   OH228784   1.381   8.247   4.804
 9621TIP3    H128785   1.341   8.243   4.715
 9621TIP3    H228786   1.309   8.209   4.860
 9622TIP3   OH228787   2.433   6.648   3.493
 9622TIP3    H128788   2.351   6.670   3.542
 9622TIP3    H228789   2.447   6.730   3.442
 9623TIP3   OH228790   1.186   7.395   3.837
 9623TIP3    H128791   1.111   7.437   3.787
 9623TIP3    H228792   1.150   7.307   3.851
 9624TIP3   OH228793   2.230   8.003   3.041
 9624TIP3    H128794   2.232   8.098   3.019
 9624TIP3    H228795   2.323   7.977   3.025
 9625TIP3   OH228796   0.956   7.778   4.748
 9625TIP3    H128797   0.888   7.756   4.682
 9625TIP3    H228798   0.993   7.691   4.771
 9626TIP3   OH228799   0.810   7.967   4.405
 9626TIP3    H128800   0.891   7.983   4.355
 9626TIP3    H228801   0.780   8.057   4.424
 9627TIP3   OH228802   2.695   8.409   4.452
 9627TIP3    H128803   2.688   8.312   4.470
 9627TIP3    H228804   2.615   8.441   4.499
 9628TIP3   OH228805   1.783   8.189   4.563
 9628TIP3    H128806   1.788   8.283   4.589
 9628TIP3    H228807   1.708   8.157   4.617
 9629TIP3   OH228808   0.978   8.159   3.902
 9629TIP3    H128809   1.030   8.159   3.986
 9629TIP3    H228810   0.910   8.094   3.925
 9630TIP3   OH228811   1.882   8.261   3.172
 9630TIP3    H128812   1.907   8.175   3.132
 9630TIP3    H228813   1.864   8.235   3.265
 9631TIP3   OH228814   1.749   8.207   3.423
 9631TIP3    H128815   1.706   8.287   3.457
 9631TIP3    H228816   1.806   8.183   3.498
 9632TIP3   OH228817   2.562   7.549   4.712
 9632TIP3    H128818   2.479   7.557   4.663
 9632TIP3    H228819   2.580   7.453   4.704
 9633TIP3   OH228820   1.158   7.962   4.728
 9633TIP3    H128821   1.208   7.950   4.811
 9633TIP3    H228822   1.087   7.895   4.737
 9634TIP3   OH228823   1.558   6.780   4.523
 9634TIP3    H128824   1.470   6.751   4.493
 9634TIP3    H228825   1.533   6.860   4.574
 9635TIP3   OH228826   2.097   6.894   4.713
 9635TIP3    H128827   2.167   6.871   4.777
 9635TIP3    H228828   2.015   6.880   4.766
 9636TIP3   OH228829   2.324   7.324   4.642
 9636TIP3    H128830   2.272   7.322   4.726
 9636TIP3    H228831   2.302   7.411   4.605
 9637TIP3   OH228832   1.991   7.457   3.194
 9637TIP3    H128833   1.954   7.433   3.107
 9637TIP3    H228834   2.079   7.492   3.167
 9638TIP3   OH228835   1.704   6.830   3.493
 9638TIP3    H128836   1.667   6.825   3.583
 9638TIP3    H228837   1.665   6.749   3.455
 9639TIP3   OH228838   1.488   7.299   4.535
 9639TIP3    H128839   1.445   7.322   4.620
 9639TIP3    H228840   1.474   7.380   4.483
 9640TIP3   OH228841   1.366   7.190   4.050
 9640TIP3    H128842   1.278   7.154   4.074
 9640TIP3    H228843   1.380   7.142   3.965
 9641TIP3   OH228844   1.866   7.275   3.762
 9641TIP3    H128845   1.843   7.333   3.689
 9641TIP3    H228846   1.935   7.222   3.718
 9642TIP3   OH228847   2.028   7.521   4.889
 9642TIP3    H128848   2.020   7.454   4.959
 9642TIP3    H228849   2.123   7.540   4.895
 9643TIP3   OH228850   2.019   7.294   4.016
 9643TIP3    H128851   1.961   7.325   3.944
 9643TIP3    H228852   2.059   7.216   3.972
 9644TIP3   OH228853   1.314   7.326   4.751
 9644TIP3    H128854   1.360   7.386   4.812
 9644TIP3    H228855   1.311   7.244   4.803
 9645TIP3   OH228856   1.364   6.808   3.456
 9645TIP3    H128857   1.351   6.802   3.553
 9645TIP3    H228858   1.283   6.855   3.428
 9646TIP3   OH228859   0.900   6.843   4.341
 9646TIP3    H128860   0.982   6.876   4.382
 9646TIP3    H228861   0.927   6.817   4.251
 9647TIP3   OH228862   0.872   6.828   3.847
 9647TIP3    H128863   0.916   6.865   3.767
 9647TIP3    H228864   0.807   6.899   3.865
 9648TIP3   OH228865   2.027   7.543   4.436
 9648TIP3    H128866   2.062   7.471   4.378
 9648TIP3    H228867   2.000   7.489   4.513
 9649TIP3   OH228868   1.707   7.018   4.113
 9649TIP3    H128869   1.629   7.007   4.171
 9649TIP3    H228870   1.780   6.994   4.172
 9650TIP3   OH228871   1.135   7.062   4.117
 9650TIP3    H128872   1.041   7.071   4.090
 9650TIP3    H228873   1.155   6.969   4.097
 9651TIP3   OH228874   1.399   7.069   3.811
 9651TIP3    H128875   1.494   7.065   3.787
 9651TIP3    H228876   1.354   7.080   3.724
 9652TIP3   OH228877   2.196   7.085   4.317
 9652TIP3    H128878   2.164   7.096   4.410
 9652TIP3    H228879   2.132   7.021   4.283
 9653TIP3   OH228880   1.249   7.105   3.585
 9653TIP3    H128881   1.181   7.048   3.543
 9653TIP3    H228882   1.301   7.130   3.506
 9654TIP3   OH228883   1.333   7.876   4.946
 9654TIP3    H128884   1.411   7.906   4.997
 9654TIP3    H228885   1.264   7.883   5.015
 9655TIP3   OH228886   1.782   7.340   4.212
 9655TIP3    H128887   1.855   7.294   4.168
 9655TIP3    H228888   1.782   7.297   4.300
 9656TIP3   OH228889   1.305   6.819   4.093
 9656TIP3    H128890   1.265   6.745   4.145
 9656TIP3    H228891   1.354   6.769   4.026
 9657TIP3   OH228892   1.760   7.247   4.487
 9657TIP3    H128893   1.670   7.275   4.512
 9657TIP3    H228894   1.818   7.300   4.545
 9658TIP3   OH228895   2.395   7.857   4.221
 9658TIP3    H128896   2.423   7.909   4.142
 9658TIP3    H228897   2.312   7.816   4.190
 9659TIP3   OH228898   1.956   6.927   3.468
 9659TIP3    H128899   1.860   6.907   3.473
 9659TIP3    H228900   1.962   7.022   3.488
 9660TIP3   OH228901   1.900   7.935   4.593
 9660TIP3    H128902   1.929   7.920   4.684
 9660TIP3    H228903   1.856   8.022   4.597
 9661TIP3   OH228904   2.031   7.178   3.566
 9661TIP3    H128905   2.128   7.184   3.578
 9661TIP3    H228906   2.010   7.257   3.512
 9662TIP3   OH228907   1.195   7.651   4.273
 9662TIP3    H128908   1.233   7.615   4.191
 9662TIP3    H228909   1.230   7.591   4.341
 9663TIP3   OH228910   1.646   7.772   3.412
 9663TIP3    H128911   1.600   7.860   3.418
 9663TIP3    H228912   1.585   7.717   3.462
 9664TIP3   OH228913   1.073   7.568   4.887
 9664TIP3    H128914   1.103   7.554   4.979
 9664TIP3    H228915   1.009   7.496   4.874
 9665TIP3   OH228916   1.798   7.681   4.900
 9665TIP3    H128917   1.734   7.617   4.865
 9665TIP3    H228918   1.883   7.635   4.880
 9666TIP3   OH228919   2.056   8.215   4.482
 9666TIP3    H128920   1.961   8.195   4.491
 9666TIP3    H228921   2.074   8.254   4.570
 9667TIP3   OH228922   2.462   7.277   3.398
 9667TIP3    H128923   2.400   7.233   3.335
 9667TIP3    H228924   2.461   7.366   3.357
 9668TIP3   OH228925   2.686   8.133   4.477
 9668TIP3    H128926   2.589   8.124   4.469
 9668TIP3    H228927   2.713   8.102   4.387
 9669TIP3   OH228928   2.192   8.062   3.312
 9669TIP3    H128929   2.157   7.989   3.366
 9669TIP3    H228930   2.198   8.022   3.223
 9670TIP3   OH228931   2.162   7.723   4.132
 9670TIP3    H128932   2.069   7.697   4.147
 9670TIP3    H228933   2.197   7.641   4.092
 9671TIP3   OH228934   1.297   7.937   3.887
 9671TIP3    H128935   1.290   8.022   3.840
 9671TIP3    H228936   1.207   7.928   3.921
 9672TIP3   OH228937   0.863   7.254   3.603
 9672TIP3    H128938   0.901   7.341   3.626
 9672TIP3    H228939   0.785   7.251   3.663
 9673TIP3   OH228940   1.426   7.701   3.849
 9673TIP3    H128941   1.409   7.797   3.843
 9673TIP3    H228942   1.385   7.684   3.936
 9674TIP3   OH228943   1.549   8.287   4.376
 9674TIP3    H128944   1.562   8.376   4.337
 9674TIP3    H228945   1.638   8.259   4.399
 9675TIP3   OH228946   1.213   8.173   3.761
 9675TIP3    H128947   1.124   8.167   3.802
 9675TIP3    H228948   1.222   8.269   3.755
 9676TIP3   OH228949   1.949   7.928   4.326
 9676TIP3    H128950   1.936   7.921   4.423
 9676TIP3    H228951   2.030   7.877   4.314
 9677TIP3   OH228952   1.932   7.820   3.212
 9677TIP3    H128953   1.985   7.799   3.292
 9677TIP3    H228954   1.845   7.786   3.238
 9678TIP3   OH228955   2.215   8.426   4.380
 9678TIP3    H128956   2.154   8.354   4.408
 9678TIP3    H228957   2.153   8.499   4.365
 9679TIP3   OH228958   2.248   8.275   3.013
 9679TIP3    H128959   2.321   8.338   3.004
 9679TIP3    H228960   2.171   8.335   3.010
 9680TIP3   OH228961   1.294   7.065   4.906
 9680TIP3    H128962   1.225   7.100   4.964
 9680TIP3    H228963   1.336   7.000   4.964
 9681TIP3   OH228964   2.092   7.765   3.435
 9681TIP3    H128965   2.078   7.688   3.495
 9681TIP3    H228966   2.188   7.753   3.415
 9682TIP3   OH228967   1.026   8.172   4.547
 9682TIP3    H128968   1.051   8.079   4.556
 9682TIP3    H228969   1.060   8.207   4.630
 9683TIP3   OH228970   1.282   7.799   3.206
 9683TIP3    H128971   1.295   7.707   3.176
 9683TIP3    H228972   1.272   7.786   3.303
 9684TIP3   OH228973   1.241   7.803   3.481
 9684TIP3    H128974   1.280   7.786   3.567
 9684TIP3    H228975   1.239   7.901   3.480
 9685TIP3   OH228976   0.977   7.500   3.686
 9685TIP3    H128977   0.906   7.539   3.741
 9685TIP3    H228978   0.980   7.567   3.615
 9686TIP3   OH228979   2.122   7.133   4.576
 9686TIP3    H128980   2.202   7.173   4.614
 9686TIP3    H228981   2.110   7.053   4.632
 9687TIP3   OH228982   1.997   6.886   3.747
 9687TIP3    H128983   1.988   6.903   3.651
 9687TIP3    H228984   2.043   6.966   3.778
 9688TIP3   OH228985   1.499   7.996   3.431
 9688TIP3    H128986   1.412   8.022   3.466
 9688TIP3    H228987   1.540   8.082   3.413
 9689TIP3   OH228988   1.684   7.073   3.844
 9689TIP3    H128989   1.752   7.141   3.826
 9689TIP3    H228990   1.694   7.059   3.941
 9690TIP3   OH228991   1.965   7.382   4.647
 9690TIP3    H128992   1.981   7.423   4.734
 9690TIP3    H228993   2.012   7.297   4.656
 9691TIP3   OH228994   1.830   6.784   3.942
 9691TIP3    H128995   1.843   6.852   4.010
 9691TIP3    H228996   1.890   6.817   3.871
 9692TIP3   OH228997   1.248   8.073   3.503
 9692TIP3    H128998   1.219   8.141   3.440
 9692TIP3    H228999   1.231   8.117   3.590
 9693TIP3   OH229000   1.343   6.792   3.731
 9693TIP3    H129001   1.339   6.877   3.778
 9693TIP3    H229002   1.439   6.773   3.738
 9694TIP3   OH229003   2.593   7.284   4.631
 9694TIP3    H129004   2.496   7.281   4.640
 9694TIP3    H229005   2.605   7.234   4.549
 9695TIP3   OH229006   2.249   7.477   4.018
 9695TIP3    H129007   2.175   7.416   4.034
 9695TIP3    H229008   2.322   7.432   4.066
 9696TIP3   OH229009   0.964   7.699   3.492
 9696TIP3    H129010   1.017   7.780   3.490
 9696TIP3    H229011   1.008   7.648   3.420
 9697TIP3   OH229012   0.906   6.982   3.622
 9697TIP3    H129013   0.903   7.079   3.619
 9697TIP3    H229014   0.825   6.958   3.575
 9698TIP3   OH229015   2.215   8.401   3.951
 9698TIP3    H129016   2.182   8.489   3.925
 9698TIP3    H229017   2.311   8.423   3.958
 9699TIP3   OH229018   1.291   6.701   4.492
 9699TIP3    H129019   1.263   6.666   4.405
 9699TIP3    H229020   1.282   6.623   4.550
 9700TIP3   OH229021   0.840   7.887   3.909
 9700TIP3    H129022   0.798   7.942   3.979
 9700TIP3    H229023   0.800   7.925   3.827
 9701TIP3   OH229024   1.069   8.399   4.915
 9701TIP3    H129025   1.138   8.419   4.982
 9701TIP3    H229026   1.046   8.308   4.941
 9702TIP3   OH229027   1.491   8.426   4.984
 9702TIP3    H129028   1.576   8.381   4.994
 9702TIP3    H229029   1.450   8.371   4.914
 9703TIP3   OH229030   1.450   7.998   3.117
 9703TIP3    H129031   1.399   7.922   3.154
 9703TIP3    H229032   1.526   7.950   3.076
 9704TIP3   OH229033   2.100   8.330   4.725
 9704TIP3    H129034   2.095   8.260   4.794
 9704TIP3    H229035   2.181   8.378   4.752
 9705TIP3   OH229036   1.887   8.021   3.022
 9705TIP3    H129037   1.922   7.950   3.081
 9705TIP3    H229038   1.945   8.015   2.944
 9706TIP3   OH229039   1.130   7.881   5.135
 9706TIP3    H129040   1.139   7.793   5.176
 9706TIP3    H229041   1.042   7.874   5.094
 9707TIP3   OH229042   1.094   7.525   3.331
 9707TIP3    H129043   1.139   7.468   3.395
 9707TIP3    H229044   1.164   7.530   3.261
 9708TIP3   OH229045   1.728   7.958   4.921
 9708TIP3    H129046   1.686   7.977   4.834
 9708TIP3    H229047   1.759   7.866   4.910
 9709TIP3   OH229048   1.616   7.718   3.147
 9709TIP3    H129049   1.622   7.732   3.243
 9709TIP3    H229050   1.619   7.620   3.142
 9710TIP3   OH229051   2.218   7.969   4.528
 9710TIP3    H129052   2.297   8.008   4.485
 9710TIP3    H229053   2.151   8.036   4.508
 9711TIP3   OH229054   1.251   7.584   5.125
 9711TIP3    H129055   1.339   7.548   5.102
 9711TIP3    H229056   1.271   7.627   5.210
 9712TIP3   OH229057   1.360   7.390   3.606
 9712TIP3    H129058   1.276   7.345   3.624
 9712TIP3    H229059   1.389   7.341   3.526
 9713TIP3   OH229060   1.572   7.491   4.780
 9713TIP3    H129061   1.496   7.553   4.781
 9713TIP3    H229062   1.626   7.526   4.706
 9714TIP3   OH229063   1.411   7.227   3.396
 9714TIP3    H129064   1.385   7.231   3.301
 9714TIP3    H229065   1.509   7.223   3.388
 9715TIP3   OH229066   2.094   7.889   4.921
 9715TIP3    H129067   2.174   7.858   4.878
 9715TIP3    H229068   2.087   7.827   4.996
 9716TIP3   OH229069   2.223   7.545   3.072
 9716TIP3    H129070   2.208   7.499   2.987
 9716TIP3    H229071   2.189   7.634   3.048
 9717TIP3   OH229072   1.640   7.265   4.925
 9717TIP3    H129073   1.698   7.203   4.878
 9717TIP3    H229074   1.630   7.339   4.861
 9718TIP3   OH229075   1.708   7.056   4.710
 9718TIP3    H129076   1.731   7.102   4.628
 9718TIP3    H229077   1.612   7.042   4.700
 9719TIP3   OH229078   1.726   7.596   4.587
 9719TIP3    H129079   1.815   7.613   4.553
 9719TIP3    H229080   1.672   7.665   4.543
 9720TIP3   OH229081   2.307   7.563   4.973
 9720TIP3    H129082   2.350   7.476   4.985
 9720TIP3    H229083   2.380   7.616   4.938
 9721TIP3   OH229084   2.349   7.819   4.711
 9721TIP3    H129085   2.292   7.874   4.654
 9721TIP3    H229086   2.437   7.840   4.673
 9722TIP3   OH229087   1.537   7.413   5.142
 9722TIP3    H129088   1.491   7.332   5.172
 9722TIP3    H229089   1.592   7.375   5.071
 9723TIP3   OH229090   1.838   6.828   4.803
 9723TIP3    H129091   1.791   6.910   4.773
 9723TIP3    H229092   1.770   6.760   4.788
 9724TIP3   OH229093   2.197   7.266   4.877
 9724TIP3    H129094   2.135   7.244   4.952
 9724TIP3    H229095   2.279   7.246   4.925
 9725TIP3   OH229096   2.439   7.227   5.017
 9725TIP3    H129097   2.442   7.130   5.028
 9725TIP3    H229098   2.414   7.256   5.108
 9726TIP3   OH229099   1.416   7.170   5.215
 9726TIP3    H129100   1.447   7.092   5.167
 9726TIP3    H229101   1.457   7.157   5.303
 9727TIP3   OH229102   1.886   6.771   5.076
 9727TIP3    H129103   1.977   6.740   5.060
 9727TIP3    H229104   1.866   6.808   4.988
 9728TIP3   OH229105   0.698   7.662   3.514
 9728TIP3    H129106   0.793   7.683   3.509
 9728TIP3    H229107   0.696   7.573   3.472
 9729TIP3   OH229108   0.764   8.090   4.093
 9729TIP3    H129109   0.698   8.058   4.156
 9729TIP3    H229110   0.809   8.158   4.147
 9730TIP3   OH229111   2.466   8.503   3.953
 9730TIP3    H129112   2.500   8.564   4.021
 9730TIP3    H229113   2.517   8.532   3.876
 9731TIP3   OH229114   2.533   8.515   4.240
 9731TIP3    H129115   2.479   8.437   4.214
 9731TIP3    H229116   2.599   8.473   4.298
 9732TIP3   OH229117   2.539   8.214   4.778
 9732TIP3    H129118   2.473   8.223   4.850
 9732TIP3    H229119   2.587   8.299   4.785
 9733TIP3   OH229120   2.363   7.734   3.400
 9733TIP3    H129121   2.430   7.797   3.367
 9733TIP3    H229122   2.410   7.696   3.478
 9734TIP3   OH229123   2.492   7.602   3.604
 9734TIP3    H129124   2.427   7.560   3.664
 9734TIP3    H229125   2.560   7.637   3.665
 9735TIP3   OH229126   2.549   7.992   4.038
 9735TIP3    H129127   2.602   7.926   3.989
 9735TIP3    H229128   2.555   8.070   3.978
 9736TIP3   OH229129   2.380   8.274   4.218
 9736TIP3    H129130   2.309   8.326   4.261
 9736TIP3    H229131   2.331   8.229   4.146
 9737TIP3   OH229132   2.430   7.510   3.249
 9737TIP3    H129133   2.358   7.510   3.183
 9737TIP3    H229134   2.401   7.586   3.304
 9738TIP3   OH229135   2.296   7.184   3.204
 9738TIP3    H129136   2.257   7.214   3.121
 9738TIP3    H229137   2.275   7.088   3.200
 9739TIP3   OH229138   2.303   7.459   3.748
 9739TIP3    H129139   2.315   7.363   3.740
 9739TIP3    H229140   2.289   7.471   3.845
 9740TIP3   OH229141   0.931   7.531   4.503
 9740TIP3    H129142   0.926   7.497   4.411
 9740TIP3    H229143   1.028   7.531   4.517
 9741TIP3   OH229144   2.596   7.884   4.608
 9741TIP3    H129145   2.666   7.816   4.597
 9741TIP3    H229146   2.622   7.951   4.542
 9742TIP3   OH229147   2.776   7.682   4.613
 9742TIP3    H129148   2.702   7.633   4.655
 9742TIP3    H229149   2.850   7.621   4.632
 9743TIP3   OH229150   2.242   6.918   3.188
 9743TIP3    H129151   2.316   6.883   3.242
 9743TIP3    H229152   2.169   6.856   3.206
 9744TIP3   OH229153   2.306   7.176   3.638
 9744TIP3    H129154   2.346   7.087   3.653
 9744TIP3    H229155   2.363   7.208   3.566
 9745TIP3   OH229156   2.461   7.347   4.138
 9745TIP3    H129157   2.547   7.370   4.096
 9745TIP3    H229158   2.477   7.383   4.227
 9746TIP3   OH229159   2.534   7.492   4.368
 9746TIP3    H129160   2.458   7.527   4.418
 9746TIP3    H229161   2.568   7.574   4.324
 9747TIP3   OH229162   1.155   7.220   5.153
 9747TIP3    H129163   1.250   7.214   5.177
 9747TIP3    H229164   1.122   7.135   5.187
 9748TIP3   OH229165   2.984   7.088   4.924
 9748TIP3    H129166   3.045   7.023   4.883
 9748TIP3    H229167   2.954   7.138   4.845
 9749TIP3   OH229168   2.409   6.926   3.682
 9749TIP3    H129169   2.458   6.909   3.765
 9749TIP3    H229170   2.349   6.849   3.680
 9750TIP3   OH229171   1.111   6.909   4.513
 9750TIP3    H129172   1.173   6.834   4.517
 9750TIP3    H229173   1.173   6.983   4.500
 9751TIP3   OH229174   0.920   7.176   4.586
 9751TIP3    H129175   0.964   7.176   4.498
 9751TIP3    H229176   0.931   7.268   4.613
 9752TIP3   OH229177   2.851   7.220   4.726
 9752TIP3    H129178   2.765   7.263   4.746
 9752TIP3    H229179   2.820   7.146   4.671
 9753TIP3   OH229180   2.487   6.856   3.316
 9753TIP3    H129181   2.526   6.786   3.259
 9753TIP3    H229182   2.555   6.926   3.313
 9754TIP3   OH229183   0.894   6.705   4.087
 9754TIP3    H129184   0.800   6.686   4.104
 9754TIP3    H229185   0.890   6.753   4.002
 9755TIP3   OH229186   2.120   8.364   3.618
 9755TIP3    H129187   2.165   8.325   3.540
 9755TIP3    H229188   2.192   8.414   3.658
 9756TIP3   OH229189   1.116   6.765   4.893
 9756TIP3    H129190   1.066   6.764   4.976
 9756TIP3    H229191   1.054   6.811   4.834
 9757TIP3   OH229192   1.189   8.146   4.977
 9757TIP3    H129193   1.094   8.125   4.968
 9757TIP3    H229194   1.198   8.155   5.072
 9758TIP3   OH229195   1.329   8.227   4.526
 9758TIP3    H129196   1.259   8.252   4.464
 9758TIP3    H229197   1.410   8.246   4.473
 9759TIP3   OH229198   1.817   8.458   4.621
 9759TIP3    H129199   1.804   8.461   4.717
 9759TIP3    H229200   1.902   8.502   4.614
 9760TIP3   OH229201   2.753   6.982   4.610
 9760TIP3    H129202   2.663   6.967   4.577
 9760TIP3    H229203   2.791   6.891   4.602
 9761TIP3   OH229204   1.911   8.436   4.241
 9761TIP3    H129205   1.830   8.482   4.217
 9761TIP3    H229206   1.968   8.510   4.269
 9762TIP3   OH229207   0.897   8.230   4.300
 9762TIP3    H129208   0.940   8.221   4.388
 9762TIP3    H229209   0.965   8.281   4.252
 9763TIP3   OH229210   1.125   8.141   4.124
 9763TIP3    H129211   1.124   8.066   4.187
 9763TIP3    H229212   1.219   8.170   4.132
 9764TIP3   OH229213   1.379   8.222   4.157
 9764TIP3    H129214   1.417   8.132   4.164
 9764TIP3    H229215   1.442   8.272   4.211
 9765TIP3   OH229216   1.945   6.892   4.215
 9765TIP3    H129217   1.912   6.824   4.277
 9765TIP3    H229218   2.028   6.853   4.182
 9766TIP3   OH229219   2.476   6.785   4.135
 9766TIP3    H129220   2.513   6.834   4.058
 9766TIP3    H229221   2.380   6.802   4.126
 9767TIP3   OH229222   2.574   6.880   3.898
 9767TIP3    H129223   2.648   6.826   3.861
 9767TIP3    H229224   2.609   6.970   3.883
 9768TIP3   OH229225   1.204   6.608   4.245
 9768TIP3    H129226   1.112   6.576   4.247
 9768TIP3    H229227   1.252   6.522   4.241
 9769TIP3   OH229228   1.003   6.481   3.900
 9769TIP3    H129229   1.028   6.534   3.822
 9769TIP3    H229230   0.971   6.549   3.962
 9770TIP3   OH229231   1.651   6.644   4.128
 9770TIP3    H129232   1.708   6.688   4.063
 9770TIP3    H229233   1.689   6.676   4.212
 9771TIP3   OH229234   2.190   6.788   4.109
 9771TIP3    H129235   2.201   6.743   4.024
 9771TIP3    H229236   2.182   6.710   4.170
 9772TIP3   OH229237   2.228   6.712   3.674
 9772TIP3    H129238   2.139   6.749   3.686
 9772TIP3    H229239   2.218   6.626   3.719
 9773TIP3   OH229240   0.714   7.975   3.690
 9773TIP3    H129241   0.628   7.947   3.656
 9773TIP3    H229242   0.715   8.068   3.656
 9774TIP3   OH229243   1.114   6.636   3.655
 9774TIP3    H129244   1.159   6.571   3.598
 9774TIP3    H229245   1.189   6.687   3.690
 9775TIP3   OH229246   1.618   6.821   3.757
 9775TIP3    H129247   1.676   6.768   3.814
 9775TIP3    H229248   1.648   6.911   3.783
 9776TIP3   OH229249   1.351   8.231   3.230
 9776TIP3    H129250   1.434   8.283   3.245
 9776TIP3    H229251   1.389   8.143   3.209
 9777TIP3   OH229252   2.208   8.327   3.350
 9777TIP3    H129253   2.207   8.229   3.346
 9777TIP3    H229254   2.252   8.346   3.265
 9778TIP3   OH229255   1.413   6.873   5.119
 9778TIP3    H129256   1.376   6.812   5.185
 9778TIP3    H229257   1.504   6.883   5.154
 9779TIP3   OH229258   1.660   6.896   5.246
 9779TIP3    H129259   1.745   6.891   5.198
 9779TIP3    H229260   1.666   6.821   5.307
 9780TIP3   OH229261   0.805   8.033   3.320
 9780TIP3    H129262   0.804   8.096   3.394
 9780TIP3    H229263   0.900   8.023   3.301
 9781TIP3   OH229264   2.492   6.951   5.040
 9781TIP3    H129265   2.508   6.922   5.133
 9781TIP3    H229266   2.582   6.947   5.002
 9782TIP3   OH229267   2.440   8.503   4.533
 9782TIP3    H129268   2.373   8.458   4.476
 9782TIP3    H229269   2.410   8.594   4.525
 9783TIP3   OH229270   3.695   7.874   3.298
 9783TIP3    H129271   3.665   7.964   3.277
 9783TIP3    H229272   3.620   7.822   3.265
 9784TIP3   OH229273   3.694   7.877   3.689
 9784TIP3    H129274   3.731   7.852   3.776
 9784TIP3    H229275   3.653   7.794   3.660
 9785TIP3   OH229276   2.990   7.765   4.051
 9785TIP3    H129277   3.020   7.696   4.112
 9785TIP3    H229278   3.070   7.819   4.044
 9786TIP3   OH229279   3.940   8.178   3.364
 9786TIP3    H129280   3.924   8.112   3.433
 9786TIP3    H229281   3.970   8.254   3.418
 9787TIP3   OH229282   2.966   8.180   3.773
 9787TIP3    H129283   2.957   8.083   3.773
 9787TIP3    H229284   3.063   8.188   3.759
 9788TIP3   OH229285   2.672   7.378   3.551
 9788TIP3    H129286   2.625   7.461   3.570
 9788TIP3    H229287   2.600   7.328   3.508
 9789TIP3   OH229288   2.727   7.667   3.734
 9789TIP3    H129289   2.778   7.590   3.767
 9789TIP3    H229290   2.790   7.708   3.673
 9790TIP3   OH229291   3.595   8.619   3.422
 9790TIP3    H129292   3.633   8.573   3.344
 9790TIP3    H229293   3.609   8.551   3.490
 9791TIP3   OH229294   3.493   8.101   3.731
 9791TIP3    H129295   3.535   8.024   3.689
 9791TIP3    H229296   3.574   8.150   3.756
 9792TIP3   OH229297   4.505   7.422   3.727
 9792TIP3    H129298   4.539   7.503   3.770
 9792TIP3    H229299   4.532   7.437   3.635
 9793TIP3   OH229300   3.904   7.596   3.761
 9793TIP3    H129301   3.943   7.509   3.784
 9793TIP3    H229302   3.874   7.578   3.669
 9794TIP3   OH229303   3.249   7.259   3.723
 9794TIP3    H129304   3.226   7.332   3.662
 9794TIP3    H229305   3.198   7.186   3.682
 9795TIP3   OH229306   3.943   7.355   3.350
 9795TIP3    H129307   4.014   7.340   3.416
 9795TIP3    H229308   3.996   7.387   3.274
 9796TIP3   OH229309   2.877   7.462   3.835
 9796TIP3    H129310   2.960   7.443   3.883
 9796TIP3    H229311   2.891   7.407   3.755
 9797TIP3   OH229312   3.315   7.659   3.633
 9797TIP3    H129313   3.410   7.634   3.643
 9797TIP3    H229314   3.277   7.576   3.599
 9798TIP3   OH229315   4.583   7.632   3.896
 9798TIP3    H129316   4.496   7.675   3.880
 9798TIP3    H229317   4.600   7.659   3.987
 9799TIP3   OH229318   3.240   7.244   4.162
 9799TIP3    H129319   3.180   7.281   4.094
 9799TIP3    H229320   3.187   7.260   4.243
 9800TIP3   OH229321   3.583   8.090   3.167
 9800TIP3    H129322   3.543   8.078   3.079
 9800TIP3    H229323   3.539   8.173   3.196
 9801TIP3   OH229324   3.347   8.019   3.951
 9801TIP3    H129325   3.288   8.088   3.989
 9801TIP3    H229326   3.390   8.068   3.878
 9802TIP3   OH229327   4.146   7.355   3.532
 9802TIP3    H129328   4.132   7.321   3.621
 9802TIP3    H229329   4.198   7.436   3.549
 9803TIP3   OH229330   3.113   7.358   3.943
 9803TIP3    H129331   3.174   7.431   3.968
 9803TIP3    H229332   3.164   7.318   3.869
 9804TIP3   OH229333   3.178   8.213   4.057
 9804TIP3    H129334   3.153   8.301   4.023
 9804TIP3    H229335   3.097   8.194   4.110
 9805TIP3   OH229336   2.561   7.901   3.292
 9805TIP3    H129337   2.527   7.942   3.210
 9805TIP3    H229338   2.596   7.978   3.340
 9806TIP3   OH229339   3.996   8.401   3.525
 9806TIP3    H129340   3.906   8.401   3.564
 9806TIP3    H229341   3.995   8.489   3.479
 9807TIP3   OH229342   4.302   7.324   3.890
 9807TIP3    H129343   4.216   7.355   3.859
 9807TIP3    H229344   4.364   7.358   3.823
 9808TIP3   OH229345   3.585   6.960   3.875
 9808TIP3    H129346   3.574   6.865   3.898
 9808TIP3    H229347   3.508   6.999   3.923
 9809TIP3   OH229348   3.718   8.451   3.230
 9809TIP3    H129349   3.755   8.362   3.210
 9809TIP3    H229350   3.793   8.506   3.201
 9810TIP3   OH229351   3.856   8.243   3.111
 9810TIP3    H129352   3.820   8.162   3.074
 9810TIP3    H229353   3.895   8.210   3.195
 9811TIP3   OH229354   4.233   8.324   3.878
 9811TIP3    H129355   4.221   8.245   3.820
 9811TIP3    H229356   4.215   8.397   3.814
 9812TIP3   OH229357   3.525   7.725   3.135
 9812TIP3    H129358   3.446   7.779   3.115
 9812TIP3    H229359   3.570   7.723   3.049
 9813TIP3   OH229360   3.483   7.514   2.844
 9813TIP3    H129361   3.550   7.566   2.892
 9813TIP3    H229362   3.541   7.451   2.797
 9814TIP3   OH229363   4.427   7.973   3.723
 9814TIP3    H129364   4.342   8.022   3.725
 9814TIP3    H229365   4.458   7.997   3.633
 9815TIP3   OH229366   3.873   7.810   3.101
 9815TIP3    H129367   3.819   7.833   3.180
 9815TIP3    H229368   3.958   7.785   3.144
 9816TIP3   OH229369   4.107   7.845   4.023
 9816TIP3    H129370   4.105   7.927   4.076
 9816TIP3    H229371   4.021   7.852   3.976
 9817TIP3   OH229372   3.104   7.804   3.522
 9817TIP3    H129373   3.064   7.746   3.454
 9817TIP3    H229374   3.181   7.751   3.553
 9818TIP3   OH229375   3.235   8.209   3.669
 9818TIP3    H129376   3.217   8.180   3.578
 9818TIP3    H229377   3.325   8.174   3.685
 9819TIP3   OH229378   3.237   7.778   3.875
 9819TIP3    H129379   3.272   7.752   3.788
 9819TIP3    H229380   3.283   7.863   3.892
 9820TIP3   OH229381   3.754   8.417   3.648
 9820TIP3    H129382   3.746   8.499   3.700
 9820TIP3    H229383   3.745   8.346   3.715
 9821TIP3   OH229384   3.380   8.334   4.201
 9821TIP3    H129385   3.320   8.395   4.248
 9821TIP3    H229386   3.315   8.280   4.151
 9822TIP3   OH229387   3.709   7.668   2.930
 9822TIP3    H129388   3.769   7.728   2.979
 9822TIP3    H229389   3.736   7.688   2.837
 9823TIP3   OH229390   3.136   7.886   4.305
 9823TIP3    H129391   3.141   7.975   4.347
 9823TIP3    H229392   3.041   7.867   4.318
 9824TIP3   OH229393   3.465   8.335   3.204
 9824TIP3    H129394   3.541   8.392   3.226
 9824TIP3    H229395   3.396   8.397   3.181
 9825TIP3   OH229396   3.175   8.501   4.291
 9825TIP3    H129397   3.136   8.499   4.202
 9825TIP3    H229398   3.103   8.464   4.347
 9826TIP3   OH229399   4.228   6.905   2.979
 9826TIP3    H129400   4.146   6.928   3.028
 9826TIP3    H229401   4.243   6.987   2.928
 9827TIP3   OH229402   2.972   7.649   3.323
 9827TIP3    H129403   2.902   7.693   3.271
 9827TIP3    H229404   2.935   7.561   3.335
 9828TIP3   OH229405   4.026   8.260   2.527
 9828TIP3    H129406   4.029   8.356   2.512
 9828TIP3    H229407   4.119   8.234   2.511
 9829TIP3   OH229408   2.751   8.033   4.234
 9829TIP3    H129409   2.685   8.011   4.166
 9829TIP3    H229410   2.790   7.945   4.256
 9830TIP3   OH229411   2.604   8.218   3.880
 9830TIP3    H129412   2.694   8.229   3.848
 9830TIP3    H229413   2.581   8.308   3.908
 9831TIP3   OH229414   4.491   8.665   3.940
 9831TIP3    H129415   4.485   8.569   3.958
 9831TIP3    H229416   4.411   8.698   3.986
 9832TIP3   OH229417   3.580   8.445   4.050
 9832TIP3    H129418   3.584   8.540   4.076
 9832TIP3    H229419   3.505   8.413   4.105
 9833TIP3   OH229420   2.774   8.414   3.391
 9833TIP3    H129421   2.823   8.417   3.476
 9833TIP3    H229422   2.718   8.335   3.407
 9834TIP3   OH229423   3.683   8.516   2.660
 9834TIP3    H129424   3.705   8.427   2.624
 9834TIP3    H229425   3.662   8.495   2.753
 9835TIP3   OH229426   3.559   8.464   2.910
 9835TIP3    H129427   3.501   8.535   2.939
 9835TIP3    H229428   3.600   8.436   2.993
 9836TIP3   OH229429   4.360   7.808   4.199
 9836TIP3    H129430   4.276   7.816   4.153
 9836TIP3    H229431   4.378   7.712   4.190
 9837TIP3   OH229432   2.954   8.217   4.216
 9837TIP3    H129433   3.002   8.206   4.300
 9837TIP3    H229434   2.882   8.151   4.224
 9838TIP3   OH229435   3.353   7.040   4.008
 9838TIP3    H129436   3.265   7.009   3.979
 9838TIP3    H229437   3.326   7.118   4.060
 9839TIP3   OH229438   3.893   7.156   4.207
 9839TIP3    H129439   3.963   7.126   4.268
 9839TIP3    H229440   3.810   7.134   4.255
 9840TIP3   OH229441   4.124   7.582   4.118
 9840TIP3    H129442   4.074   7.579   4.203
 9840TIP3    H229443   4.103   7.671   4.084
 9841TIP3   OH229444   3.788   7.709   2.675
 9841TIP3    H129445   3.753   7.687   2.587
 9841TIP3    H229446   3.874   7.748   2.651
 9842TIP3   OH229447   3.500   7.086   2.978
 9842TIP3    H129448   3.464   7.082   3.068
 9842TIP3    H229449   3.460   7.004   2.941
 9843TIP3   OH229450   3.288   7.555   4.024
 9843TIP3    H129451   3.238   7.575   4.106
 9843TIP3    H229452   3.271   7.637   3.972
 9844TIP3   OH229453   3.171   7.441   3.538
 9844TIP3    H129454   3.079   7.416   3.557
 9844TIP3    H229455   3.182   7.401   3.449
 9845TIP3   OH229456   3.661   7.524   3.269
 9845TIP3    H129457   3.611   7.596   3.224
 9845TIP3    H229458   3.717   7.491   3.196
 9846TIP3   OH229459   3.836   7.801   4.350
 9846TIP3    H129460   3.815   7.728   4.413
 9846TIP3    H229461   3.930   7.816   4.373
 9847TIP3   OH229462   3.815   7.552   3.505
 9847TIP3    H129463   3.753   7.579   3.434
 9847TIP3    H229464   3.854   7.474   3.460
 9848TIP3   OH229465   3.107   7.582   4.233
 9848TIP3    H129466   3.140   7.645   4.299
 9848TIP3    H229467   3.096   7.500   4.286
 9849TIP3   OH229468   3.158   7.062   2.943
 9849TIP3    H129469   3.146   7.061   3.040
 9849TIP3    H229470   3.080   7.114   2.916
 9850TIP3   OH229471   2.699   7.103   3.816
 9850TIP3    H129472   2.775   7.136   3.870
 9850TIP3    H229473   2.741   7.073   3.734
 9851TIP3   OH229474   2.662   7.083   3.333
 9851TIP3    H129475   2.708   7.119   3.255
 9851TIP3    H229476   2.602   7.158   3.352
 9852TIP3   OH229477   3.825   7.795   3.923
 9852TIP3    H129478   3.861   7.724   3.866
 9852TIP3    H229479   3.796   7.742   4.001
 9853TIP3   OH229480   3.504   7.258   3.603
 9853TIP3    H129481   3.416   7.250   3.646
 9853TIP3    H229482   3.558   7.285   3.678
 9854TIP3   OH229483   2.933   7.320   3.606
 9854TIP3    H129484   2.839   7.327   3.577
 9854TIP3    H229485   2.956   7.228   3.584
 9855TIP3   OH229486   3.198   7.314   3.298
 9855TIP3    H129487   3.291   7.327   3.272
 9855TIP3    H229488   3.149   7.335   3.214
 9856TIP3   OH229489   3.982   7.332   3.797
 9856TIP3    H129490   3.957   7.344   3.892
 9856TIP3    H229491   3.918   7.262   3.772
 9857TIP3   OH229492   3.049   7.350   3.073
 9857TIP3    H129493   2.979   7.303   3.023
 9857TIP3    H229494   3.101   7.388   2.999
 9858TIP3   OH229495   3.122   8.131   4.441
 9858TIP3    H129496   3.201   8.163   4.489
 9858TIP3    H229497   3.055   8.141   4.511
 9859TIP3   OH229498   3.580   7.588   3.695
 9859TIP3    H129499   3.661   7.558   3.652
 9859TIP3    H229500   3.588   7.550   3.785
 9860TIP3   OH229501   3.098   7.076   3.582
 9860TIP3    H129502   3.062   7.001   3.633
 9860TIP3    H229503   3.141   7.031   3.508
 9861TIP3   OH229504   3.559   7.495   3.980
 9861TIP3    H129505   3.468   7.528   3.999
 9861TIP3    H229506   3.615   7.553   4.035
 9862TIP3   OH229507   3.294   7.876   3.081
 9862TIP3    H129508   3.221   7.812   3.068
 9862TIP3    H229509   3.274   7.910   3.171
 9863TIP3   OH229510   4.191   8.112   3.708
 9863TIP3    H129511   4.217   8.165   3.629
 9863TIP3    H229512   4.107   8.071   3.679
 9864TIP3   OH229513   3.752   7.185   2.954
 9864TIP3    H129514   3.656   7.166   2.959
 9864TIP3    H229515   3.758   7.281   2.976
 9865TIP3   OH229516   3.697   8.191   4.080
 9865TIP3    H129517   3.728   8.180   4.171
 9865TIP3    H229518   3.653   8.278   4.083
 9866TIP3   OH229519   3.819   7.440   3.052
 9866TIP3    H129520   3.916   7.445   3.065
 9866TIP3    H229521   3.801   7.520   2.999
 9867TIP3   OH229522   2.987   7.901   3.755
 9867TIP3    H129523   3.025   7.874   3.670
 9867TIP3    H229524   3.036   7.845   3.817
 9868TIP3   OH229525   3.442   8.025   2.906
 9868TIP3    H129526   3.391   8.110   2.910
 9868TIP3    H229527   3.388   7.969   2.966
 9869TIP3   OH229528   2.871   7.821   4.372
 9869TIP3    H129529   2.890   7.807   4.467
 9869TIP3    H229530   2.803   7.754   4.356
 9870TIP3   OH229531   3.597   7.939   4.390
 9870TIP3    H129532   3.536   7.877   4.346
 9870TIP3    H229533   3.684   7.902   4.362
 9871TIP3   OH229534   3.853   8.472   3.969
 9871TIP3    H129535   3.758   8.452   3.977
 9871TIP3    H229536   3.871   8.511   4.057
 9872TIP3   OH229537   4.259   7.533   2.885
 9872TIP3    H129538   4.198   7.489   2.822
 9872TIP3    H229539   4.257   7.623   2.844
 9873TIP3   OH229540   4.482   8.388   3.964
 9873TIP3    H129541   4.384   8.380   3.955
 9873TIP3    H229542   4.509   8.358   3.874
 9874TIP3   OH229543   3.994   8.319   2.802
 9874TIP3    H129544   3.952   8.256   2.862
 9874TIP3    H229545   3.990   8.273   2.716
 9875TIP3   OH229546   3.958   7.979   3.623
 9875TIP3    H129547   3.864   7.954   3.637
 9875TIP3    H229548   3.991   7.898   3.579
 9876TIP3   OH229549   3.092   8.200   3.389
 9876TIP3    H129550   3.086   8.283   3.336
 9876TIP3    H229551   2.999   8.183   3.407
 9877TIP3   OH229552   2.655   7.508   3.090
 9877TIP3    H129553   2.700   7.593   3.112
 9877TIP3    H229554   2.578   7.512   3.151
 9878TIP3   OH229555   3.219   7.966   3.323
 9878TIP3    H129556   3.186   8.056   3.343
 9878TIP3    H229557   3.185   7.916   3.399
 9879TIP3   OH229558   3.345   8.544   3.862
 9879TIP3    H129559   3.359   8.632   3.822
 9879TIP3    H229560   3.435   8.515   3.885
 9880TIP3   OH229561   3.009   8.432   3.248
 9880TIP3    H129562   2.919   8.428   3.288
 9880TIP3    H229563   3.020   8.528   3.238
 9881TIP3   OH229564   3.744   8.185   3.813
 9881TIP3    H129565   3.733   8.178   3.910
 9881TIP3    H229566   3.823   8.130   3.799
 9882TIP3   OH229567   3.724   8.076   2.696
 9882TIP3    H129568   3.779   8.053   2.775
 9882TIP3    H229569   3.636   8.048   2.727
 9883TIP3   OH229570   4.011   8.682   3.866
 9883TIP3    H129571   3.950   8.610   3.894
 9883TIP3    H229572   3.949   8.756   3.850
 9884TIP3   OH229573   4.044   8.538   2.515
 9884TIP3    H129574   4.112   8.593   2.474
 9884TIP3    H229575   3.963   8.587   2.491
 9885TIP3   OH229576   3.077   7.326   4.375
 9885TIP3    H129577   2.981   7.327   4.387
 9885TIP3    H229578   3.106   7.271   4.449
 9886TIP3   OH229579   3.886   8.011   2.910
 9886TIP3    H129580   3.874   7.944   2.979
 9886TIP3    H229581   3.983   8.006   2.898
 9887TIP3   OH229582   2.823   8.423   4.026
 9887TIP3    H129583   2.856   8.334   4.046
 9887TIP3    H229584   2.835   8.466   4.112
 9888TIP3   OH229585   3.079   8.056   2.694
 9888TIP3    H129586   3.094   7.963   2.668
 9888TIP3    H229587   3.064   8.046   2.790
 9889TIP3   OH229588   3.028   8.058   2.965
 9889TIP3    H129589   3.104   8.031   3.020
 9889TIP3    H229590   3.029   8.155   2.977
 9890TIP3   OH229591   2.762   7.752   3.172
 9890TIP3    H129592   2.695   7.797   3.227
 9890TIP3    H229593   2.775   7.820   3.103
 9891TIP3   OH229594   3.923   7.386   4.059
 9891TIP3    H129595   4.001   7.429   4.098
 9891TIP3    H229596   3.911   7.308   4.117
 9892TIP3   OH229597   3.794   7.140   3.235
 9892TIP3    H129598   3.782   7.158   3.140
 9892TIP3    H229599   3.837   7.223   3.266
 9893TIP3   OH229600   3.293   8.249   2.921
 9893TIP3    H129601   3.206   8.274   2.958
 9893TIP3    H229602   3.320   8.334   2.883
 9894TIP3   OH229603   3.486   7.320   3.332
 9894TIP3    H129604   3.548   7.394   3.311
 9894TIP3    H229605   3.489   7.321   3.430
 9895TIP3   OH229606   3.757   7.637   4.135
 9895TIP3    H129607   3.780   7.692   4.213
 9895TIP3    H229608   3.810   7.557   4.151
 9896TIP3   OH229609   3.630   7.052   3.444
 9896TIP3    H129610   3.595   7.136   3.479
 9896TIP3    H229611   3.691   7.085   3.374
 9897TIP3   OH229612   3.043   8.327   2.992
 9897TIP3    H129613   3.034   8.397   2.926
 9897TIP3    H229614   3.027   8.375   3.077
 9898TIP3   OH229615   3.140   7.049   3.219
 9898TIP3    H129616   3.137   7.138   3.258
 9898TIP3    H229617   3.236   7.031   3.226
 9899TIP3   OH229618   4.392   7.543   4.116
 9899TIP3    H129619   4.294   7.540   4.123
 9899TIP3    H229620   4.405   7.491   4.035
 9900TIP3   OH229621   4.044   7.733   3.504
 9900TIP3    H129622   3.968   7.674   3.518
 9900TIP3    H229623   4.115   7.687   3.553
 9901TIP3   OH229624   2.758   7.955   2.975
 9901TIP3    H129625   2.827   8.023   2.984
 9901TIP3    H229626   2.802   7.898   2.908
 9902TIP3   OH229627   2.699   7.237   3.111
 9902TIP3    H129628   2.702   7.335   3.108
 9902TIP3    H229629   2.625   7.218   3.053
 9903TIP3   OH229630   4.012   8.658   3.438
 9903TIP3    H129631   3.978   8.745   3.411
 9903TIP3    H229632   4.107   8.681   3.445
 9904TIP3   OH229633   3.090   6.958   3.978
 9904TIP3    H129634   3.060   6.922   3.892
 9904TIP3    H229635   3.080   6.880   4.037
 9905TIP3   OH229636   2.637   8.149   3.399
 9905TIP3    H129637   2.578   8.196   3.461
 9905TIP3    H229638   2.603   8.181   3.312
 9906TIP3   OH229639   2.866   8.658   4.397
 9906TIP3    H129640   2.935   8.678   4.464
 9906TIP3    H229641   2.846   8.566   4.419
 9907TIP3   OH229642   3.285   8.681   4.472
 9907TIP3    H129643   3.372   8.640   4.481
 9907TIP3    H229644   3.247   8.626   4.400
 9908TIP3   OH229645   3.246   8.256   2.601
 9908TIP3    H129646   3.194   8.183   2.641
 9908TIP3    H229647   3.319   8.206   2.560
 9909TIP3   OH229648   3.896   8.587   4.211
 9909TIP3    H129649   3.890   8.517   4.280
 9909TIP3    H229650   3.977   8.634   4.238
 9910TIP3   OH229651   3.684   8.278   2.509
 9910TIP3    H129652   3.715   8.206   2.568
 9910TIP3    H229653   3.742   8.271   2.432
 9911TIP3   OH229654   2.916   8.126   4.633
 9911TIP3    H129655   2.936   8.031   4.639
 9911TIP3    H229656   2.829   8.126   4.588
 9912TIP3   OH229657   2.896   7.772   2.830
 9912TIP3    H129658   2.954   7.744   2.903
 9912TIP3    H229659   2.963   7.778   2.758
 9913TIP3   OH229660   3.524   8.214   4.408
 9913TIP3    H129661   3.483   8.234   4.321
 9913TIP3    H229662   3.556   8.122   4.396
 9914TIP3   OH229663   3.408   7.973   2.637
 9914TIP3    H129664   3.412   7.985   2.734
 9914TIP3    H229665   3.410   7.875   2.631
 9915TIP3   OH229666   4.014   8.226   4.016
 9915TIP3    H129667   4.093   8.266   3.973
 9915TIP3    H229668   3.946   8.292   3.995
 9916TIP3   OH229669   3.036   7.862   4.618
 9916TIP3    H129670   3.116   7.817   4.587
 9916TIP3    H229671   3.065   7.895   4.706
 9917TIP3   OH229672   3.098   7.683   3.045
 9917TIP3    H129673   3.072   7.642   3.129
 9917TIP3    H229674   3.137   7.607   2.997
 9918TIP3   OH229675   3.371   7.743   4.276
 9918TIP3    H129676   3.294   7.804   4.278
 9918TIP3    H229677   3.422   7.778   4.200
 9919TIP3   OH229678   3.206   7.478   2.888
 9919TIP3    H129679   3.181   7.486   2.793
 9919TIP3    H229680   3.303   7.480   2.881
 9920TIP3   OH229681   3.889   8.145   4.409
 9920TIP3    H129682   3.970   8.116   4.365
 9920TIP3    H229683   3.883   8.083   4.484
 9921TIP3   OH229684   4.021   7.801   2.558
 9921TIP3    H129685   4.004   7.756   2.473
 9921TIP3    H229686   3.986   7.890   2.535
 9922TIP3   OH229687   3.495   7.536   4.402
 9922TIP3    H129688   3.496   7.457   4.344
 9922TIP3    H229689   3.451   7.603   4.345
 9923TIP3   OH229690   3.498   7.323   4.211
 9923TIP3    H129691   3.526   7.362   4.126
 9923TIP3    H229692   3.405   7.299   4.191
 9924TIP3   OH229693   3.521   7.853   4.083
 9924TIP3    H129694   3.608   7.870   4.044
 9924TIP3    H229695   3.465   7.919   4.036
 9925TIP3   OH229696   4.102   7.820   4.461
 9925TIP3    H129697   4.150   7.738   4.479
 9925TIP3    H229698   4.172   7.878   4.427
 9926TIP3   OH229699   4.146   8.074   4.197
 9926TIP3    H129700   4.088   8.130   4.140
 9926TIP3    H229701   4.233   8.096   4.159
 9927TIP3   OH229702   3.373   7.640   4.636
 9927TIP3    H129703   3.306   7.570   4.652
 9927TIP3    H229704   3.407   7.614   4.548
 9928TIP3   OH229705   3.629   7.083   4.281
 9928TIP3    H129706   3.579   7.164   4.258
 9928TIP3    H229707   3.561   7.013   4.269
 9929TIP3   OH229708   3.756   7.584   4.495
 9929TIP3    H129709   3.743   7.569   4.590
 9929TIP3    H229710   3.666   7.561   4.463
 9930TIP3   OH229711   3.991   7.534   4.347
 9930TIP3    H129712   3.918   7.536   4.412
 9930TIP3    H229713   4.067   7.505   4.403
 9931TIP3   OH229714   4.221   7.479   4.496
 9931TIP3    H129715   4.235   7.383   4.512
 9931TIP3    H229716   4.217   7.514   4.587
 9932TIP3   OH229717   3.211   7.420   4.692
 9932TIP3    H129718   3.215   7.328   4.659
 9932TIP3    H229719   3.251   7.409   4.781
 9933TIP3   OH229720   3.721   7.093   4.539
 9933TIP3    H129721   3.789   7.022   4.532
 9933TIP3    H229722   3.682   7.088   4.450
 9934TIP3   OH229723   3.790   7.307   4.697
 9934TIP3    H129724   3.768   7.236   4.633
 9934TIP3    H229725   3.711   7.365   4.690
 9935TIP3   OH229726   2.489   7.922   3.002
 9935TIP3    H129727   2.585   7.942   2.995
 9935TIP3    H229728   2.486   7.830   2.966
 9936TIP3   OH229729   2.540   8.359   3.593
 9936TIP3    H129730   2.516   8.300   3.665
 9936TIP3    H229731   2.587   8.429   3.642
 9937TIP3   OH229732   4.262   8.759   3.440
 9937TIP3    H129733   4.297   8.818   3.509
 9937TIP3    H229734   4.309   8.795   3.362
 9938TIP3   OH229735   4.330   8.771   3.725
 9938TIP3    H129736   4.276   8.693   3.701
 9938TIP3    H229737   4.394   8.730   3.786
 9939TIP3   OH229738   4.335   8.470   4.265
 9939TIP3    H129739   4.270   8.479   4.337
 9939TIP3    H229740   4.383   8.556   4.271
 9940TIP3   OH229741   4.161   7.989   2.886
 9940TIP3    H129742   4.226   8.054   2.854
 9940TIP3    H229743   4.208   7.953   2.965
 9941TIP3   OH229744   4.291   7.858   3.092
 9941TIP3    H129745   4.222   7.817   3.149
 9941TIP3    H229746   4.352   7.896   3.157
 9942TIP3   OH229747   4.349   8.250   3.527
 9942TIP3    H129748   4.398   8.185   3.474
 9942TIP3    H229749   4.351   8.329   3.469
 9943TIP3   OH229750   4.176   8.530   3.705
 9943TIP3    H129751   4.105   8.583   3.749
 9943TIP3    H229752   4.126   8.486   3.633
 9944TIP3   OH229753   4.226   7.766   2.737
 9944TIP3    H129754   4.154   7.767   2.669
 9944TIP3    H229755   4.198   7.842   2.791
 9945TIP3   OH229756   4.094   7.439   2.691
 9945TIP3    H129757   4.052   7.472   2.611
 9945TIP3    H229758   4.073   7.343   2.684
 9946TIP3   OH229759   4.100   7.718   3.234
 9946TIP3    H129760   4.108   7.622   3.226
 9946TIP3    H229761   4.085   7.729   3.331
 9947TIP3   OH229762   2.726   7.787   3.985
 9947TIP3    H129763   2.723   7.753   3.893
 9947TIP3    H229764   2.824   7.788   4.001
 9948TIP3   OH229765   4.393   8.140   4.095
 9948TIP3    H129766   4.463   8.073   4.082
 9948TIP3    H229767   4.418   8.209   4.031
 9949TIP3   OH229768   4.574   7.939   4.095
 9949TIP3    H129769   4.500   7.891   4.139
 9949TIP3    H229770   4.648   7.877   4.116
 9950TIP3   OH229771   4.039   7.173   2.673
 9950TIP3    H129772   4.113   7.140   2.728
 9950TIP3    H229773   3.966   7.113   2.693
 9951TIP3   OH229774   4.100   7.433   3.127
 9951TIP3    H129775   4.141   7.345   3.142
 9951TIP3    H229776   4.157   7.466   3.056
 9952TIP3   OH229777   4.256   7.601   3.624
 9952TIP3    H129778   4.342   7.624   3.583
 9952TIP3    H229779   4.271   7.639   3.713
 9953TIP3   OH229780   4.329   7.749   3.853
 9953TIP3    H129781   4.253   7.783   3.905
 9953TIP3    H229782   4.362   7.831   3.811
 9954TIP3   OH229783   2.945   7.473   4.657
 9954TIP3    H129784   3.043   7.468   4.663
 9954TIP3    H229785   2.922   7.386   4.695
 9955TIP3   OH229786   4.781   7.345   4.410
 9955TIP3    H129787   4.841   7.281   4.367
 9955TIP3    H229788   4.748   7.396   4.333
 9956TIP3   OH229789   4.208   7.183   3.171
 9956TIP3    H129790   4.256   7.164   3.254
 9956TIP3    H229791   4.146   7.106   3.167
 9957TIP3   OH229792   2.907   7.168   3.989
 9957TIP3    H129793   2.967   7.091   3.997
 9957TIP3    H229794   2.970   7.241   3.979
 9958TIP3   OH229795   2.705   7.440   4.058
 9958TIP3    H129796   2.757   7.437   3.975
 9958TIP3    H229797   2.737   7.522   4.097
 9959TIP3   OH229798   4.649   7.480   4.215
 9959TIP3    H129799   4.565   7.522   4.239
 9959TIP3    H229800   4.615   7.406   4.159
 9960TIP3   OH229801   4.283   7.113   2.803
 9960TIP3    H129802   4.323   7.043   2.747
 9960TIP3    H229803   4.351   7.183   2.800
 9961TIP3   OH229804   2.695   6.945   3.563
 9961TIP3    H129805   2.602   6.937   3.591
 9961TIP3    H229806   2.687   7.003   3.484
 9962TIP3   OH229807   3.917   8.621   3.101
 9962TIP3    H129808   3.966   8.575   3.030
 9962TIP3    H229809   3.988   8.675   3.140
 9963TIP3   OH229810   2.914   7.027   4.377
 9963TIP3    H129811   2.862   7.019   4.458
 9963TIP3    H229812   2.847   7.061   4.315
 9964TIP3   OH229813   2.977   8.403   4.465
 9964TIP3    H129814   2.884   8.379   4.453
 9964TIP3    H229815   2.983   8.413   4.561
 9965TIP3   OH229816   3.126   8.483   4.013
 9965TIP3    H129817   3.055   8.507   3.951
 9965TIP3    H229818   3.206   8.503   3.959
 9966TIP3   OH229819   3.614   8.714   4.109
 9966TIP3    H129820   3.601   8.720   4.205
 9966TIP3    H229821   3.702   8.752   4.102
 9967TIP3   OH229822   4.550   7.246   4.101
 9967TIP3    H129823   4.460   7.225   4.068
 9967TIP3    H229824   4.592   7.158   4.091
 9968TIP3   OH229825   3.707   8.692   3.730
 9968TIP3    H129826   3.626   8.737   3.701
 9968TIP3    H229827   3.762   8.767   3.757
 9969TIP3   OH229828   2.691   8.496   3.791
 9969TIP3    H129829   2.740   8.476   3.874
 9969TIP3    H229830   2.762   8.535   3.737
 9970TIP3   OH229831   2.915   8.400   3.619
 9970TIP3    H129832   2.918   8.321   3.677
 9970TIP3    H229833   3.010   8.427   3.621
 9971TIP3   OH229834   3.171   8.478   3.644
 9971TIP3    H129835   3.208   8.388   3.646
 9971TIP3    H229836   3.236   8.526   3.698
 9972TIP3   OH229837   3.775   7.139   3.724
 9972TIP3    H129838   3.719   7.082   3.780
 9972TIP3    H229839   3.763   7.099   3.637
 9973TIP3   OH229840   4.223   7.037   3.643
 9973TIP3    H129841   4.312   7.074   3.632
 9973TIP3    H229842   4.182   7.070   3.562
 9974TIP3   OH229843   4.367   7.126   3.392
 9974TIP3    H129844   4.443   7.077   3.354
 9974TIP3    H229845   4.400   7.218   3.381
 9975TIP3   OH229846   3.002   6.863   3.731
 9975TIP3    H129847   2.909   6.830   3.736
 9975TIP3    H229848   3.050   6.777   3.728
 9976TIP3   OH229849   2.792   6.738   3.384
 9976TIP3    H129850   2.821   6.793   3.309
 9976TIP3    H229851   2.766   6.805   3.450
 9977TIP3   OH229852   3.450   6.899   3.614
 9977TIP3    H129853   3.511   6.946   3.555
 9977TIP3    H229854   3.475   6.933   3.701
 9978TIP3   OH229855   4.024   6.971   3.160
 9978TIP3    H129856   3.937   7.012   3.178
 9978TIP3    H229857   4.012   6.885   3.206
 9979TIP3   OH229858   2.515   8.230   3.176
 9979TIP3    H129859   2.444   8.188   3.126
 9979TIP3    H229860   2.508   8.322   3.145
 9980TIP3   OH229861   2.910   6.893   3.143
 9980TIP3    H129862   2.957   6.829   3.085
 9980TIP3    H229863   2.985   6.946   3.177
 9981TIP3   OH229864   3.416   7.072   3.241
 9981TIP3    H129865   3.472   7.017   3.299
 9981TIP3    H229866   3.444   7.162   3.270
 9982TIP3   OH229867   3.158   8.474   2.749
 9982TIP3    H129868   3.220   8.545   2.725
 9982TIP3    H229869   3.190   8.400   2.693
 9983TIP3   OH229870   4.010   8.584   2.828
 9983TIP3    H129871   4.011   8.486   2.832
 9983TIP3    H229872   4.022   8.595   2.732
 9984TIP3   OH229873   3.210   7.146   4.625
 9984TIP3    H129874   3.174   7.075   4.681
 9984TIP3    H229875   3.304   7.145   4.652
 9985TIP3   OH229876   3.460   7.144   4.742
 9985TIP3    H129877   3.546   7.119   4.703
 9985TIP3    H229878   3.448   7.074   4.809
 9986TIP3   OH229879   2.599   8.287   2.810
 9986TIP3    H129880   2.604   8.364   2.867
 9986TIP3    H229881   2.694   8.271   2.787
 9987TIP3   OH229882   4.284   7.208   4.528
 9987TIP3    H129883   4.302   7.177   4.619
 9987TIP3    H229884   4.374   7.201   4.487
 9988TIP3   OH229885   4.237   8.760   4.019
 9988TIP3    H129886   4.169   8.716   3.963
 9988TIP3    H229887   4.206   8.851   4.016
 9989TIP3   OH229888   5.491   8.134   2.790
 9989TIP3    H129889   5.454   8.220   2.756
 9989TIP3    H229890   5.413   8.078   2.785
 9990TIP3   OH229891   5.492   8.133   3.175
 9990TIP3    H129892   5.536   8.105   3.257
 9990TIP3    H229893   5.454   8.050   3.142
 9991TIP3   OH229894   4.801   8.021   3.525
 9991TIP3    H129895   4.839   7.950   3.579
 9991TIP3    H229896   4.844   8.098   3.566
 9992TIP3   OH229897   5.742   8.434   2.850
 9992TIP3    H129898   5.713   8.372   2.917
 9992TIP3    H229899   5.767   8.512   2.904
 9993TIP3   OH229900   4.766   8.438   3.262
 9993TIP3    H129901   4.763   8.340   3.266
 9993TIP3    H229902   4.861   8.450   3.244
 9994TIP3   OH229903   4.466   7.635   3.040
 9994TIP3    H129904   4.417   7.718   3.057
 9994TIP3    H229905   4.397   7.584   2.995
 9995TIP3   OH229906   4.529   7.929   3.221
 9995TIP3    H129907   4.575   7.848   3.251
 9995TIP3    H229908   4.577   7.950   3.140
 9996TIP3   OH229909   5.395   8.876   2.912
 9996TIP3    H129910   5.428   8.831   2.832
 9996TIP3    H229911   5.402   8.805   2.976
 9997TIP3   OH229912   5.286   8.348   3.230
 9997TIP3    H129913   5.329   8.280   3.174
 9997TIP3    H229914   5.366   8.399   3.253
 9998TIP3   OH229915   6.299   7.683   3.216
 9998TIP3    H129916   6.234   7.753   3.199
 9998TIP3    H229917   6.341   7.674   3.128
 9999TIP3   OH229918   5.702   7.852   3.243
 9999TIP3    H129919   5.743   7.766   3.263
 9999TIP3    H229920   5.664   7.836   3.154
10000TIP3   OH229921   5.042   7.523   3.218
10000TIP3    H129922   5.024   7.590   3.148
10000TIP3    H229923   4.996   7.446   3.178
10001TIP3   OH229924   5.732   7.614   2.835
10001TIP3    H129925   5.806   7.599   2.899
10001TIP3    H229926   5.782   7.645   2.757
10002TIP3   OH229927   4.669   7.717   3.320
10002TIP3    H129928   4.747   7.690   3.371
10002TIP3    H229929   4.683   7.663   3.239
10003TIP3   OH229930   5.107   7.906   3.117
10003TIP3    H129931   5.203   7.889   3.115
10003TIP3    H229932   5.071   7.825   3.075
10004TIP3   OH229933   5.036   7.504   3.650
10004TIP3    H129934   4.976   7.541   3.583
10004TIP3    H229935   4.981   7.516   3.730
10005TIP3   OH229936   5.376   8.347   2.657
10005TIP3    H129937   5.338   8.331   2.569
10005TIP3    H229938   5.329   8.429   2.682
10006TIP3   OH229939   5.170   8.273   3.473
10006TIP3    H129940   5.099   8.333   3.504
10006TIP3    H229941   5.198   8.321   3.391
10007TIP3   OH229942   5.938   7.616   3.012
10007TIP3    H129943   5.929   7.555   3.086
10007TIP3    H229944   5.999   7.684   3.046
10008TIP3   OH229945   4.904   7.622   3.435
10008TIP3    H129946   4.946   7.709   3.444
10008TIP3    H229947   4.956   7.583   3.360
10009TIP3   OH229948   4.977   8.463   3.544
10009TIP3    H129949   4.953   8.550   3.506
10009TIP3    H229950   4.895   8.447   3.596
10010TIP3   OH229951   4.359   8.158   2.777
10010TIP3    H129952   4.323   8.198   2.696
10010TIP3    H229953   4.393   8.237   2.825
10011TIP3   OH229954   5.794   8.656   3.012
10011TIP3    H129955   5.704   8.657   3.053
10011TIP3    H229956   5.793   8.744   2.966
10012TIP3   OH229957   6.084   7.574   3.386
10012TIP3    H129958   5.995   7.598   3.352
10012TIP3    H229959   6.142   7.595   3.311
10013TIP3   OH229960   5.390   7.216   3.369
10013TIP3    H129961   5.390   7.122   3.395
10013TIP3    H229962   5.309   7.247   3.415
10014TIP3   OH229963   5.513   8.706   2.718
10014TIP3    H129964   5.549   8.618   2.694
10014TIP3    H229965   5.588   8.761   2.689
10015TIP3   OH229966   5.651   8.500   2.598
10015TIP3    H129967   5.622   8.419   2.554
10015TIP3    H229968   5.691   8.465   2.680
10016TIP3   OH229969   6.030   8.577   3.362
10016TIP3    H129970   6.021   8.498   3.304
10016TIP3    H229971   6.010   8.650   3.300
10017TIP3   OH229972   6.239   8.210   3.188
10017TIP3    H129973   6.153   8.255   3.208
10017TIP3    H229974   6.253   8.249   3.099
10018TIP3   OH229975   5.676   8.089   2.593
10018TIP3    H129976   5.615   8.101   2.670
10018TIP3    H229977   5.755   8.054   2.638
10019TIP3   OH229978   5.906   8.101   3.512
10019TIP3    H129979   5.904   8.184   3.564
10019TIP3    H229980   5.822   8.110   3.462
10020TIP3   OH229981   4.894   8.058   3.015
10020TIP3    H129982   4.850   8.004   2.945
10020TIP3    H229983   4.973   8.003   3.036
10021TIP3   OH229984   5.031   8.466   3.156
10021TIP3    H129985   5.014   8.437   3.065
10021TIP3    H229986   5.118   8.426   3.175
10022TIP3   OH229987   5.082   8.018   3.359
10022TIP3    H129988   5.081   7.972   3.272
10022TIP3    H229989   5.029   8.096   3.339
10023TIP3   OH229990   5.554   8.674   3.138
10023TIP3    H129991   5.540   8.757   3.186
10023TIP3    H229992   5.540   8.605   3.206
10024TIP3   OH229993   5.176   8.589   3.689
10024TIP3    H129994   5.115   8.651   3.735
10024TIP3    H229995   5.111   8.536   3.639
10025TIP3   OH229996   5.564   7.904   2.412
10025TIP3    H129997   5.584   7.984   2.464
10025TIP3    H229998   5.558   7.940   2.321
10026TIP3   OH229999   4.912   8.153   3.769
10026TIP3    H130000   4.931   8.235   3.819
10026TIP3    H230001   4.823   8.131   3.805
10027TIP3   OH230002   5.258   8.595   2.693
10027TIP3    H130003   5.337   8.649   2.712
10027TIP3    H230004   5.194   8.661   2.662
10028TIP3   OH230005   4.973   8.756   3.779
10028TIP3    H130006   4.934   8.755   3.689
10028TIP3    H230007   4.900   8.720   3.834
10029TIP3   OH230008   6.024   7.160   2.468
10029TIP3    H130009   5.942   7.182   2.517
10029TIP3    H230010   6.039   7.242   2.417
10030TIP3   OH230011   4.758   7.909   2.825
10030TIP3    H130012   4.693   7.950   2.763
10030TIP3    H230013   4.740   7.815   2.812
10031TIP3   OH230014   5.820   8.516   2.012
10031TIP3    H130015   5.823   8.612   1.995
10031TIP3    H230016   5.914   8.491   1.998
10032TIP3   OH230017   4.548   8.288   3.722
10032TIP3    H130018   4.479   8.271   3.654
10032TIP3    H230019   4.583   8.198   3.741
10033TIP3   OH230020   4.400   8.476   3.369
10033TIP3    H130021   4.489   8.491   3.335
10033TIP3    H230022   4.374   8.565   3.396
10034TIP3   OH230023   6.287   8.923   3.428
10034TIP3    H130024   6.279   8.827   3.448
10034TIP3    H230025   6.206   8.957   3.471
10035TIP3   OH230026   5.379   8.697   3.539
10035TIP3    H130027   5.383   8.793   3.562
10035TIP3    H230028   5.302   8.668   3.593
10036TIP3   OH230029   4.568   8.672   2.876
10036TIP3    H130030   4.617   8.675   2.962
10036TIP3    H230031   4.518   8.589   2.890
10037TIP3   OH230032   5.479   8.772   2.149
10037TIP3    H130033   5.499   8.685   2.110
10037TIP3    H230034   5.457   8.748   2.241
10038TIP3   OH230035   5.349   8.722   2.394
10038TIP3    H130036   5.295   8.794   2.430
10038TIP3    H230037   5.395   8.691   2.474
10039TIP3   OH230038   6.157   8.061   3.685
10039TIP3    H130039   6.070   8.070   3.644
10039TIP3    H230040   6.177   7.966   3.669
10040TIP3   OH230041   4.752   8.471   3.700
10040TIP3    H130042   4.798   8.465   3.786
10040TIP3    H230043   4.679   8.406   3.711
10041TIP3   OH230044   5.151   7.299   3.494
10041TIP3    H130045   5.067   7.261   3.460
10041TIP3    H230046   5.113   7.368   3.552
10042TIP3   OH230047   5.685   7.419   3.693
10042TIP3    H130048   5.757   7.385   3.750
10042TIP3    H230049   5.605   7.387   3.738
10043TIP3   OH230050   5.917   7.838   3.604
10043TIP3    H130051   5.872   7.835   3.691
10043TIP3    H230052   5.900   7.929   3.574
10044TIP3   OH230053   5.575   7.976   2.150
10044TIP3    H130054   5.545   7.947   2.062
10044TIP3    H230055   5.663   8.013   2.129
10045TIP3   OH230056   5.296   7.336   2.463
10045TIP3    H130057   5.259   7.341   2.553
10045TIP3    H230058   5.255   7.252   2.433
10046TIP3   OH230059   4.970   7.693   3.020
10046TIP3    H130060   4.877   7.667   3.034
10046TIP3    H230061   4.986   7.656   2.929
10047TIP3   OH230062   5.440   7.799   2.741
10047TIP3    H130063   5.357   7.812   2.688
10047TIP3    H230064   5.498   7.759   2.673
10048TIP3   OH230065   5.631   8.057   3.837
10048TIP3    H130066   5.614   7.985   3.901
10048TIP3    H230067   5.724   8.077   3.858
10049TIP3   OH230068   5.608   7.815   2.981
10049TIP3    H130069   5.544   7.841   2.911
10049TIP3    H230070   5.644   7.734   2.937
10050TIP3   OH230071   4.924   7.841   3.722
10050TIP3    H130072   4.909   7.914   3.783
10050TIP3    H230073   4.904   7.762   3.777
10051TIP3   OH230074   4.949   7.314   2.430
10051TIP3    H130075   4.943   7.319   2.528
10051TIP3    H230076   4.873   7.371   2.405
10052TIP3   OH230077   4.492   7.353   3.308
10052TIP3    H130078   4.568   7.388   3.358
10052TIP3    H230079   4.531   7.326   3.224
10053TIP3   OH230080   4.458   7.339   2.820
10053TIP3    H130081   4.504   7.375   2.742
10053TIP3    H230082   4.398   7.414   2.838
10054TIP3   OH230083   5.627   8.051   3.409
10054TIP3    H130084   5.662   7.978   3.353
10054TIP3    H230085   5.600   8.002   3.489
10055TIP3   OH230086   5.306   7.532   3.098
10055TIP3    H130087   5.224   7.518   3.148
10055TIP3    H230088   5.375   7.498   3.158
10056TIP3   OH230089   4.729   7.576   3.092
10056TIP3    H130090   4.636   7.582   3.062
10056TIP3    H230091   4.754   7.484   3.071
10057TIP3   OH230092   5.003   7.575   2.774
10057TIP3    H130093   5.083   7.622   2.740
10057TIP3    H230094   4.943   7.595   2.700
10058TIP3   OH230095   5.790   7.595   3.300
10058TIP3    H130096   5.750   7.606   3.388
10058TIP3    H230097   5.731   7.529   3.260
10059TIP3   OH230098   4.837   7.600   2.560
10059TIP3    H130099   4.772   7.557   2.501
10059TIP3    H230100   4.890   7.650   2.497
10060TIP3   OH230101   4.921   8.386   3.928
10060TIP3    H130102   4.999   8.419   3.977
10060TIP3    H230103   4.852   8.395   3.997
10061TIP3   OH230104   5.379   7.865   3.179
10061TIP3    H130105   5.439   7.809   3.126
10061TIP3    H230106   5.373   7.816   3.262
10062TIP3   OH230107   4.898   7.337   3.072
10062TIP3    H130108   4.863   7.257   3.118
10062TIP3    H230109   4.939   7.297   2.994
10063TIP3   OH230110   5.329   7.816   3.477
10063TIP3    H130111   5.293   7.739   3.525
10063TIP3    H230112   5.418   7.820   3.518
10064TIP3   OH230113   5.054   8.172   2.559
10064TIP3    H130114   5.045   8.076   2.556
10064TIP3    H230115   5.058   8.187   2.656
10065TIP3   OH230116   6.004   8.353   3.196
10065TIP3    H130117   6.024   8.412   3.120
10065TIP3    H230118   5.915   8.320   3.172
10066TIP3   OH230119   5.539   7.453   2.421
10066TIP3    H130120   5.444   7.430   2.437
10066TIP3    H230121   5.547   7.542   2.462
10067TIP3   OH230122   5.490   8.444   3.573
10067TIP3    H130123   5.529   8.447   3.661
10067TIP3    H230124   5.445   8.531   3.567
10068TIP3   OH230125   5.618   7.684   2.551
10068TIP3    H130126   5.714   7.698   2.559
10068TIP3    H230127   5.593   7.762   2.496
10069TIP3   OH230128   4.810   8.165   3.255
10069TIP3    H130129   4.831   8.129   3.166
10069TIP3    H230130   4.797   8.086   3.309
10070TIP3   OH230131   5.241   8.282   2.392
10070TIP3    H130132   5.191   8.367   2.395
10070TIP3    H230133   5.183   8.228   2.450
10071TIP3   OH230134   4.667   8.070   3.858
10071TIP3    H130135   4.681   8.058   3.954
10071TIP3    H230136   4.593   8.008   3.842
10072TIP3   OH230137   5.402   8.207   3.881
10072TIP3    H130138   5.342   8.136   3.855
10072TIP3    H230139   5.490   8.170   3.856
10073TIP3   OH230140   5.651   8.718   3.460
10073TIP3    H130141   5.554   8.705   3.467
10073TIP3    H230142   5.669   8.762   3.546
10074TIP3   OH230143   6.059   7.790   2.369
10074TIP3    H130144   5.998   7.745   2.306
10074TIP3    H230145   6.053   7.880   2.330
10075TIP3   OH230146   6.278   8.641   3.453
10075TIP3    H130147   6.180   8.636   3.443
10075TIP3    H230148   6.304   8.613   3.362
10076TIP3   OH230149   5.791   8.573   2.288
10076TIP3    H130150   5.746   8.510   2.346
10076TIP3    H230151   5.785   8.531   2.200
10077TIP3   OH230152   5.759   8.231   3.117
10077TIP3    H130153   5.663   8.213   3.126
10077TIP3    H230154   5.788   8.152   3.070
10078TIP3   OH230155   4.888   8.457   2.871
10078TIP3    H130156   4.886   8.537   2.815
10078TIP3    H230157   4.794   8.444   2.887
10079TIP3   OH230158   4.450   7.764   2.575
10079TIP3    H130159   4.497   7.848   2.597
10079TIP3    H230160   4.374   7.769   2.637
10080TIP3   OH230161   5.030   8.224   2.828
10080TIP3    H130162   4.990   8.312   2.838
10080TIP3    H230163   4.984   8.173   2.896
10081TIP3   OH230164   5.142   8.799   3.349
10081TIP3    H130165   5.151   8.888   3.310
10081TIP3    H230166   5.233   8.775   3.372
10082TIP3   OH230167   4.799   8.696   2.730
10082TIP3    H130168   4.710   8.686   2.769
10082TIP3    H230169   4.819   8.788   2.756
10083TIP3   OH230170   5.537   8.439   3.304
10083TIP3    H130171   5.528   8.431   3.402
10083TIP3    H230172   5.618   8.389   3.288
10084TIP3   OH230173   5.519   8.334   2.182
10084TIP3    H130174   5.574   8.313   2.261
10084TIP3    H230175   5.432   8.301   2.212
10085TIP3   OH230176   5.807   8.939   3.353
10085TIP3    H130177   5.743   8.870   3.379
10085TIP3    H230178   5.748   9.016   3.341
10086TIP3   OH230179   5.840   8.790   1.992
10086TIP3    H130180   5.913   8.854   1.984
10086TIP3    H230181   5.763   8.847   1.973
10087TIP3   OH230182   4.876   7.582   3.864
10087TIP3    H130183   4.779   7.582   3.871
10087TIP3    H230184   4.900   7.522   3.937
10088TIP3   OH230185   5.684   8.277   2.395
10088TIP3    H130186   5.669   8.211   2.465
10088TIP3    H230187   5.780   8.266   2.382
10089TIP3   OH230188   4.620   8.681   3.513
10089TIP3    H130189   4.655   8.594   3.535
10089TIP3    H230190   4.626   8.725   3.598
10090TIP3   OH230191   4.873   8.312   2.183
10090TIP3    H130192   4.889   8.219   2.157
10090TIP3    H230193   4.859   8.302   2.279
10091TIP3   OH230194   4.824   8.314   2.454
10091TIP3    H130195   4.905   8.276   2.493
10091TIP3    H230196   4.837   8.410   2.471
10092TIP3   OH230197   4.558   8.007   2.657
10092TIP3    H130198   4.491   8.054   2.711
10092TIP3    H230199   4.576   8.074   2.588
10093TIP3   OH230200   5.695   7.658   3.558
10093TIP3    H130201   5.781   7.695   3.584
10093TIP3    H230202   5.692   7.576   3.611
10094TIP3   OH230203   5.600   7.392   2.712
10094TIP3    H130204   5.575   7.416   2.622
10094TIP3    H230205   5.628   7.478   2.749
10095TIP3   OH230206   5.094   8.505   2.407
10095TIP3    H130207   5.009   8.531   2.445
10095TIP3    H230208   5.125   8.589   2.370
10096TIP3   OH230209   5.310   7.559   2.823
10096TIP3    H130210   5.330   7.648   2.787
10096TIP3    H230211   5.299   7.577   2.918
10097TIP3   OH230212   5.546   7.900   3.624
10097TIP3    H130213   5.575   7.951   3.702
10097TIP3    H230214   5.600   7.819   3.632
10098TIP3   OH230215   5.425   7.299   2.914
10098TIP3    H130216   5.402   7.385   2.954
10098TIP3    H230217   5.486   7.330   2.844
10099TIP3   OH230218   4.846   8.593   2.472
10099TIP3    H130219   4.864   8.663   2.407
10099TIP3    H230220   4.832   8.643   2.556
10100TIP3   OH230221   4.937   7.310   2.708
10100TIP3    H130222   4.940   7.403   2.737
10100TIP3    H230223   5.033   7.290   2.714
10101TIP3   OH230224   6.185   7.795   3.593
10101TIP3    H130225   6.088   7.797   3.603
10101TIP3    H230226   6.192   7.737   3.516
10102TIP3   OH230227   5.842   7.976   2.995
10102TIP3    H130228   5.753   7.934   2.991
10102TIP3    H230229   5.888   7.915   3.055
10103TIP3   OH230230   4.559   8.212   2.459
10103TIP3    H130231   4.636   8.271   2.471
10103TIP3    H230232   4.600   8.150   2.395
10104TIP3   OH230233   4.493   7.493   2.598
10104TIP3    H130234   4.500   7.591   2.595
10104TIP3    H230235   4.418   7.477   2.540
10105TIP3   OH230236   5.811   8.913   2.929
10105TIP3    H130237   5.774   8.998   2.900
10105TIP3    H230238   5.906   8.938   2.933
10106TIP3   OH230239   4.886   7.217   3.464
10106TIP3    H130240   4.856   7.181   3.377
10106TIP3    H230241   4.876   7.138   3.522
10107TIP3   OH230242   4.429   8.411   2.881
10107TIP3    H130243   4.375   8.461   2.945
10107TIP3    H230244   4.393   8.442   2.795
10108TIP3   OH230245   4.660   8.914   3.884
10108TIP3    H130246   4.730   8.935   3.950
10108TIP3    H230247   4.636   8.824   3.911
10109TIP3   OH230248   5.084   8.940   3.957
10109TIP3    H130249   5.170   8.896   3.967
10109TIP3    H230250   5.044   8.884   3.887
10110TIP3   OH230251   5.040   8.511   2.089
10110TIP3    H130252   4.990   8.437   2.131
10110TIP3    H230253   5.116   8.461   2.052
10111TIP3   OH230254   5.695   8.840   3.698
10111TIP3    H130255   5.689   8.771   3.768
10111TIP3    H230256   5.775   8.891   3.726
10112TIP3   OH230257   5.480   8.533   1.996
10112TIP3    H130258   5.508   8.462   2.058
10112TIP3    H230259   5.542   8.524   1.922
10113TIP3   OH230260   4.713   8.382   4.119
10113TIP3    H130261   4.731   8.287   4.126
10113TIP3    H230262   4.626   8.383   4.075
10114TIP3   OH230263   4.696   8.022   2.322
10114TIP3    H130264   4.755   7.986   2.392
10114TIP3    H230265   4.762   8.032   2.250
10115TIP3   OH230266   5.324   8.481   3.896
10115TIP3    H130267   5.281   8.499   3.811
10115TIP3    H230268   5.359   8.390   3.884
10116TIP3   OH230269   5.204   8.232   2.123
10116TIP3    H130270   5.208   8.241   2.221
10116TIP3    H230271   5.207   8.134   2.115
10117TIP3   OH230272   5.810   8.484   3.501
10117TIP3    H130273   5.889   8.523   3.458
10117TIP3    H230274   5.744   8.553   3.482
10118TIP3   OH230275   4.835   8.117   4.105
10118TIP3    H130276   4.912   8.064   4.085
10118TIP3    H230277   4.860   8.153   4.193
10119TIP3   OH230278   4.893   7.917   2.511
10119TIP3    H130279   4.874   7.899   2.604
10119TIP3    H230280   4.984   7.881   2.508
10120TIP3   OH230281   5.682   8.399   3.895
10120TIP3    H130282   5.767   8.376   3.856
10120TIP3    H230283   5.678   8.339   3.972
10121TIP3   OH230284   5.820   8.057   2.043
10121TIP3    H130285   5.801   8.013   1.958
10121TIP3    H230286   5.784   8.147   2.022
10122TIP3   OH230287   5.282   7.785   3.885
10122TIP3    H130288   5.312   7.703   3.841
10122TIP3    H230289   5.204   7.805   3.832
10123TIP3   OH230290   5.292   7.588   3.674
10123TIP3    H130291   5.330   7.532   3.605
10123TIP3    H230292   5.198   7.558   3.674
10124TIP3   OH230293   5.897   8.078   3.946
10124TIP3    H130294   5.945   7.996   3.966
10124TIP3    H230295   5.968   8.136   3.916
10125TIP3   OH230296   5.941   8.329   3.680
10125TIP3    H130297   5.882   8.386   3.626
10125TIP3    H230298   6.029   8.354   3.642
10126TIP3   OH230299   5.166   7.898   4.116
10126TIP3    H130300   5.098   7.832   4.139
10126TIP3    H230301   5.206   7.859   4.035
10127TIP3   OH230302   5.425   7.344   3.770
10127TIP3    H130303   5.364   7.418   3.762
10127TIP3    H230304   5.363   7.268   3.760
10128TIP3   OH230305   5.553   7.842   3.984
10128TIP3    H130306   5.549   7.830   4.081
10128TIP3    H230307   5.461   7.820   3.961
10129TIP3   OH230308   5.790   7.794   3.837
10129TIP3    H130309   5.717   7.793   3.902
10129TIP3    H230310   5.866   7.763   3.891
10130TIP3   OH230311   6.019   7.734   3.983
10130TIP3    H130312   6.033   7.639   3.999
10130TIP3    H230313   6.014   7.771   4.073
10131TIP3   OH230314   5.010   7.678   4.177
10131TIP3    H130315   5.009   7.585   4.147
10131TIP3    H230316   5.047   7.667   4.267
10132TIP3   OH230317   5.517   7.347   4.028
10132TIP3    H130318   5.586   7.279   4.021
10132TIP3    H230319   5.479   7.343   3.938
10133TIP3   OH230320   5.585   7.564   4.184
10133TIP3    H130321   5.564   7.492   4.121
10133TIP3    H230322   5.505   7.620   4.178
10134TIP3   OH230323   4.287   8.179   2.487
10134TIP3    H130324   4.383   8.199   2.482
10134TIP3    H230325   4.284   8.087   2.454
10135TIP3   OH230326   4.338   8.615   3.079
10135TIP3    H130327   4.307   8.560   3.151
10135TIP3    H230328   4.387   8.683   3.128
10136TIP3   OH230329   6.062   9.016   2.925
10136TIP3    H130330   6.094   9.078   2.993
10136TIP3    H230331   6.094   9.059   2.845
10137TIP3   OH230332   6.124   9.028   3.214
10137TIP3    H130333   6.069   8.952   3.188
10137TIP3    H230334   6.191   8.985   3.269
10138TIP3   OH230335   6.132   8.725   3.751
10138TIP3    H130336   6.065   8.735   3.823
10138TIP3    H230337   6.179   8.811   3.758
10139TIP3   OH230338   5.958   8.245   2.371
10139TIP3    H130339   6.023   8.311   2.340
10139TIP3    H230340   6.003   8.208   2.450
10140TIP3   OH230341   6.086   8.112   2.575
10140TIP3    H130342   6.017   8.071   2.632
10140TIP3    H230343   6.148   8.150   2.640
10141TIP3   OH230344   6.149   8.507   3.016
10141TIP3    H130345   6.188   8.447   2.951
10141TIP3    H230346   6.146   8.591   2.965
10142TIP3   OH230347   5.972   8.785   3.194
10142TIP3    H130348   5.902   8.839   3.237
10142TIP3    H230349   5.922   8.744   3.120
10143TIP3   OH230350   6.023   8.023   2.222
10143TIP3    H130351   5.950   8.023   2.155
10143TIP3    H230352   5.993   8.098   2.277
10144TIP3   OH230353   5.901   7.691   2.172
10144TIP3    H130354   5.845   7.729   2.103
10144TIP3    H230355   5.877   7.596   2.163
10145TIP3   OH230356   5.900   7.972   2.723
10145TIP3    H130357   5.900   7.876   2.705
10145TIP3    H230358   5.882   7.975   2.820
10146TIP3   OH230359   4.528   8.038   3.475
10146TIP3    H130360   4.521   8.007   3.382
10146TIP3    H230361   4.626   8.038   3.486
10147TIP3   OH230362   6.189   8.397   3.582
10147TIP3    H130363   6.260   8.330   3.571
10147TIP3    H230364   6.217   8.469   3.524
10148TIP3   OH230365   6.367   8.191   3.575
10148TIP3    H130366   6.296   8.142   3.623
10148TIP3    H230367   6.442   8.130   3.589
10149TIP3   OH230368   5.838   7.424   2.154
10149TIP3    H130369   5.902   7.392   2.220
10149TIP3    H230370   5.757   7.374   2.174
10150TIP3   OH230371   5.903   7.695   2.620
10150TIP3    H130372   5.942   7.605   2.634
10150TIP3    H230373   5.955   7.724   2.544
10151TIP3   OH230374   6.080   7.840   3.113
10151TIP3    H130375   6.100   7.907   3.046
10151TIP3    H230376   6.078   7.895   3.195
10152TIP3   OH230377   6.100   8.002   3.325
10152TIP3    H130378   6.037   8.032   3.393
10152TIP3    H230379   6.151   8.083   3.307
10153TIP3   OH230380   4.743   7.730   4.143
10153TIP3    H130381   4.841   7.725   4.150
10153TIP3    H230382   4.719   7.643   4.180
10154TIP3   OH230383   6.574   7.600   3.896
10154TIP3    H130384   6.637   7.536   3.855
10154TIP3    H230385   6.545   7.652   3.818
10155TIP3   OH230386   6.004   7.440   2.655
10155TIP3    H130387   6.049   7.419   2.739
10155TIP3    H230388   5.940   7.365   2.650
10156TIP3   OH230389   4.702   7.426   3.476
10156TIP3    H130390   4.761   7.347   3.483
10156TIP3    H230391   4.768   7.497   3.469
10157TIP3   OH230392   4.500   7.696   3.545
10157TIP3    H130393   4.550   7.694   3.461
10157TIP3    H230394   4.525   7.782   3.581
10158TIP3   OH230395   6.446   7.738   3.698
10158TIP3    H130396   6.364   7.784   3.726
10158TIP3    H230397   6.408   7.667   3.643
10159TIP3   OH230398   6.082   7.368   2.295
10159TIP3    H130399   6.119   7.300   2.234
10159TIP3    H230400   6.147   7.441   2.286
10160TIP3   OH230401   4.491   7.202   3.050
10160TIP3    H130402   4.398   7.194   3.078
10160TIP3    H230403   4.484   7.260   2.971
10161TIP3   OH230404   5.714   8.878   2.590
10161TIP3    H130405   5.757   8.835   2.514
10161TIP3    H230406   5.784   8.935   2.622
10162TIP3   OH230407   4.716   7.302   3.869
10162TIP3    H130408   4.662   7.278   3.946
10162TIP3    H230409   4.647   7.319   3.802
10163TIP3   OH230410   4.774   8.656   3.950
10163TIP3    H130411   4.679   8.638   3.938
10163TIP3    H230412   4.780   8.668   4.046
10164TIP3   OH230413   4.924   8.735   3.500
10164TIP3    H130414   4.851   8.763   3.442
10164TIP3    H230415   5.003   8.757   3.445
10165TIP3   OH230416   5.408   8.967   3.594
10165TIP3    H130417   5.396   8.968   3.691
10165TIP3    H230418   5.482   9.028   3.587
10166TIP3   OH230419   6.346   7.493   3.586
10166TIP3    H130420   6.255   7.476   3.555
10166TIP3    H230421   6.384   7.403   3.577
10167TIP3   OH230422   5.501   8.945   3.221
10167TIP3    H130423   5.424   8.990   3.185
10167TIP3    H230424   5.561   9.020   3.237
10168TIP3   OH230425   4.489   8.754   3.276
10168TIP3    H130426   4.538   8.734   3.358
10168TIP3    H230427   4.557   8.804   3.226
10169TIP3   OH230428   4.714   8.652   3.101
10169TIP3    H130429   4.715   8.576   3.163
10169TIP3    H230430   4.808   8.680   3.105
10170TIP3   OH230431   4.968   8.735   3.127
10170TIP3    H130432   5.007   8.646   3.134
10170TIP3    H230433   5.032   8.787   3.178
10171TIP3   OH230434   5.547   7.414   3.215
10171TIP3    H130435   5.510   7.340   3.265
10171TIP3    H230436   5.616   7.371   3.162
10172TIP3   OH230437   6.070   7.310   3.116
10172TIP3    H130438   6.104   7.351   3.033
10172TIP3    H230439   5.973   7.312   3.102
10173TIP3   OH230440   6.167   7.390   2.873
10173TIP3    H130441   6.240   7.337   2.834
10173TIP3    H230442   6.201   7.481   2.858
10174TIP3   OH230443   4.798   7.120   3.219
10174TIP3    H130444   4.706   7.087   3.223
10174TIP3    H230445   4.847   7.034   3.217
10175TIP3   OH230446   4.587   6.994   2.869
10175TIP3    H130447   4.619   7.049   2.795
10175TIP3    H230448   4.563   7.061   2.936
10176TIP3   OH230449   5.249   7.158   3.104
10176TIP3    H130450   5.305   7.201   3.037
10176TIP3    H230451   5.287   7.190   3.187
10177TIP3   OH230452   5.791   7.306   3.082
10177TIP3    H130453   5.785   7.263   2.996
10177TIP3    H230454   5.777   7.229   3.142
10178TIP3   OH230455   5.820   7.228   2.648
10178TIP3    H130456   5.736   7.274   2.665
10178TIP3    H230457   5.803   7.142   2.692
10179TIP3   OH230458   4.311   8.489   2.652
10179TIP3    H130459   4.222   8.457   2.631
10179TIP3    H230460   4.303   8.584   2.631
10180TIP3   OH230461   4.707   7.150   2.631
10180TIP3    H130462   4.755   7.088   2.573
10180TIP3    H230463   4.781   7.205   2.665
10181TIP3   OH230464   5.212   7.326   2.726
10181TIP3    H130465   5.272   7.280   2.786
10181TIP3    H230466   5.234   7.419   2.751
10182TIP3   OH230467   4.950   8.726   2.239
10182TIP3    H130468   5.012   8.798   2.216
10182TIP3    H230469   4.984   8.653   2.183
10183TIP3   OH230470   5.802   8.840   2.322
10183TIP3    H130471   5.804   8.741   2.320
10183TIP3    H230472   5.831   8.858   2.231
10184TIP3   OH230473   5.007   7.405   4.112
10184TIP3    H130474   4.968   7.334   4.167
10184TIP3    H230475   5.100   7.403   4.142
10185TIP3   OH230476   5.258   7.398   4.229
10185TIP3    H130477   5.344   7.372   4.191
10185TIP3    H230478   5.243   7.329   4.296
10186TIP3   OH230479   4.391   8.553   2.297
10186TIP3    H130480   4.406   8.558   2.392
10186TIP3    H230481   4.481   8.526   2.265
10187TIP3   OH230482   6.084   7.464   4.016
10187TIP3    H130483   6.101   7.434   4.107
10187TIP3    H230484   6.174   7.459   3.977
10188TIP3   OH230485   6.032   9.016   3.505
10188TIP3    H130486   5.964   8.972   3.449
10188TIP3    H230487   6.002   9.108   3.499
10189TIP3   OH230488   7.210   8.365   2.628
10189TIP3    H130489   7.282   8.378   2.692
10189TIP3    H230490   7.247   8.289   2.581
10190TIP3   OH230491   6.594   8.279   3.042
10190TIP3    H130492   6.661   8.266   3.111
10190TIP3    H230493   6.641   8.339   2.982
10191TIP3   OH230494   6.550   8.688   2.749
10191TIP3    H130495   6.544   8.591   2.752
10191TIP3    H230496   6.646   8.699   2.733
10192TIP3   OH230497   6.262   7.892   2.530
10192TIP3    H130498   6.212   7.975   2.544
10192TIP3    H230499   6.195   7.841   2.482
10193TIP3   OH230500   6.319   8.183   2.707
10193TIP3    H130501   6.371   8.107   2.742
10193TIP3    H230502   6.378   8.220   2.641
10194TIP3   OH230503   7.086   8.547   2.787
10194TIP3    H130504   7.112   8.478   2.723
10194TIP3    H230505   7.143   8.621   2.757
10195TIP3   OH230506   7.539   8.095   2.766
10195TIP3    H130507   7.550   7.999   2.772
10195TIP3    H230508   7.497   8.106   2.679
10196TIP3   OH230509   6.839   7.773   2.701
10196TIP3    H130510   6.818   7.845   2.638
10196TIP3    H230511   6.790   7.699   2.658
10197TIP3   OH230512   7.521   7.864   2.314
10197TIP3    H130513   7.567   7.845   2.399
10197TIP3    H230514   7.602   7.873   2.260
10198TIP3   OH230515   6.469   7.985   2.825
10198TIP3    H130516   6.555   7.955   2.859
10198TIP3    H230517   6.461   7.924   2.748
10199TIP3   OH230518   6.908   8.171   2.603
10199TIP3    H130519   7.001   8.143   2.618
10199TIP3    H230520   6.869   8.087   2.570
10200TIP3   OH230521   6.831   7.755   3.136
10200TIP3    H130522   6.774   7.794   3.067
10200TIP3    H230523   6.774   7.764   3.215
10201TIP3   OH230524   6.904   8.506   2.976
10201TIP3    H130525   6.852   8.586   2.998
10201TIP3    H230526   6.961   8.541   2.903
10202TIP3   OH230527   7.678   7.861   2.534
10202TIP3    H130528   7.655   7.818   2.619
10202TIP3    H230529   7.744   7.926   2.562
10203TIP3   OH230530   6.705   7.874   2.920
10203TIP3    H130531   6.768   7.945   2.945
10203TIP3    H230532   6.754   7.834   2.843
10204TIP3   OH230533   6.757   8.730   3.030
10204TIP3    H130534   6.739   8.818   2.990
10204TIP3    H230535   6.677   8.720   3.084
10205TIP3   OH230536   6.157   8.414   2.265
10205TIP3    H130537   6.117   8.455   2.186
10205TIP3    H230538   6.188   8.493   2.314
10206TIP3   OH230539   7.858   7.809   2.811
10206TIP3    H130540   7.762   7.826   2.826
10206TIP3    H230541   7.901   7.871   2.874
10207TIP3   OH230542   7.183   7.473   2.851
10207TIP3    H130543   7.169   7.378   2.870
10207TIP3    H230544   7.106   7.511   2.898
10208TIP3   OH230545   7.136   8.252   2.065
10208TIP3    H130546   7.048   8.291   2.085
10208TIP3    H230547   7.136   8.262   1.969
10209TIP3   OH230548   7.068   8.003   1.841
10209TIP3    H130549   7.135   8.047   1.894
10209TIP3    H230550   7.122   7.943   1.786
10210TIP3   OH230551   6.696   8.318   2.495
10210TIP3    H130552   6.655   8.258   2.428
10210TIP3    H230553   6.772   8.265   2.526
10211TIP3   OH230554   6.808   8.718   2.654
10211TIP3    H130555   6.804   8.683   2.564
10211TIP3    H230556   6.903   8.743   2.660
10212TIP3   OH230557   6.815   8.286   2.840
10212TIP3    H130558   6.864   8.267   2.757
10212TIP3    H230559   6.861   8.366   2.874
10213TIP3   OH230560   6.973   8.828   3.171
10213TIP3    H130561   6.925   8.900   3.217
10213TIP3    H230562   6.896   8.783   3.129
10214TIP3   OH230563   6.724   8.393   3.280
10214TIP3    H130564   6.737   8.483   3.317
10214TIP3    H230565   6.630   8.380   3.300
10215TIP3   OH230566   6.767   8.993   3.255
10215TIP3    H130567   6.720   9.005   3.170
10215TIP3    H230568   6.695   8.972   3.317
10216TIP3   OH230569   7.798   7.379   1.947
10216TIP3    H130570   7.721   7.390   2.008
10216TIP3    H230571   7.783   7.460   1.894
10217TIP3   OH230572   6.564   8.161   2.296
10217TIP3    H130573   6.495   8.208   2.244
10217TIP3    H230574   6.525   8.074   2.307
10218TIP3   OH230575   6.343   8.541   3.211
10218TIP3    H130576   6.274   8.531   3.142
10218TIP3    H230577   6.378   8.450   3.219
10219TIP3   OH230578   6.199   8.733   2.864
10219TIP3    H130579   6.283   8.750   2.819
10219TIP3    H230580   6.169   8.824   2.884
10220TIP3   OH230581   6.370   8.928   2.370
10220TIP3    H130582   6.434   8.929   2.444
10220TIP3    H230583   6.313   8.854   2.395
10221TIP3   OH230584   6.541   8.731   3.191
10221TIP3    H130585   6.589   8.727   3.276
10221TIP3    H230586   6.470   8.664   3.204
10222TIP3   OH230587   6.946   7.549   2.981
10222TIP3    H130588   6.858   7.520   2.951
10222TIP3    H230589   6.921   7.630   3.030
10223TIP3   OH230590   7.487   7.661   3.178
10223TIP3    H130591   7.557   7.635   3.242
10223TIP3    H230592   7.404   7.643   3.228
10224TIP3   OH230593   7.719   8.050   3.098
10224TIP3    H130594   7.675   8.055   3.186
10224TIP3    H230595   7.729   8.143   3.075
10225TIP3   OH230596   7.088   7.605   1.947
10225TIP3    H130597   7.056   7.600   2.039
10225TIP3    H230598   7.053   7.521   1.912
10226TIP3   OH230599   6.879   8.072   3.000
10226TIP3    H130600   6.889   8.122   3.084
10226TIP3    H230601   6.856   8.145   2.938
10227TIP3   OH230602   6.762   7.953   2.514
10227TIP3    H130603   6.669   7.929   2.534
10227TIP3    H230604   6.773   7.912   2.425
10228TIP3   OH230605   7.244   8.056   2.238
10228TIP3    H130606   7.200   8.128   2.188
10228TIP3    H230607   7.311   8.027   2.175
10229TIP3   OH230608   7.436   8.313   3.328
10229TIP3    H130609   7.395   8.246   3.387
10229TIP3    H230610   7.527   8.309   3.362
10230TIP3   OH230611   7.363   8.019   2.487
10230TIP3    H130612   7.309   8.049   2.411
10230TIP3    H230613   7.405   7.941   2.446
10231TIP3   OH230614   6.663   8.090   3.246
10231TIP3    H130615   6.728   8.151   3.284
10231TIP3    H230616   6.691   8.006   3.287
10232TIP3   OH230617   6.749   7.574   1.917
10232TIP3    H130618   6.738   7.573   2.014
10232TIP3    H230619   6.671   7.627   1.891
10233TIP3   OH230620   6.292   7.616   2.796
10233TIP3    H130621   6.373   7.648   2.840
10233TIP3    H230622   6.322   7.587   2.708
10234TIP3   OH230623   6.256   7.597   2.307
10234TIP3    H130624   6.302   7.633   2.228
10234TIP3    H230625   6.195   7.670   2.325
10235TIP3   OH230626   7.361   8.267   2.900
10235TIP3    H130627   7.424   8.213   2.849
10235TIP3    H230628   7.348   8.209   2.978
10236TIP3   OH230629   7.097   7.764   2.570
10236TIP3    H130630   7.013   7.767   2.621
10236TIP3    H230631   7.161   7.789   2.638
10237TIP3   OH230632   6.522   7.835   2.591
10237TIP3    H130633   6.429   7.843   2.558
10237TIP3    H230634   6.546   7.744   2.564
10238TIP3   OH230635   6.789   7.827   2.273
10238TIP3    H130636   6.882   7.840   2.248
10238TIP3    H230637   6.741   7.848   2.189
10239TIP3   OH230638   7.572   7.820   2.795
10239TIP3    H130639   7.537   7.840   2.885
10239TIP3    H230640   7.498   7.764   2.762
10240TIP3   OH230641   6.641   7.861   2.048
10240TIP3    H130642   6.570   7.816   1.998
10240TIP3    H230643   6.693   7.899   1.973
10241TIP3   OH230644   6.712   8.637   3.415
10241TIP3    H130645   6.791   8.673   3.460
10241TIP3    H230646   6.645   8.655   3.483
10242TIP3   OH230647   7.154   8.062   2.669
10242TIP3    H130648   7.237   8.046   2.620
10242TIP3    H230649   7.178   8.042   2.761
10243TIP3   OH230650   6.693   7.591   2.555
10243TIP3    H130651   6.656   7.514   2.604
10243TIP3    H230652   6.734   7.548   2.479
10244TIP3   OH230653   7.152   8.000   2.962
10244TIP3    H130654   7.063   8.038   2.973
10244TIP3    H230655   7.207   8.053   3.023
10245TIP3   OH230656   6.888   8.379   2.051
10245TIP3    H130657   6.813   8.316   2.041
10245TIP3    H230658   6.866   8.420   2.138
10246TIP3   OH230659   7.351   7.707   1.948
10246TIP3    H130660   7.255   7.695   1.929
10246TIP3    H230661   7.372   7.796   1.914
10247TIP3   OH230662   6.581   8.397   2.738
10247TIP3    H130663   6.605   8.392   2.643
10247TIP3    H230664   6.658   8.349   2.775
10248TIP3   OH230665   6.465   8.317   3.347
10248TIP3    H130666   6.507   8.325   3.435
10248TIP3    H230667   6.383   8.274   3.374
10249TIP3   OH230668   7.196   8.445   3.360
10249TIP3    H130669   7.147   8.407   3.287
10249TIP3    H230670   7.287   8.413   3.340
10250TIP3   OH230671   6.679   8.711   2.357
10250TIP3    H130672   6.696   8.801   2.327
10250TIP3    H230673   6.583   8.712   2.371
10251TIP3   OH230674   6.248   8.021   2.064
10251TIP3    H130675   6.291   8.107   2.085
10251TIP3    H230676   6.170   8.025   2.124
10252TIP3   OH230677   6.811   8.478   2.291
10252TIP3    H130678   6.770   8.565   2.310
10252TIP3    H230679   6.777   8.427   2.367
10253TIP3   OH230680   6.681   7.835   3.375
10253TIP3    H130681   6.612   7.867   3.436
10253TIP3    H230682   6.721   7.764   3.428
10254TIP3   OH230683   6.414   8.942   3.003
10254TIP3    H130684   6.447   8.852   3.018
10254TIP3    H230685   6.428   8.981   3.090
10255TIP3   OH230686   6.632   8.534   1.681
10255TIP3    H130687   6.629   8.437   1.675
10255TIP3    H230688   6.615   8.551   1.776
10256TIP3   OH230689   6.630   8.588   1.957
10256TIP3    H130690   6.694   8.535   2.006
10256TIP3    H230691   6.674   8.674   1.953
10257TIP3   OH230692   6.356   8.266   2.146
10257TIP3    H130693   6.287   8.311   2.201
10257TIP3    H230694   6.367   8.334   2.076
10258TIP3   OH230695   7.496   7.899   3.043
10258TIP3    H130696   7.580   7.943   3.068
10258TIP3    H230697   7.496   7.820   3.101
10259TIP3   OH230698   7.381   7.647   2.212
10259TIP3    H130699   7.368   7.665   2.116
10259TIP3    H230700   7.427   7.728   2.240
10260TIP3   OH230701   7.075   7.838   2.303
10260TIP3    H130702   7.134   7.915   2.288
10260TIP3    H230703   7.081   7.828   2.401
10261TIP3   OH230704   7.338   8.128   3.131
10261TIP3    H130705   7.374   8.188   3.199
10261TIP3    H230706   7.397   8.050   3.139
10262TIP3   OH230707   7.213   7.552   2.408
10262TIP3    H130708   7.195   7.633   2.460
10262TIP3    H230709   7.276   7.587   2.341
10263TIP3   OH230710   6.733   7.562   2.194
10263TIP3    H130711   6.730   7.652   2.231
10263TIP3    H230712   6.830   7.545   2.200
10264TIP3   OH230713   6.352   8.473   1.954
10264TIP3    H130714   6.424   8.538   1.964
10264TIP3    H230715   6.391   8.413   1.887
10265TIP3   OH230716   6.291   7.750   2.083
10265TIP3    H130717   6.294   7.848   2.081
10265TIP3    H230718   6.209   7.732   2.035
10266TIP3   OH230719   6.678   7.475   2.954
10266TIP3    H130720   6.650   7.439   2.867
10266TIP3    H230721   6.670   7.396   3.011
10267TIP3   OH230722   6.226   8.660   2.375
10267TIP3    H130723   6.170   8.712   2.435
10267TIP3    H230724   6.197   8.695   2.287
10268TIP3   OH230725   6.459   9.167   3.369
10268TIP3    H130726   6.525   9.186   3.439
10268TIP3    H230727   6.428   9.079   3.396
10269TIP3   OH230728   6.508   8.641   3.609
10269TIP3    H130729   6.525   8.546   3.617
10269TIP3    H230730   6.420   8.642   3.564
10270TIP3   OH230731   6.479   8.278   1.819
10270TIP3    H130732   6.540   8.248   1.889
10270TIP3    H230733   6.538   8.270   1.741
10271TIP3   OH230734   7.089   8.711   3.390
10271TIP3    H130735   7.068   8.746   3.301
10271TIP3    H230736   7.146   8.635   3.369
10272TIP3   OH230737   6.627   8.371   3.586
10272TIP3    H130738   6.710   8.326   3.564
10272TIP3    H230739   6.650   8.407   3.675
10273TIP3   OH230740   6.687   8.194   2.020
10273TIP3    H130741   6.659   8.153   2.104
10273TIP3    H230742   6.725   8.118   1.971
10274TIP3   OH230743   6.935   8.231   3.215
10274TIP3    H130744   6.877   8.305   3.240
10274TIP3    H230745   7.007   8.280   3.168
10275TIP3   OH230746   6.793   7.992   1.863
10275TIP3    H130747   6.771   7.999   1.768
10275TIP3    H230748   6.891   7.991   1.858
10276TIP3   OH230749   7.081   8.050   3.373
10276TIP3    H130750   7.090   7.968   3.320
10276TIP3    H230751   7.036   8.110   3.309
10277TIP3   OH230752   7.090   7.835   3.188
10277TIP3    H130753   7.121   7.872   3.103
10277TIP3    H230754   6.997   7.810   3.167
10278TIP3   OH230755   7.121   8.365   3.072
10278TIP3    H130756   7.187   8.354   3.001
10278TIP3    H230757   7.058   8.427   3.032
10279TIP3   OH230758   7.682   8.294   3.455
10279TIP3    H130759   7.711   8.201   3.456
10279TIP3    H230760   7.764   8.339   3.426
10280TIP3   OH230761   6.963   8.154   3.605
10280TIP3    H130762   6.897   8.085   3.626
10280TIP3    H230763   6.999   8.122   3.520
10281TIP3   OH230764   7.222   7.595   3.255
10281TIP3    H130765   7.173   7.676   3.233
10281TIP3    H230766   7.154   7.526   3.243
10282TIP3   OH230767   7.340   8.104   3.469
10282TIP3    H130768   7.334   8.089   3.565
10282TIP3    H230769   7.250   8.078   3.442
10283TIP3   OH230770   7.574   8.041   3.326
10283TIP3    H130771   7.499   8.051   3.388
10283TIP3    H230772   7.646   8.012   3.388
10284TIP3   OH230773   7.785   7.995   3.487
10284TIP3    H130774   7.820   7.903   3.485
10284TIP3    H230775   7.820   8.024   3.574
10285TIP3   OH230776   6.807   7.933   3.668
10285TIP3    H130777   6.812   7.841   3.636
10285TIP3    H230778   6.846   7.923   3.758
10286TIP3   OH230779   7.313   7.605   3.514
10286TIP3    H130780   7.381   7.534   3.507
10286TIP3    H230781   7.274   7.600   3.424
10287TIP3   OH230782   7.381   7.820   3.671
10287TIP3    H130783   7.360   7.748   3.607
10287TIP3    H230784   7.302   7.878   3.664
10288TIP3   OH230785   6.080   8.435   1.975
10288TIP3    H130786   6.176   8.457   1.970
10288TIP3    H230787   6.079   8.344   1.939
10289TIP3   OH230788   6.138   8.868   2.563
10289TIP3    H130789   6.098   8.817   2.634
10289TIP3    H230790   6.188   8.935   2.613
10290TIP3   OH230791   6.331   8.290   2.953
10290TIP3    H130792   6.315   8.264   2.860
10290TIP3    H230793   6.424   8.318   2.947
10291TIP3   OH230794   6.548   7.984   3.606
10291TIP3    H130795   6.642   7.980   3.634
10291TIP3    H230796   6.513   7.902   3.648
10292TIP3   OH230797   7.818   7.640   2.098
10292TIP3    H130798   7.792   7.708   2.162
10292TIP3    H230799   7.740   7.579   2.102
10293TIP3   OH230800   6.499   7.687   2.976
10293TIP3    H130801   6.555   7.607   2.981
10293TIP3    H230802   6.565   7.754   2.954
10294TIP3   OH230803   6.284   7.469   2.544
10294TIP3    H130804   6.191   7.454   2.565
10294TIP3    H230805   6.278   7.521   2.461
10295TIP3   OH230806   6.508   7.539   3.353
10295TIP3    H130807   6.456   7.529   3.435
10295TIP3    H230808   6.446   7.590   3.298
10296TIP3   OH230809   6.568   8.907   3.440
10296TIP3    H130810   6.472   8.895   3.428
10296TIP3    H230811   6.573   8.927   3.535
10297TIP3   OH230812   6.720   8.996   2.968
10297TIP3    H130813   6.653   9.051   2.925
10297TIP3    H230814   6.802   9.033   2.934
10298TIP3   OH230815   8.089   7.720   3.053
10298TIP3    H130816   8.021   7.658   3.023
10298TIP3    H230817   8.171   7.672   3.032
10299TIP3   OH230818   6.293   9.000   2.757
10299TIP3    H130819   6.336   8.987   2.845
10299TIP3    H230820   6.351   9.068   2.717
10300TIP3   OH230821   6.549   8.911   2.580
10300TIP3    H130822   6.519   8.841   2.643
10300TIP3    H230823   6.644   8.910   2.598
10301TIP3   OH230824   7.359   7.667   2.703
10301TIP3    H130825   7.302   7.599   2.746
10301TIP3    H230826   7.418   7.613   2.648
10302TIP3   OH230827   7.886   7.582   2.580
10302TIP3    H130828   7.892   7.571   2.484
10302TIP3    H230829   7.789   7.578   2.592
10303TIP3   OH230830   6.594   7.378   2.706
10303TIP3    H130831   6.502   7.346   2.709
10303TIP3    H230832   6.642   7.292   2.702
10304TIP3   OH230833   6.390   7.251   2.358
10304TIP3    H130834   6.416   7.306   2.282
10304TIP3    H230835   6.360   7.318   2.422
10305TIP3   OH230836   7.043   7.408   2.589
10305TIP3    H130837   7.097   7.456   2.524
10305TIP3    H230838   7.072   7.449   2.672
10306TIP3   OH230839   7.598   7.554   2.567
10306TIP3    H130840   7.599   7.509   2.481
10306TIP3    H230841   7.583   7.478   2.627
10307TIP3   OH230842   7.603   7.463   2.133
10307TIP3    H130843   7.518   7.508   2.139
10307TIP3    H230844   7.586   7.381   2.184
10308TIP3   OH230845   6.111   8.744   2.148
10308TIP3    H130846   6.030   8.706   2.111
10308TIP3    H230847   6.104   8.836   2.116
10309TIP3   OH230848   6.503   7.406   2.117
10309TIP3    H130849   6.550   7.343   2.059
10309TIP3    H230850   6.577   7.459   2.152
10310TIP3   OH230851   7.010   7.588   2.214
10310TIP3    H130852   7.069   7.538   2.274
10310TIP3    H230853   7.034   7.679   2.240
10311TIP3   OH230854   6.805   7.660   3.592
10311TIP3    H130855   6.766   7.592   3.650
10311TIP3    H230856   6.898   7.658   3.622
10312TIP3   OH230857   7.053   7.656   3.715
10312TIP3    H130858   7.139   7.631   3.678
10312TIP3    H230859   7.040   7.586   3.782
10313TIP3   OH230860   6.182   8.800   1.791
10313TIP3    H130861   6.157   8.883   1.835
10313TIP3    H230862   6.278   8.799   1.800
10314TIP3   OH230863   7.875   7.726   3.503
10314TIP3    H130864   7.896   7.697   3.595
10314TIP3    H230865   7.962   7.718   3.459
10315TIP3   OH230866   2.238   0.859   7.617
10315TIP3    H130867   2.261   0.787   7.677
10315TIP3    H230868   2.271   0.937   7.665
10316TIP3   OH230869   1.890   1.321   7.638
10316TIP3    H130870   1.929   1.246   7.589
10316TIP3    H230871   1.875   1.284   7.725
10317TIP3   OH230872   2.289   1.091   7.785
10317TIP3    H130873   2.204   1.114   7.825
10317TIP3    H230874   2.309   1.176   7.740
10318TIP3   OH230875   2.020   1.143   7.470
10318TIP3    H130876   2.062   1.059   7.443
10318TIP3    H230877   2.082   1.207   7.428
10319TIP3   OH230878   2.136   0.916   7.366
10319TIP3    H130879   2.150   0.840   7.308
10319TIP3    H230880   2.178   0.887   7.450
10320TIP3   OH230881   2.765   0.665   7.967
10320TIP3    H130882   2.669   0.678   7.980
10320TIP3    H230883   2.776   0.687   7.872
10321TIP3   OH230884   1.754   1.062   7.514
10321TIP3    H130885   1.840   1.094   7.480
10321TIP3    H230886   1.700   1.057   7.434
10322TIP3   OH230887   2.333   0.947   6.786
10322TIP3    H130888   2.341   1.044   6.768
10322TIP3    H230889   2.426   0.918   6.772
10323TIP3   OH230890   1.680   1.289   7.256
10323TIP3    H130891   1.593   1.248   7.240
10323TIP3    H230892   1.651   1.373   7.295
10324TIP3   OH230893   1.844   1.163   6.897
10324TIP3    H130894   1.902   1.093   6.861
10324TIP3    H230895   1.882   1.175   6.987
10325TIP3   OH230896   1.915   1.204   7.158
10325TIP3    H130897   1.828   1.231   7.196
10325TIP3    H230898   1.964   1.177   7.237
10326TIP3   OH230899   2.092   0.411   6.944
10326TIP3    H130900   2.054   0.369   6.864
10326TIP3    H230901   2.178   0.440   6.907
10327TIP3   OH230902   2.504   0.764   7.945
10327TIP3    H130903   2.546   0.833   7.890
10327TIP3    H230904   2.423   0.807   7.973
10328TIP3   OH230905   2.571   0.221   7.124
10328TIP3    H130906   2.500   0.173   7.077
10328TIP3    H230907   2.560   0.310   7.083
10329TIP3   OH230908   2.269   1.023   7.047
10329TIP3    H130909   2.242   0.949   7.103
10329TIP3    H230910   2.286   0.980   6.961
10330TIP3   OH230911   2.030   0.748   6.951
10330TIP3    H130912   2.084   0.729   7.031
10330TIP3    H230913   1.944   0.713   6.977
10331TIP3   OH230914   2.362   1.222   6.768
10331TIP3    H130915   2.398   1.294   6.714
10331TIP3    H230916   2.283   1.268   6.803
10332TIP3   OH230917   2.189   0.693   7.176
10332TIP3    H130918   2.176   0.607   7.217
10332TIP3    H230919   2.286   0.690   7.157
10333TIP3   OH230920   2.320   1.355   7.705
10333TIP3    H130921   2.275   1.406   7.634
10333TIP3    H230922   2.413   1.380   7.686
10334TIP3   OH230923   1.569   0.936   6.842
10334TIP3    H130924   1.555   0.875   6.917
10334TIP3    H230925   1.637   0.887   6.791
10335TIP3   OH230926   1.985   0.965   6.767
10335TIP3    H130927   2.037   0.910   6.829
10335TIP3    H230928   2.042   0.967   6.687
10336TIP3   OH230929   2.323   0.473   6.806
10336TIP3    H130930   2.301   0.432   6.720
10336TIP3    H230931   2.293   0.564   6.786
10337TIP3   OH230932   1.312   1.203   7.013
10337TIP3    H130933   1.408   1.221   7.020
10337TIP3    H230934   1.288   1.263   6.940
10338TIP3   OH230935   2.574   1.447   7.669
10338TIP3    H130936   2.593   1.486   7.756
10338TIP3    H230937   2.632   1.498   7.610
10339TIP3   OH230938   2.593   1.484   7.946
10339TIP3    H130939   2.550   1.396   7.948
10339TIP3    H230940   2.665   1.471   8.008
10340TIP3   OH230941   2.461   0.669   7.141
10340TIP3    H130942   2.528   0.733   7.107
10340TIP3    H230943   2.509   0.631   7.218
10341TIP3   OH230944   2.594   0.541   7.341
10341TIP3    H130945   2.537   0.491   7.405
10341TIP3    H230946   2.666   0.573   7.400
10342TIP3   OH230947   2.649   0.932   7.781
10342TIP3    H130948   2.703   0.862   7.738
10342TIP3    H230949   2.653   1.003   7.714
10343TIP3   OH230950   2.474   1.240   7.975
10343TIP3    H130951   2.384   1.254   8.008
10343TIP3    H230952   2.459   1.172   7.908
10344TIP3   OH230953   2.525   0.450   6.985
10344TIP3    H130954   2.454   0.453   6.917
10344TIP3    H230955   2.497   0.525   7.042
10345TIP3   OH230956   2.399   0.097   6.947
10345TIP3    H130957   2.374   0.172   6.891
10345TIP3    H230958   2.328   0.034   6.929
10346TIP3   OH230959   2.436   0.387   7.501
10346TIP3    H130960   2.413   0.298   7.471
10346TIP3    H230961   2.382   0.399   7.580
10347TIP3   OH230962   2.161   1.321   7.324
10347TIP3    H130963   2.211   1.315   7.240
10347TIP3    H230964   2.207   1.395   7.369
10348TIP3   OH230965   1.814   1.450   7.927
10348TIP3    H130966   1.745   1.441   7.859
10348TIP3    H230967   1.788   1.533   7.969
10349TIP3   OH230968   2.065   1.380   8.016
10349TIP3    H130969   1.976   1.396   7.979
10349TIP3    H230970   2.120   1.441   7.963
10350TIP3   OH230971   2.239   1.559   7.897
10350TIP3    H130972   2.226   1.642   7.847
10350TIP3    H230973   2.273   1.499   7.829
10351TIP3   OH230974   1.579   1.182   6.976
10351TIP3    H130975   1.672   1.200   6.957
10351TIP3    H230976   1.565   1.101   6.923
10352TIP3   OH230977   2.303   1.290   7.091
10352TIP3    H130978   2.294   1.193   7.079
10352TIP3    H230979   2.256   1.323   7.011
10353TIP3   OH230980   3.794   0.804   7.040
10353TIP3    H130981   3.765   0.896   7.019
10353TIP3    H230982   3.717   0.755   7.007
10354TIP3   OH230983   3.792   0.807   7.428
10354TIP3    H130984   3.827   0.783   7.516
10354TIP3    H230985   3.756   0.722   7.398
10355TIP3   OH230986   3.099   0.714   7.803
10355TIP3    H130987   3.124   0.637   7.859
10355TIP3    H230988   3.180   0.726   7.751
10356TIP3   OH230989   4.039   1.110   7.110
10356TIP3    H130990   4.024   1.043   7.178
10356TIP3    H230991   4.071   1.186   7.163
10357TIP3   OH230992   3.068   1.108   7.511
10357TIP3    H130993   3.059   1.011   7.514
10357TIP3    H230994   3.164   1.117   7.501
10358TIP3   OH230995   2.754   0.307   7.307
10358TIP3    H130996   2.710   0.393   7.319
10358TIP3    H230997   2.682   0.260   7.259
10359TIP3   OH230998   2.830   0.598   7.469
10359TIP3    H130999   2.879   0.522   7.507
10359TIP3    H231000   2.895   0.637   7.409
10360TIP3   OH231001   3.691   1.568   7.125
10360TIP3    H131002   3.731   1.496   7.072
10360TIP3    H231003   3.681   1.527   7.212
10361TIP3   OH231004   3.591   1.029   7.475
10361TIP3    H131005   3.634   0.954   7.431
10361TIP3    H231006   3.672   1.078   7.501
10362TIP3   OH231007   4.006   0.513   7.514
10362TIP3    H131008   4.036   0.422   7.503
10362TIP3    H231009   3.962   0.524   7.428
10363TIP3   OH231010   4.014   0.333   7.092
10363TIP3    H131011   4.107   0.302   7.097
10363TIP3    H231012   4.005   0.350   6.996
10364TIP3   OH231013   2.984   0.400   7.578
10364TIP3    H131014   3.069   0.376   7.618
10364TIP3    H231015   2.996   0.359   7.489
10365TIP3   OH231016   3.412   0.589   7.386
10365TIP3    H131017   3.508   0.569   7.393
10365TIP3    H231018   3.378   0.504   7.352
10366TIP3   OH231019   4.691   0.631   7.589
10366TIP3    H131020   4.598   0.660   7.601
10366TIP3    H231021   4.698   0.563   7.660
10367TIP3   OH231022   3.682   1.025   6.909
10367TIP3    H131023   3.641   1.014   6.822
10367TIP3    H231024   3.637   1.107   6.940
10368TIP3   OH231025   3.446   0.948   7.695
10368TIP3    H131026   3.390   1.020   7.731
10368TIP3    H231027   3.493   0.993   7.621
10369TIP3   OH231028   3.228   0.302   7.661
10369TIP3    H131029   3.293   0.366   7.696
10369TIP3    H231030   3.284   0.246   7.606
10370TIP3   OH231031   3.280   1.150   7.793
10370TIP3    H131032   3.262   1.238   7.753
10370TIP3    H231033   3.193   1.134   7.835
10371TIP3   OH231034   2.660   0.836   7.032
10371TIP3    H131035   2.625   0.864   6.945
10371TIP3    H231036   2.693   0.921   7.068
10372TIP3   OH231037   4.105   1.353   7.270
10372TIP3    H131038   4.015   1.344   7.311
10372TIP3    H231039   4.097   1.440   7.226
10373TIP3   OH231040   3.804   1.394   6.941
10373TIP3    H131041   3.856   1.312   6.923
10373TIP3    H231042   3.867   1.460   6.904
10374TIP3   OH231043   3.951   1.178   6.858
10374TIP3    H131044   3.908   1.098   6.826
10374TIP3    H231045   3.990   1.147   6.943
10375TIP3   OH231046   4.331   1.265   7.616
10375TIP3    H131047   4.318   1.186   7.558
10375TIP3    H231048   4.312   1.338   7.554
10376TIP3   OH231049   3.620   0.662   6.875
10376TIP3    H131050   3.540   0.716   6.854
10376TIP3    H231051   3.665   0.660   6.789
10377TIP3   OH231052   3.582   0.442   6.584
10377TIP3    H131053   3.645   0.500   6.632
10377TIP3    H231054   3.639   0.368   6.563
10378TIP3   OH231055   4.520   0.900   7.461
10378TIP3    H131056   4.439   0.956   7.464
10378TIP3    H231057   4.554   0.923   7.372
10379TIP3   OH231058   3.968   0.740   6.840
10379TIP3    H131059   3.914   0.761   6.919
10379TIP3    H231060   4.054   0.721   6.883
10380TIP3   OH231061   4.196   0.790   7.755
10380TIP3    H131062   4.199   0.867   7.815
10380TIP3    H231063   4.110   0.803   7.712
10381TIP3   OH231064   3.206   0.735   7.264
10381TIP3    H131065   3.166   0.677   7.195
10381TIP3    H231066   3.281   0.681   7.296
10382TIP3   OH231067   3.332   1.144   7.412
10382TIP3    H131068   3.316   1.115   7.321
10382TIP3    H231069   3.422   1.108   7.429
10383TIP3   OH231070   3.324   0.710   7.625
10383TIP3    H131071   3.360   0.678   7.539
10383TIP3    H231072   3.376   0.792   7.640
10384TIP3   OH231073   3.866   1.345   7.395
10384TIP3    H131074   3.853   1.427   7.448
10384TIP3    H231075   3.849   1.274   7.460
10385TIP3   OH231076   3.490   1.269   7.943
10385TIP3    H131077   3.424   1.328   7.986
10385TIP3    H231078   3.430   1.207   7.898
10386TIP3   OH231079   3.797   0.611   6.665
10386TIP3    H131080   3.859   0.669   6.716
10386TIP3    H231081   3.828   0.629   6.573
10387TIP3   OH231082   3.221   0.837   8.070
10387TIP3    H131083   3.196   0.925   8.102
10387TIP3    H231084   3.152   0.820   8.005
10388TIP3   OH231085   3.558   1.273   6.948
10388TIP3    H131086   3.641   1.324   6.954
10388TIP3    H231087   3.499   1.336   6.905
10389TIP3   OH231088   3.278   1.439   8.009
10389TIP3    H131089   3.259   1.444   7.913
10389TIP3    H231090   3.200   1.396   8.043
10390TIP3   OH231091   3.074   0.580   7.067
10390TIP3    H131092   3.002   0.621   7.014
10390TIP3    H231093   3.040   0.492   7.083
10391TIP3   OH231094   4.128   1.202   6.270
10391TIP3    H131095   4.136   1.299   6.256
10391TIP3    H231096   4.221   1.174   6.258
10392TIP3   OH231097   2.859   0.944   7.967
10392TIP3    H131098   2.782   0.953   7.908
10392TIP3    H231099   2.853   0.849   7.989
10393TIP3   OH231100   2.706   1.154   7.614
10393TIP3    H131101   2.802   1.151   7.600
10393TIP3    H231102   2.696   1.237   7.663
10394TIP3   OH231103   4.569   1.612   7.667
10394TIP3    H131104   4.570   1.515   7.681
10394TIP3    H231105   4.485   1.635   7.712
10395TIP3   OH231106   3.678   1.396   7.792
10395TIP3    H131107   3.674   1.488   7.827
10395TIP3    H231108   3.610   1.353   7.848
10396TIP3   OH231109   3.441   1.519   6.753
10396TIP3    H131110   3.394   1.504   6.669
10396TIP3    H231111   3.408   1.606   6.781
10397TIP3   OH231112   2.876   1.369   7.138
10397TIP3    H131113   2.924   1.361   7.223
10397TIP3    H231114   2.822   1.288   7.140
10398TIP3   OH231115   3.638   1.424   6.388
10398TIP3    H131116   3.697   1.353   6.353
10398TIP3    H231117   3.674   1.435   6.479
10399TIP3   OH231118   3.691   1.473   6.657
10399TIP3    H131119   3.603   1.482   6.699
10399TIP3    H231120   3.744   1.438   6.731
10400TIP3   OH231121   4.457   0.716   7.911
10400TIP3    H131122   4.377   0.769   7.898
10400TIP3    H231123   4.448   0.650   7.840
10401TIP3   OH231124   3.033   1.157   7.931
10401TIP3    H131125   3.068   1.137   8.020
10401TIP3    H231126   2.968   1.084   7.926
10402TIP3   OH231127   4.208   0.539   7.867
10402TIP3    H131128   4.202   0.581   7.954
10402TIP3    H231129   4.199   0.618   7.810
10403TIP3   OH231130   3.891   0.630   6.411
10403TIP3    H131131   3.853   0.618   6.322
10403TIP3    H231132   3.973   0.680   6.390
10404TIP3   OH231133   3.405   0.487   7.770
10404TIP3    H131134   3.353   0.505   7.851
10404TIP3    H231135   3.387   0.568   7.719
10405TIP3   OH231136   3.290   0.365   7.285
10405TIP3    H131137   3.196   0.349   7.305
10405TIP3    H231138   3.293   0.341   7.190
10406TIP3   OH231139   3.744   0.467   7.018
10406TIP3    H131140   3.695   0.538   6.970
10406TIP3    H231141   3.809   0.440   6.950
10407TIP3   OH231142   3.968   0.737   8.048
10407TIP3    H131143   3.931   0.710   8.136
10407TIP3    H231144   4.061   0.755   8.072
10408TIP3   OH231145   3.900   0.516   7.261
10408TIP3    H131146   3.845   0.547   7.186
10408TIP3    H231147   3.935   0.434   7.219
10409TIP3   OH231148   3.221   0.528   7.974
10409TIP3    H131149   3.264   0.580   8.043
10409TIP3    H231150   3.182   0.455   8.025
10410TIP3   OH231151   2.819   0.098   7.074
10410TIP3    H131152   2.826   0.135   6.984
10410TIP3    H231153   2.747   0.154   7.110
10411TIP3   OH231154   3.921   0.725   7.662
10411TIP3    H131155   3.962   0.654   7.607
10411TIP3    H231156   3.897   0.672   7.741
10412TIP3   OH231157   3.026   0.291   7.330
10412TIP3    H131158   2.929   0.288   7.309
10412TIP3    H231159   3.047   0.196   7.339
10413TIP3   OH231160   3.315   0.264   7.033
10413TIP3    H131161   3.405   0.258   6.996
10413TIP3    H231162   3.258   0.261   6.953
10414TIP3   OH231163   3.146   0.269   6.809
10414TIP3    H131164   3.078   0.233   6.751
10414TIP3    H231165   3.203   0.314   6.743
10415TIP3   OH231166   4.267   1.957   7.766
10415TIP3    H131167   4.262   1.982   7.672
10415TIP3    H231168   4.346   2.006   7.795
10416TIP3   OH231169   3.676   0.517   7.441
10416TIP3    H131170   3.753   0.488   7.388
10416TIP3    H231171   3.687   0.466   7.523
10417TIP3   OH231172   3.673   0.407   7.739
10417TIP3    H131173   3.581   0.439   7.751
10417TIP3    H231174   3.725   0.478   7.782
10418TIP3   OH231175   3.390   0.810   6.822
10418TIP3    H131176   3.318   0.744   6.810
10418TIP3    H231177   3.370   0.843   6.913
10419TIP3   OH231178   4.289   1.049   7.450
10419TIP3    H131179   4.315   1.099   7.369
10419TIP3    H231180   4.206   1.006   7.422
10420TIP3   OH231181   3.777   0.207   6.667
10420TIP3    H131182   3.782   0.112   6.685
10420TIP3    H231183   3.877   0.220   6.648
10421TIP3   OH231184   3.789   1.123   7.824
10421TIP3    H131185   3.828   1.109   7.912
10421TIP3    H231186   3.753   1.213   7.831
10422TIP3   OH231187   3.913   0.404   6.821
10422TIP3    H131188   4.011   0.399   6.802
10422TIP3    H231189   3.884   0.466   6.755
10423TIP3   OH231190   3.085   0.828   7.494
10423TIP3    H131191   3.122   0.805   7.406
10423TIP3    H231192   3.144   0.777   7.552
10424TIP3   OH231193   3.539   0.958   6.647
10424TIP3    H131194   3.490   1.044   6.649
10424TIP3    H231195   3.484   0.904   6.708
10425TIP3   OH231196   3.676   0.883   8.121
10425TIP3    H131197   3.615   0.822   8.077
10425TIP3    H231198   3.762   0.842   8.102
10426TIP3   OH231199   3.952   1.386   7.721
10426TIP3    H131200   3.855   1.386   7.732
10426TIP3    H231201   3.980   1.439   7.798
10427TIP3   OH231202   4.333   0.474   6.633
10427TIP3    H131203   4.279   0.428   6.565
10427TIP3    H231204   4.340   0.562   6.589
10428TIP3   OH231205   4.581   1.328   7.701
10428TIP3    H131206   4.483   1.321   7.690
10428TIP3    H231207   4.609   1.293   7.613
10429TIP3   OH231208   4.066   1.280   6.536
10429TIP3    H131209   4.037   1.212   6.599
10429TIP3    H231210   4.078   1.231   6.453
10430TIP3   OH231211   4.056   0.913   7.366
10430TIP3    H131212   3.963   0.888   7.379
10430TIP3    H231213   4.090   0.833   7.321
10431TIP3   OH231214   3.191   1.138   7.127
10431TIP3    H131215   3.189   1.219   7.072
10431TIP3    H231216   3.097   1.121   7.138
10432TIP3   OH231217   2.748   0.451   6.821
10432TIP3    H131218   2.797   0.532   6.847
10432TIP3    H231219   2.673   0.454   6.885
10433TIP3   OH231220   3.317   0.899   7.065
10433TIP3    H131221   3.286   0.989   7.086
10433TIP3    H231222   3.284   0.849   7.142
10434TIP3   OH231223   3.462   1.477   7.591
10434TIP3    H131224   3.502   1.552   7.541
10434TIP3    H231225   3.539   1.442   7.638
10435TIP3   OH231226   3.107   1.374   6.978
10435TIP3    H131227   3.022   1.385   7.023
10435TIP3    H231228   3.142   1.466   6.980
10436TIP3   OH231229   3.841   1.113   7.556
10436TIP3    H131230   3.831   1.111   7.654
10436TIP3    H231231   3.924   1.066   7.545
10437TIP3   OH231232   3.823   1.006   6.437
10437TIP3    H131233   3.876   0.981   6.516
10437TIP3    H231234   3.734   0.982   6.467
10438TIP3   OH231235   4.093   1.643   7.602
10438TIP3    H131236   4.012   1.589   7.595
10438TIP3    H231237   4.078   1.708   7.530
10439TIP3   OH231238   4.158   1.478   6.254
10439TIP3    H131239   4.190   1.551   6.199
10439TIP3    H231240   4.078   1.521   6.292
10440TIP3   OH231241   3.984   0.935   6.647
10440TIP3    H131242   3.974   0.872   6.721
10440TIP3    H231243   4.082   0.935   6.638
10441TIP3   OH231244   2.897   1.344   7.748
10441TIP3    H131245   2.951   1.279   7.795
10441TIP3    H231246   2.927   1.427   7.786
10442TIP3   OH231247   3.187   0.985   6.437
10442TIP3    H131248   3.198   0.891   6.412
10442TIP3    H231249   3.164   0.977   6.532
10443TIP3   OH231250   3.128   0.991   6.708
10443TIP3    H131251   3.204   0.966   6.762
10443TIP3    H231252   3.130   1.089   6.716
10444TIP3   OH231253   2.862   0.685   6.916
10444TIP3    H131254   2.796   0.731   6.971
10444TIP3    H231255   2.877   0.752   6.846
10445TIP3   OH231256   3.397   1.188   6.655
10445TIP3    H131257   3.310   1.211   6.692
10445TIP3    H231258   3.413   1.266   6.601
10446TIP3   OH231259   3.611   0.240   7.081
10446TIP3    H131260   3.657   0.320   7.047
10446TIP3    H231261   3.607   0.261   7.175
10447TIP3   OH231262   3.870   0.554   7.875
10447TIP3    H131263   3.888   0.631   7.933
10447TIP3    H231264   3.905   0.482   7.930
10448TIP3   OH231265   3.142   1.262   6.727
10448TIP3    H131266   3.114   1.333   6.665
10448TIP3    H231267   3.127   1.306   6.814
10449TIP3   OH231268   4.139   0.673   7.247
10449TIP3    H131269   4.062   0.614   7.260
10449TIP3    H231270   4.211   0.625   7.293
10450TIP3   OH231271   2.859   0.887   6.716
10450TIP3    H131272   2.928   0.955   6.725
10450TIP3    H231273   2.903   0.829   6.650
10451TIP3   OH231274   2.783   0.180   6.822
10451TIP3    H131275   2.789   0.278   6.817
10451TIP3    H231276   2.713   0.162   6.758
10452TIP3   OH231277   4.115   1.623   7.194
10452TIP3    H131278   4.072   1.670   7.119
10452TIP3    H231279   4.209   1.641   7.173
10453TIP3   OH231280   2.721   1.100   7.099
10453TIP3    H131281   2.662   1.136   7.167
10453TIP3    H231282   2.689   1.148   7.018
10454TIP3   OH231283   3.381   1.578   8.231
10454TIP3    H131284   3.446   1.645   8.205
10454TIP3    H231285   3.352   1.540   8.146
10455TIP3   OH231286   3.347   1.188   6.343
10455TIP3    H131287   3.292   1.116   6.383
10455TIP3    H231288   3.423   1.137   6.311
10456TIP3   OH231289   4.005   1.523   7.955
10456TIP3    H131290   4.001   1.454   8.026
10456TIP3    H231291   4.082   1.576   7.983
10457TIP3   OH231292   3.783   1.226   6.260
10457TIP3    H131293   3.826   1.162   6.320
10457TIP3    H231294   3.840   1.223   6.181
10458TIP3   OH231295   2.996   0.701   6.573
10458TIP3    H131296   3.054   0.674   6.646
10458TIP3    H231297   3.062   0.707   6.501
10459TIP3   OH231298   3.665   1.164   8.150
10459TIP3    H131299   3.591   1.179   8.089
10459TIP3    H231300   3.682   1.069   8.136
10460TIP3   OH231301   3.513   0.905   6.378
10460TIP3    H131302   3.512   0.918   6.475
10460TIP3    H231303   3.510   0.807   6.373
10461TIP3   OH231304   4.111   1.158   7.751
10461TIP3    H131305   4.190   1.198   7.711
10461TIP3    H231306   4.046   1.229   7.737
10462TIP3   OH231307   3.196   0.614   6.788
10462TIP3    H131308   3.174   0.575   6.875
10462TIP3    H231309   3.235   0.538   6.741
10463TIP3   OH231310   3.472   0.711   8.022
10463TIP3    H131311   3.391   0.766   8.014
10463TIP3    H231312   3.518   0.724   7.937
10464TIP3   OH231313   3.303   0.409   6.632
10464TIP3    H131314   3.278   0.414   6.538
10464TIP3    H231315   3.401   0.409   6.624
10465TIP3   OH231316   3.991   1.080   8.119
10465TIP3    H131317   4.079   1.045   8.096
10465TIP3    H231318   3.975   1.037   8.205
10466TIP3   OH231319   4.123   0.731   6.296
10466TIP3    H131320   4.104   0.693   6.208
10466TIP3    H231321   4.091   0.822   6.279
10467TIP3   OH231322   3.628   0.778   7.809
10467TIP3    H131323   3.715   0.804   7.774
10467TIP3    H231324   3.570   0.847   7.770
10468TIP3   OH231325   4.229   0.737   8.140
10468TIP3    H131326   4.243   0.674   8.215
10468TIP3    H231327   4.315   0.782   8.138
10469TIP3   OH231328   4.242   1.003   7.928
10469TIP3    H131329   4.178   1.059   7.877
10469TIP3    H231330   4.326   1.037   7.889
10470TIP3   OH231331   3.113   1.461   6.539
10470TIP3    H131332   3.208   1.456   6.519
10470TIP3    H231333   3.084   1.516   6.463
10471TIP3   OH231334   2.590   0.848   6.752
10471TIP3    H131335   2.685   0.870   6.738
10471TIP3    H231336   2.585   0.760   6.710
10472TIP3   OH231337   2.509   1.458   7.170
10472TIP3    H131338   2.443   1.399   7.129
10472TIP3    H231339   2.552   1.397   7.233
10473TIP3   OH231340   2.644   1.301   7.353
10473TIP3    H131341   2.629   1.236   7.424
10473TIP3    H231342   2.695   1.368   7.402
10474TIP3   OH231343   4.372   1.707   7.158
10474TIP3    H131344   4.396   1.740   7.246
10474TIP3    H231345   4.434   1.754   7.100
10475TIP3   OH231346   4.397   1.731   7.439
10475TIP3    H131347   4.352   1.643   7.434
10475TIP3    H231348   4.472   1.707   7.496
10476TIP3   OH231349   4.444   1.412   8.010
10476TIP3    H131350   4.377   1.419   8.081
10476TIP3    H231351   4.488   1.499   8.016
10477TIP3   OH231352   4.262   0.921   6.627
10477TIP3    H131353   4.327   0.988   6.597
10477TIP3    H231354   4.307   0.885   6.707
10478TIP3   OH231355   4.390   0.792   6.833
10478TIP3    H131356   4.322   0.757   6.894
10478TIP3    H231357   4.458   0.827   6.894
10479TIP3   OH231358   4.445   1.183   7.264
10479TIP3    H131359   4.499   1.114   7.220
10479TIP3    H231360   4.443   1.254   7.197
10480TIP3   OH231361   4.271   1.482   7.456
10480TIP3    H131362   4.198   1.524   7.508
10480TIP3    H231363   4.222   1.436   7.385
10481TIP3   OH231364   4.322   0.699   6.478
10481TIP3    H131365   4.251   0.705   6.409
10481TIP3    H231366   4.296   0.775   6.534
10482TIP3   OH231367   4.195   0.356   6.425
10482TIP3    H131368   4.175   0.428   6.364
10482TIP3    H231369   4.136   0.286   6.394
10483TIP3   OH231370   4.195   0.667   6.978
10483TIP3    H131371   4.189   0.571   6.959
10483TIP3    H231372   4.181   0.671   7.075
10484TIP3   OH231373   2.828   0.734   7.712
10484TIP3    H131374   2.830   0.695   7.622
10484TIP3    H231375   2.924   0.737   7.734
10485TIP3   OH231376   4.475   1.090   7.826
10485TIP3    H131377   4.549   1.025   7.823
10485TIP3    H231378   4.506   1.159   7.765
10486TIP3   OH231379   4.656   0.902   7.869
10486TIP3    H131380   4.588   0.835   7.891
10486TIP3    H231381   4.735   0.846   7.884
10487TIP3   OH231382   4.187   0.416   6.853
10487TIP3    H131383   4.237   0.335   6.872
10487TIP3    H231384   4.237   0.447   6.775
10488TIP3   OH231385   4.353   0.549   7.368
10488TIP3    H131386   4.437   0.572   7.322
10488TIP3    H231387   4.372   0.587   7.456
10489TIP3   OH231388   4.414   0.693   7.602
10489TIP3    H131389   4.333   0.732   7.642
10489TIP3    H231390   4.448   0.770   7.550
10490TIP3   OH231391   2.831   0.362   7.812
10490TIP3    H131392   2.877   0.383   7.727
10490TIP3    H231393   2.819   0.450   7.851
10491TIP3   OH231394   3.952   1.578   6.811
10491TIP3    H131395   4.006   1.570   6.729
10491TIP3    H231396   4.001   1.646   6.860
10492TIP3   OH231397   3.237   1.421   7.736
10492TIP3    H131398   3.188   1.497   7.698
10492TIP3    H231399   3.323   1.435   7.690
10493TIP3   OH231400   3.670   1.661   7.881
10493TIP3    H131401   3.713   1.660   7.969
10493TIP3    H231402   3.736   1.712   7.829
10494TIP3   OH231403   3.850   1.813   7.742
10494TIP3    H131404   3.922   1.764   7.699
10494TIP3    H231405   3.902   1.871   7.802
10495TIP3   OH231406   2.907   1.673   7.779
10495TIP3    H131407   2.815   1.697   7.755
10495TIP3    H231408   2.925   1.740   7.847
10496TIP3   OH231409   3.140   1.650   7.627
10496TIP3    H131410   3.054   1.664   7.671
10496TIP3    H231411   3.122   1.684   7.537
10497TIP3   OH231412   3.568   1.676   7.426
10497TIP3    H131413   3.499   1.695   7.359
10497TIP3    H231414   3.580   1.764   7.466
10498TIP3   OH231415   3.838   1.615   7.477
10498TIP3    H131416   3.744   1.634   7.458
10498TIP3    H231417   3.882   1.688   7.432
10499TIP3   OH231418   4.042   1.806   7.388
10499TIP3    H131419   4.029   1.891   7.340
10499TIP3    H231420   4.069   1.747   7.314
10500TIP3   OH231421   2.816   1.463   7.507
10500TIP3    H131422   2.840   1.433   7.597
10500TIP3    H231423   2.890   1.423   7.457
10501TIP3   OH231424   3.014   1.337   7.372
10501TIP3    H131425   3.030   1.254   7.422
10501TIP3    H231426   3.105   1.374   7.368
10502TIP3   OH231427   3.280   1.428   7.378
10502TIP3    H131428   3.311   1.337   7.366
10502TIP3    H231429   3.331   1.453   7.458
10503TIP3   OH231430   2.605   1.244   6.901
10503TIP3    H131431   2.518   1.213   6.869
10503TIP3    H231432   2.600   1.337   6.873
10504TIP3   OH231433   3.380   1.419   6.487
10504TIP3    H131434   3.467   1.445   6.449
10504TIP3    H231435   3.358   1.346   6.426
10505TIP3   OH231436   4.101   1.547   6.579
10505TIP3    H131437   4.092   1.449   6.569
10505TIP3    H231438   4.052   1.578   6.500
10506TIP3   OH231439   2.679   1.255   6.538
10506TIP3    H131440   2.687   1.286   6.629
10506TIP3    H231441   2.767   1.213   6.522
10507TIP3   OH231442   4.319   1.686   7.767
10507TIP3    H131443   4.242   1.657   7.714
10507TIP3    H231444   4.302   1.783   7.771
10508TIP3   OH231445   5.596   1.060   6.535
10508TIP3    H131446   5.570   1.152   6.545
10508TIP3    H231447   5.518   1.018   6.494
10509TIP3   OH231448   5.581   1.064   6.918
10509TIP3    H131449   5.621   1.041   7.004
10509TIP3    H231450   5.550   0.977   6.888
10510TIP3   OH231451   4.885   0.958   7.276
10510TIP3    H131452   4.917   0.886   7.333
10510TIP3    H231453   4.967   1.009   7.266
10511TIP3   OH231454   5.808   1.390   6.602
10511TIP3    H131455   5.819   1.305   6.647
10511TIP3    H231456   5.861   1.449   6.658
10512TIP3   OH231457   4.861   1.365   6.996
10512TIP3    H131458   4.853   1.267   6.997
10512TIP3    H231459   4.958   1.374   6.999
10513TIP3   OH231460   4.552   0.567   6.781
10513TIP3    H131461   4.509   0.652   6.799
10513TIP3    H231462   4.474   0.510   6.767
10514TIP3   OH231463   4.625   0.855   6.963
10514TIP3    H131464   4.674   0.778   6.999
10514TIP3    H231465   4.689   0.892   6.902
10515TIP3   OH231466   5.487   1.819   6.605
10515TIP3    H131467   5.535   1.743   6.568
10515TIP3    H231468   5.474   1.792   6.697
10516TIP3   OH231469   5.388   1.287   6.959
10516TIP3    H131470   5.431   1.206   6.926
10516TIP3    H231471   5.470   1.337   6.984
10517TIP3   OH231472   5.801   0.773   7.002
10517TIP3    H131473   5.839   0.684   6.997
10517TIP3    H231474   5.760   0.777   6.913
10518TIP3   OH231475   5.809   0.588   6.575
10518TIP3    H131476   5.898   0.551   6.591
10518TIP3    H231477   5.818   0.619   6.483
10519TIP3   OH231478   4.778   0.654   7.064
10519TIP3    H131479   4.865   0.633   7.106
10519TIP3    H231480   4.792   0.611   6.977
10520TIP3   OH231481   5.212   0.849   6.865
10520TIP3    H131482   5.307   0.825   6.877
10520TIP3    H231483   5.176   0.762   6.836
10521TIP3   OH231484   6.492   0.900   7.092
10521TIP3    H131485   6.396   0.916   7.090
10521TIP3    H231486   6.497   0.820   7.147
10522TIP3   OH231487   5.482   1.307   6.368
10522TIP3    H131488   5.412   1.241   6.370
10522TIP3    H231489   5.435   1.384   6.407
10523TIP3   OH231490   5.243   1.207   7.183
10523TIP3    H131491   5.184   1.275   7.220
10523TIP3    H231492   5.287   1.255   7.110
10524TIP3   OH231493   5.025   0.565   7.142
10524TIP3    H131494   5.093   0.625   7.178
10524TIP3    H231495   5.080   0.499   7.097
10525TIP3   OH231496   5.071   1.405   7.282
10525TIP3    H131497   5.046   1.493   7.249
10525TIP3    H231498   4.993   1.385   7.337
10526TIP3   OH231499   4.460   1.094   6.519
10526TIP3    H131500   4.420   1.123   6.435
10526TIP3    H231501   4.492   1.179   6.555
10527TIP3   OH231502   5.901   1.613   6.760
10527TIP3    H131503   5.811   1.602   6.798
10527TIP3    H231504   5.894   1.702   6.719
10528TIP3   OH231505   5.617   1.633   6.434
10528TIP3    H131506   5.678   1.574   6.482
10528TIP3    H231507   5.678   1.697   6.392
10529TIP3   OH231508   6.126   1.521   7.102
10529TIP3    H131509   6.115   1.443   7.044
10529TIP3    H231510   6.111   1.595   7.040
10530TIP3   OH231511   5.421   0.934   6.363
10530TIP3    H131512   5.335   0.970   6.335
10530TIP3    H231513   5.465   0.915   6.278
10531TIP3   OH231514   5.376   0.702   6.071
10531TIP3    H131515   5.444   0.758   6.115
10531TIP3    H231516   5.429   0.623   6.051
10532TIP3   OH231517   6.315   1.159   6.951
10532TIP3    H131518   6.234   1.214   6.952
10532TIP3    H231519   6.349   1.180   6.861
10533TIP3   OH231520   5.753   1.000   6.323
10533TIP3    H131521   5.707   1.015   6.408
10533TIP3    H231522   5.841   0.971   6.359
10534TIP3   OH231523   5.994   1.049   7.246
10534TIP3    H131524   5.994   1.130   7.301
10534TIP3    H231525   5.908   1.058   7.200
10535TIP3   OH231526   5.007   0.994   6.747
10535TIP3    H131527   4.965   0.935   6.682
10535TIP3    H231528   5.080   0.939   6.781
10536TIP3   OH231529   5.136   1.409   6.895
10536TIP3    H131530   5.114   1.364   6.812
10536TIP3    H231531   5.224   1.371   6.915
10537TIP3   OH231532   5.134   0.963   7.108
10537TIP3    H131533   5.167   0.935   7.020
10537TIP3    H231534   5.181   1.048   7.123
10538TIP3   OH231535   5.657   1.603   6.877
10538TIP3    H131536   5.649   1.682   6.933
10538TIP3    H231537   5.645   1.530   6.941
10539TIP3   OH231538   5.277   1.521   7.427
10539TIP3    H131539   5.216   1.581   7.475
10539TIP3    H231540   5.212   1.466   7.377
10540TIP3   OH231541   5.584   0.874   6.150
10540TIP3    H131542   5.651   0.923   6.204
10540TIP3    H231543   5.618   0.893   6.059
10541TIP3   OH231544   5.033   1.075   7.532
10541TIP3    H131545   5.038   1.162   7.578
10541TIP3    H231546   4.939   1.054   7.545
10542TIP3   OH231547   5.349   1.532   6.432
10542TIP3    H131548   5.426   1.589   6.446
10542TIP3    H231549   5.282   1.592   6.397
10543TIP3   OH231550   5.069   1.684   7.516
10543TIP3    H131551   5.034   1.688   7.425
10543TIP3    H231552   4.988   1.665   7.568
10544TIP3   OH231553   4.872   0.839   6.551
10544TIP3    H131554   4.796   0.874   6.501
10544TIP3    H231555   4.842   0.749   6.573
10545TIP3   OH231556   5.927   1.467   5.776
10545TIP3    H131557   5.939   1.560   5.748
10545TIP3    H231558   6.016   1.431   5.750
10546TIP3   OH231559   4.648   1.218   7.464
10546TIP3    H131560   4.582   1.197   7.395
10546TIP3    H231561   4.686   1.131   7.486
10547TIP3   OH231562   4.502   1.413   7.092
10547TIP3    H131563   4.599   1.408   7.087
10547TIP3    H231564   4.490   1.491   7.149
10548TIP3   OH231565   6.365   1.868   7.152
10548TIP3    H131566   6.367   1.772   7.167
10548TIP3    H231567   6.282   1.892   7.199
10549TIP3   OH231568   5.470   1.651   7.284
10549TIP3    H131569   5.467   1.743   7.318
10549TIP3    H231570   5.400   1.608   7.339
10550TIP3   OH231571   5.245   1.782   6.232
10550TIP3    H131572   5.188   1.764   6.156
10550TIP3    H231573   5.208   1.866   6.267
10551TIP3   OH231574   4.674   1.625   6.624
10551TIP3    H131575   4.719   1.617   6.710
10551TIP3    H231576   4.620   1.544   6.624
10552TIP3   OH231577   5.433   1.687   5.868
10552TIP3    H131578   5.488   1.615   5.830
10552TIP3    H231579   5.470   1.693   5.959
10553TIP3   OH231580   5.492   1.714   6.146
10553TIP3    H131581   5.402   1.727   6.182
10553TIP3    H231582   5.545   1.711   6.228
10554TIP3   OH231583   6.251   0.973   7.414
10554TIP3    H131584   6.173   1.024   7.390
10554TIP3    H231585   6.257   0.911   7.339
10555TIP3   OH231586   4.852   1.403   7.446
10555TIP3    H131587   4.902   1.386   7.528
10555TIP3    H231588   4.779   1.338   7.454
10556TIP3   OH231589   6.000   0.792   7.349
10556TIP3    H131590   6.006   0.828   7.439
10556TIP3    H231591   5.992   0.875   7.298
10557TIP3   OH231592   5.679   0.910   5.903
10557TIP3    H131593   5.644   0.885   5.815
10557TIP3    H231594   5.770   0.937   5.876
10558TIP3   OH231595   5.203   0.744   7.260
10558TIP3    H131596   5.145   0.759   7.337
10558TIP3    H231597   5.183   0.824   7.207
10559TIP3   OH231598   5.086   0.625   6.770
10559TIP3    H131599   4.993   0.604   6.793
10559TIP3    H231600   5.088   0.599   6.676
10560TIP3   OH231601   5.537   0.725   6.503
10560TIP3    H131602   5.494   0.800   6.456
10560TIP3    H231603   5.605   0.699   6.437
10561TIP3   OH231604   5.729   0.991   7.570
10561TIP3    H131605   5.701   0.931   7.644
10561TIP3    H231606   5.823   1.005   7.593
10562TIP3   OH231607   5.698   0.772   6.746
10562TIP3    H131608   5.645   0.803   6.671
10562TIP3    H231609   5.732   0.689   6.706
10563TIP3   OH231610   5.000   0.778   7.454
10563TIP3    H131611   5.034   0.837   7.523
10563TIP3    H231612   4.938   0.722   7.503
10564TIP3   OH231613   4.596   0.351   6.561
10564TIP3    H131614   4.609   0.389   6.471
10564TIP3    H231615   4.546   0.423   6.603
10565TIP3   OH231616   5.718   0.983   7.151
10565TIP3    H131617   5.756   0.912   7.095
10565TIP3    H231618   5.695   0.930   7.230
10566TIP3   OH231619   4.824   0.545   6.817
10566TIP3    H131620   4.729   0.542   6.794
10566TIP3    H231621   4.845   0.450   6.831
10567TIP3   OH231622   5.110   0.524   6.519
10567TIP3    H131623   5.201   0.515   6.487
10567TIP3    H231624   5.056   0.519   6.437
10568TIP3   OH231625   4.940   0.529   6.295
10568TIP3    H131626   4.872   0.490   6.237
10568TIP3    H231627   4.997   0.571   6.228
10569TIP3   OH231628   6.061   2.215   7.253
10569TIP3    H131629   6.061   2.239   7.159
10569TIP3    H231630   6.142   2.260   7.285
10570TIP3   OH231631   5.015   1.327   7.670
10570TIP3    H131632   5.096   1.351   7.719
10570TIP3    H231633   4.951   1.322   7.745
10571TIP3   OH231634   5.474   0.774   6.928
10571TIP3    H131635   5.550   0.744   6.875
10571TIP3    H231636   5.484   0.723   7.009
10572TIP3   OH231637   5.473   0.671   7.226
10572TIP3    H131638   5.379   0.698   7.237
10572TIP3    H231639   5.521   0.743   7.272
10573TIP3   OH231640   5.187   1.072   6.304
10573TIP3    H131641   5.118   1.003   6.291
10573TIP3    H231642   5.166   1.101   6.397
10574TIP3   OH231643   6.085   1.307   6.936
10574TIP3    H131644   6.112   1.355   6.855
10574TIP3    H231645   6.002   1.263   6.908
10575TIP3   OH231646   5.576   0.459   6.168
10575TIP3    H131647   5.583   0.371   6.186
10575TIP3    H231648   5.670   0.472   6.122
10576TIP3   OH231649   5.587   1.383   7.308
10576TIP3    H131650   5.623   1.366   7.396
10576TIP3    H231651   5.550   1.472   7.317
10577TIP3   OH231652   5.709   0.666   6.306
10577TIP3    H131653   5.804   0.645   6.291
10577TIP3    H231654   5.686   0.719   6.230
10578TIP3   OH231655   4.886   1.089   6.981
10578TIP3    H131656   4.926   1.059   6.897
10578TIP3    H231657   4.929   1.031   7.046
10579TIP3   OH231658   5.339   1.222   6.130
10579TIP3    H131659   5.286   1.306   6.136
10579TIP3    H231660   5.285   1.164   6.189
10580TIP3   OH231661   4.768   1.005   7.600
10580TIP3    H131662   4.791   0.999   7.694
10580TIP3    H231663   4.705   0.932   7.589
10581TIP3   OH231664   5.491   1.127   7.617
10581TIP3    H131665   5.429   1.060   7.584
10581TIP3    H231666   5.577   1.090   7.587
10582TIP3   OH231667   5.746   1.647   7.203
10582TIP3    H131668   5.650   1.645   7.219
10582TIP3    H231669   5.776   1.697   7.282
10583TIP3   OH231670   6.138   0.709   6.129
10583TIP3    H131671   6.078   0.683   6.055
10583TIP3    H231672   6.146   0.806   6.110
10584TIP3   OH231673   6.377   1.584   7.188
10584TIP3    H131674   6.279   1.578   7.178
10584TIP3    H231675   6.405   1.549   7.100
10585TIP3   OH231676   5.825   1.506   6.030
10585TIP3    H131677   5.891   1.450   6.073
10585TIP3    H231678   5.852   1.495   5.936
10586TIP3   OH231679   5.852   1.173   6.857
10586TIP3    H131680   5.759   1.146   6.867
10586TIP3    H231681   5.888   1.093   6.813
10587TIP3   OH231682   4.983   1.391   6.605
10587TIP3    H131683   4.975   1.474   6.554
10587TIP3    H231684   4.891   1.375   6.630
10588TIP3   OH231685   4.541   0.710   6.308
10588TIP3    H131686   4.590   0.790   6.336
10588TIP3    H231687   4.468   0.709   6.374
10589TIP3   OH231688   5.123   1.159   6.551
10589TIP3    H131689   5.082   1.246   6.571
10589TIP3    H231690   5.090   1.105   6.625
10590TIP3   OH231691   5.257   1.735   7.079
10590TIP3    H131692   5.301   1.807   7.031
10590TIP3    H231693   5.331   1.696   7.129
10591TIP3   OH231694   4.902   1.631   6.463
10591TIP3    H131695   4.817   1.640   6.510
10591TIP3    H231696   4.934   1.724   6.467
10592TIP3   OH231697   5.639   1.372   7.039
10592TIP3    H131698   5.628   1.370   7.137
10592TIP3    H231699   5.720   1.321   7.028
10593TIP3   OH231700   5.600   1.269   5.948
10593TIP3    H131701   5.661   1.205   5.989
10593TIP3    H231702   5.520   1.215   5.932
10594TIP3   OH231703   5.888   1.900   7.091
10594TIP3    H131704   5.809   1.842   7.087
10594TIP3    H231705   5.870   1.963   7.018
10595TIP3   OH231706   5.953   1.739   5.741
10595TIP3    H131707   5.998   1.811   5.694
10595TIP3    H231708   5.872   1.788   5.769
10596TIP3   OH231709   5.777   1.205   6.155
10596TIP3    H131710   5.765   1.137   6.226
10596TIP3    H231711   5.867   1.180   6.128
10597TIP3   OH231712   4.693   1.595   7.237
10597TIP3    H131713   4.747   1.525   7.278
10597TIP3    H231714   4.718   1.671   7.292
10598TIP3   OH231715   4.987   1.240   5.923
10598TIP3    H131716   4.991   1.146   5.897
10598TIP3    H231717   4.962   1.233   6.017
10599TIP3   OH231718   4.924   1.249   6.192
10599TIP3    H131719   4.992   1.218   6.254
10599TIP3    H231720   4.929   1.347   6.204
10600TIP3   OH231721   4.658   0.941   6.402
10600TIP3    H131722   4.592   0.987   6.458
10600TIP3    H231723   4.671   1.009   6.333
10601TIP3   OH231724   5.198   1.452   6.141
10601TIP3    H131725   5.111   1.468   6.182
10601TIP3    H231726   5.201   1.527   6.079
10602TIP3   OH231727   5.401   0.499   6.561
10602TIP3    H131728   5.450   0.579   6.532
10602TIP3    H231729   5.404   0.512   6.657
10603TIP3   OH231730   5.665   0.821   7.368
10603TIP3    H131731   5.673   0.892   7.435
10603TIP3    H231732   5.700   0.746   7.418
10604TIP3   OH231733   4.944   1.521   6.215
10604TIP3    H131734   4.911   1.590   6.153
10604TIP3    H231735   4.924   1.562   6.302
10605TIP3   OH231736   5.936   0.937   6.742
10605TIP3    H131737   5.862   0.874   6.747
10605TIP3    H231738   6.010   0.887   6.782
10606TIP3   OH231739   4.656   1.143   6.203
10606TIP3    H131740   4.725   1.211   6.211
10606TIP3    H231741   4.700   1.085   6.137
10607TIP3   OH231742   4.580   0.440   6.310
10607TIP3    H131743   4.586   0.537   6.304
10607TIP3    H231744   4.515   0.419   6.242
10608TIP3   OH231745   5.910   1.880   6.678
10608TIP3    H131746   5.869   1.926   6.602
10608TIP3    H231747   6.005   1.900   6.661
10609TIP3   OH231748   4.519   1.361   6.586
10609TIP3    H131749   4.460   1.392   6.656
10609TIP3    H231750   4.482   1.407   6.506
10610TIP3   OH231751   4.686   1.913   7.663
10610TIP3    H131752   4.773   1.914   7.709
10610TIP3    H231753   4.669   1.818   7.659
10611TIP3   OH231754   5.158   1.867   7.706
10611TIP3    H131755   5.253   1.851   7.716
10611TIP3    H231756   5.136   1.803   7.635
10612TIP3   OH231757   5.145   1.444   5.830
10612TIP3    H131758   5.091   1.371   5.868
10612TIP3    H231759   5.219   1.394   5.793
10613TIP3   OH231760   5.803   1.776   7.439
10613TIP3    H131761   5.795   1.707   7.509
10613TIP3    H231762   5.879   1.828   7.470
10614TIP3   OH231763   5.577   1.487   5.746
10614TIP3    H131764   5.628   1.431   5.807
10614TIP3    H231765   5.631   1.482   5.664
10615TIP3   OH231766   4.810   1.317   7.862
10615TIP3    H131767   4.827   1.222   7.872
10615TIP3    H231768   4.725   1.318   7.814
10616TIP3   OH231769   4.793   0.958   6.059
10616TIP3    H131770   4.849   0.927   6.132
10616TIP3    H231771   4.860   0.963   5.987
10617TIP3   OH231772   5.418   1.402   7.637
10617TIP3    H131773   5.379   1.420   7.550
10617TIP3    H231774   5.451   1.310   7.628
10618TIP3   OH231775   5.326   1.162   5.865
10618TIP3    H131776   5.309   1.174   5.960
10618TIP3    H231777   5.318   1.064   5.857
10619TIP3   OH231778   5.908   1.415   7.241
10619TIP3    H131779   5.987   1.454   7.199
10619TIP3    H231780   5.842   1.485   7.224
10620TIP3   OH231781   4.937   1.048   7.836
10620TIP3    H131782   5.015   0.993   7.820
10620TIP3    H231783   4.960   1.083   7.925
10621TIP3   OH231784   4.998   0.873   6.277
10621TIP3    H131785   4.972   0.834   6.362
10621TIP3    H231786   5.034   0.795   6.229
10622TIP3   OH231787   5.275   0.934   7.507
10622TIP3    H131788   5.195   0.992   7.508
10622TIP3    H231789   5.322   0.967   7.427
10623TIP3   OH231790   5.099   0.668   6.118
10623TIP3    H131791   5.075   0.669   6.024
10623TIP3    H231792   5.196   0.662   6.112
10624TIP3   OH231793   5.785   1.333   7.636
10624TIP3    H131794   5.865   1.300   7.593
10624TIP3    H231795   5.777   1.271   7.711
10625TIP3   OH231796   5.898   0.986   5.771
10625TIP3    H131797   5.898   0.946   5.683
10625TIP3    H231798   5.883   1.080   5.749
10626TIP3   OH231799   5.389   0.730   7.647
10626TIP3    H131800   5.379   0.649   7.596
10626TIP3    H231801   5.348   0.798   7.588
10627TIP3   OH231802   5.422   1.037   7.304
10627TIP3    H131803   5.506   1.059   7.263
10627TIP3    H231804   5.362   1.104   7.264
10628TIP3   OH231805   5.995   0.999   7.646
10628TIP3    H131806   6.020   0.959   7.731
10628TIP3    H231807   6.060   1.070   7.636
10629TIP3   OH231808   6.037   1.266   7.425
10629TIP3    H131809   5.975   1.321   7.372
10629TIP3    H231810   6.122   1.297   7.384
10630TIP3   OH231811   5.236   0.851   7.849
10630TIP3    H131812   5.201   0.774   7.896
10630TIP3    H231813   5.297   0.810   7.785
10631TIP3   OH231814   5.627   0.823   7.751
10631TIP3    H131815   5.634   0.809   7.847
10631TIP3    H231816   5.542   0.780   7.729
10632TIP3   OH231817   4.909   1.724   6.026
10632TIP3    H131818   5.003   1.715   6.002
10632TIP3    H231819   4.877   1.776   5.950
10633TIP3   OH231820   4.386   1.106   6.236
10633TIP3    H131821   4.482   1.126   6.223
10633TIP3    H231822   4.380   1.017   6.195
10634TIP3   OH231823   4.307   1.716   6.657
10634TIP3    H131824   4.239   1.656   6.617
10634TIP3    H231825   4.349   1.655   6.721
10635TIP3   OH231826   4.440   1.559   6.842
10635TIP3    H131827   4.426   1.492   6.911
10635TIP3    H231828   4.491   1.624   6.892
10636TIP3   OH231829   6.162   1.975   6.644
10636TIP3    H131830   6.193   2.000   6.733
10636TIP3    H231831   6.235   2.004   6.587
10637TIP3   OH231832   6.194   1.987   6.926
10637TIP3    H131833   6.149   1.900   6.922
10637TIP3    H231834   6.269   1.963   6.983
10638TIP3   OH231835   6.240   1.664   7.499
10638TIP3    H131836   6.168   1.675   7.565
10638TIP3    H231837   6.283   1.752   7.503
10639TIP3   OH231838   6.237   1.439   6.747
10639TIP3    H131839   6.293   1.369   6.709
10639TIP3    H231840   6.239   1.508   6.678
10640TIP3   OH231841   6.068   1.740   6.943
10640TIP3    H131842   5.995   1.778   6.996
10640TIP3    H231843   6.019   1.692   6.873
10641TIP3   OH231844   5.988   0.621   5.913
10641TIP3    H131845   5.976   0.699   5.857
10641TIP3    H231846   5.938   0.554   5.866
10642TIP3   OH231847   5.963   0.917   6.464
10642TIP3    H131848   5.985   0.824   6.449
10642TIP3    H231849   5.974   0.928   6.561
10643TIP3   OH231850   4.621   0.978   7.214
10643TIP3    H131851   4.619   0.941   7.123
10643TIP3    H231852   4.718   0.978   7.231
10644TIP3   OH231853   6.270   1.347   7.315
10644TIP3    H131854   6.343   1.282   7.311
10644TIP3    H231855   6.299   1.416   7.253
10645TIP3   OH231856   6.449   1.159   7.364
10645TIP3    H131857   6.382   1.090   7.384
10645TIP3    H231858   6.529   1.103   7.371
10646TIP3   OH231859   5.978   0.661   6.342
10646TIP3    H131860   6.034   0.583   6.360
10646TIP3    H231861   6.028   0.697   6.267
10647TIP3   OH231862   6.150   0.810   6.853
10647TIP3    H131863   6.235   0.831   6.807
10647TIP3    H231864   6.172   0.842   6.943
10648TIP3   OH231865   6.213   0.950   7.091
10648TIP3    H131866   6.130   0.987   7.128
10648TIP3    H231867   6.245   1.025   7.038
10649TIP3   OH231868   4.799   0.681   7.917
10649TIP3    H131869   4.891   0.661   7.890
10649TIP3    H231870   4.771   0.594   7.944
10650TIP3   OH231871   4.593   0.641   7.272
10650TIP3    H131872   4.655   0.642   7.196
10650TIP3    H231873   4.632   0.706   7.331
10651TIP3   OH231874   5.746   1.828   6.296
10651TIP3    H131875   5.803   1.829   6.216
10651TIP3    H231876   5.788   1.897   6.351
10652TIP3   OH231877   4.847   1.646   7.678
10652TIP3    H131878   4.754   1.617   7.665
10652TIP3    H231879   4.865   1.618   7.768
10653TIP3   OH231880   5.029   1.675   7.229
10653TIP3    H131881   4.982   1.752   7.190
10653TIP3    H231882   5.116   1.688   7.185
10654TIP3   OH231883   5.467   1.917   7.365
10654TIP3    H131884   5.509   1.913   7.454
10654TIP3    H231885   5.534   1.969   7.316
10655TIP3   OH231886   5.650   2.070   7.229
10655TIP3    H131887   5.722   2.018   7.190
10655TIP3    H231888   5.701   2.128   7.290
10656TIP3   OH231889   4.703   1.928   7.256
10656TIP3    H131890   4.612   1.958   7.234
10656TIP3    H231891   4.718   1.978   7.337
10657TIP3   OH231892   4.939   1.909   7.114
10657TIP3    H131893   4.851   1.919   7.157
10657TIP3    H231894   4.919   1.940   7.023
10658TIP3   OH231895   5.366   1.935   6.907
10658TIP3    H131896   5.291   1.954   6.848
10658TIP3    H231897   5.378   2.022   6.952
10659TIP3   OH231898   5.635   1.872   6.960
10659TIP3    H131899   5.541   1.893   6.942
10659TIP3    H231900   5.681   1.948   6.921
10660TIP3   OH231901   5.836   2.062   6.874
10660TIP3    H131902   5.826   2.147   6.827
10660TIP3    H231903   5.866   2.003   6.802
10661TIP3   OH231904   4.615   1.721   6.996
10661TIP3    H131905   4.640   1.692   7.087
10661TIP3    H231906   4.688   1.678   6.946
10662TIP3   OH231907   4.812   1.594   6.857
10662TIP3    H131908   4.825   1.510   6.907
10662TIP3    H231909   4.903   1.629   6.856
10663TIP3   OH231910   5.080   1.684   6.865
10663TIP3    H131911   5.108   1.590   6.858
10663TIP3    H231912   5.129   1.709   6.945
10664TIP3   OH231913   4.402   1.500   6.385
10664TIP3    H131914   4.315   1.468   6.353
10664TIP3    H231915   4.394   1.594   6.358
10665TIP3   OH231916   5.174   1.677   5.967
10665TIP3    H131917   5.262   1.699   5.931
10665TIP3    H231918   5.151   1.602   5.907
10666TIP3   OH231919   5.889   1.791   6.062
10666TIP3    H131920   5.868   1.696   6.051
10666TIP3    H231921   5.851   1.829   5.980
10667TIP3   OH231922   4.477   1.516   6.025
10667TIP3    H131923   4.477   1.538   6.119
10667TIP3    H231924   4.565   1.474   6.013
10668TIP3   OH231925   6.117   1.944   7.251
10668TIP3    H131926   6.038   1.914   7.202
10668TIP3    H231927   6.098   2.040   7.259
10669TIP3   OH231928   7.388   1.320   6.012
10669TIP3    H131929   7.357   1.410   5.991
10669TIP3    H231930   7.311   1.268   5.983
10670TIP3   OH231931   7.388   1.319   6.403
10670TIP3    H131932   7.420   1.292   6.491
10670TIP3    H231933   7.349   1.237   6.369
10671TIP3   OH231934   6.683   1.218   6.763
10671TIP3    H131935   6.716   1.144   6.818
10671TIP3    H231936   6.767   1.259   6.739
10672TIP3   OH231937   7.633   1.624   6.083
10672TIP3    H131938   7.614   1.554   6.148
10672TIP3    H231939   7.663   1.697   6.139
10673TIP3   OH231940   6.659   1.629   6.488
10673TIP3    H131941   6.653   1.530   6.487
10673TIP3    H231942   6.755   1.639   6.482
10674TIP3   OH231943   6.347   0.839   6.280
10674TIP3    H131944   6.304   0.916   6.239
10674TIP3    H231945   6.275   0.774   6.272
10675TIP3   OH231946   6.450   1.130   6.461
10675TIP3    H131947   6.485   1.042   6.488
10675TIP3    H231948   6.447   1.121   6.365
10676TIP3   OH231949   7.284   2.083   6.100
10676TIP3    H131950   7.324   2.011   6.046
10676TIP3    H231951   7.273   2.039   6.185
10677TIP3   OH231952   7.182   1.546   6.448
10677TIP3    H131953   7.221   1.468   6.405
10677TIP3    H231954   7.265   1.592   6.472
10678TIP3   OH231955   7.599   1.033   6.485
10678TIP3    H131956   7.629   0.941   6.488
10678TIP3    H231957   7.557   1.034   6.397
10679TIP3   OH231958   7.607   0.845   6.066
10679TIP3    H131959   7.700   0.814   6.069
10679TIP3    H231960   7.593   0.859   5.971
10680TIP3   OH231961   6.573   0.902   6.554
10680TIP3    H131962   6.662   0.883   6.592
10680TIP3    H231963   6.585   0.863   6.465
10681TIP3   OH231964   7.006   1.104   6.351
10681TIP3    H131965   7.100   1.081   6.364
10681TIP3    H231966   6.969   1.017   6.322
10682TIP3   OH231967   8.278   1.173   6.652
10682TIP3    H131968   8.185   1.181   6.624
10682TIP3    H231969   8.284   1.077   6.670
10683TIP3   OH231970   7.277   1.540   5.882
10683TIP3    H131971   7.232   1.523   5.798
10683TIP3    H231972   7.230   1.621   5.912
10684TIP3   OH231973   7.041   1.464   6.672
10684TIP3    H131974   6.980   1.532   6.707
10684TIP3    H231975   7.082   1.511   6.596
10685TIP3   OH231976   6.825   0.823   6.626
10685TIP3    H131977   6.894   0.881   6.662
10685TIP3    H231978   6.877   0.754   6.583
10686TIP3   OH231979   6.869   1.662   6.771
10686TIP3    H131980   6.842   1.749   6.735
10686TIP3    H231981   6.790   1.641   6.825
10687TIP3   OH231982   6.304   1.366   5.988
10687TIP3    H131983   6.211   1.343   5.986
10687TIP3    H231984   6.309   1.442   6.049
10688TIP3   OH231985   7.699   1.866   6.246
10688TIP3    H131986   7.609   1.857   6.286
10688TIP3    H231987   7.689   1.953   6.200
10689TIP3   OH231988   7.397   1.909   5.915
10689TIP3    H131989   7.447   1.826   5.898
10689TIP3    H231990   7.460   1.974   5.877
10690TIP3   OH231991   7.543   1.693   5.832
10690TIP3    H131992   7.497   1.614   5.802
10690TIP3    H231993   7.583   1.661   5.916
10691TIP3   OH231994   7.921   1.773   6.589
10691TIP3    H131995   7.907   1.697   6.528
10691TIP3    H231996   7.905   1.849   6.529
10692TIP3   OH231997   7.213   1.176   5.848
10692TIP3    H131998   7.132   1.229   5.828
10692TIP3    H231999   7.257   1.174   5.762
10693TIP3   OH232000   7.174   0.957   5.556
10693TIP3    H132001   7.235   1.016   5.606
10693TIP3    H232002   7.230   0.879   5.546
10694TIP3   OH232003   8.114   1.419   6.432
10694TIP3    H132004   8.029   1.468   6.437
10694TIP3    H232005   8.141   1.441   6.340
10695TIP3   OH232006   7.562   1.255   5.813
10695TIP3    H132007   7.506   1.275   5.892
10695TIP3    H232008   7.647   1.233   5.857
10696TIP3   OH232009   7.789   1.303   6.733
10696TIP3    H132010   7.782   1.386   6.784
10696TIP3    H232011   7.702   1.304   6.687
10697TIP3   OH232012   6.799   1.250   6.234
10697TIP3    H132013   6.757   1.190   6.168
10697TIP3    H232014   6.872   1.194   6.268
10698TIP3   OH232015   6.928   1.667   6.382
10698TIP3    H132016   6.905   1.626   6.297
10698TIP3    H232017   7.015   1.626   6.401
10699TIP3   OH232018   6.939   1.214   6.603
10699TIP3    H132019   6.960   1.190   6.510
10699TIP3    H232020   6.977   1.304   6.611
10700TIP3   OH232021   7.459   1.859   6.369
10700TIP3    H132022   7.446   1.938   6.424
10700TIP3    H232023   7.442   1.785   6.431
10701TIP3   OH232024   7.073   1.777   6.916
10701TIP3    H132025   7.010   1.837   6.962
10701TIP3    H232026   7.009   1.723   6.865
10702TIP3   OH232027   7.389   1.127   5.638
10702TIP3    H132028   7.451   1.183   5.690
10702TIP3    H232029   7.422   1.144   5.546
10703TIP3   OH232030   6.831   1.329   7.026
10703TIP3    H132031   6.833   1.418   7.065
10703TIP3    H232032   6.735   1.310   7.029
10704TIP3   OH232033   7.151   1.786   5.921
10704TIP3    H132034   7.234   1.837   5.927
10704TIP3    H232035   7.091   1.848   5.879
10705TIP3   OH232036   6.865   1.941   7.003
10705TIP3    H132037   6.830   1.945   6.912
10705TIP3    H232038   6.784   1.921   7.055
10706TIP3   OH232039   6.669   1.091   6.037
10706TIP3    H132040   6.598   1.130   5.982
10706TIP3    H232041   6.629   1.009   6.067
10707TIP3   OH232042   7.721   1.715   5.245
10707TIP3    H132043   7.729   1.812   5.229
10707TIP3    H232044   7.814   1.687   5.232
10708TIP3   OH232045   6.444   1.474   6.950
10708TIP3    H132046   6.380   1.451   6.880
10708TIP3    H232047   6.483   1.387   6.974
10709TIP3   OH232048   6.301   1.671   6.575
10709TIP3    H132049   6.396   1.653   6.565
10709TIP3    H232050   6.302   1.743   6.639
10710TIP3   OH232051   8.164   2.124   6.642
10710TIP3    H132052   8.163   2.027   6.657
10710TIP3    H232053   8.080   2.149   6.687
10711TIP3   OH232054   7.267   1.906   6.773
10711TIP3    H132055   7.263   1.998   6.805
10711TIP3    H232056   7.196   1.864   6.827
10712TIP3   OH232057   7.033   2.033   5.725
10712TIP3    H132058   6.985   2.016   5.642
10712TIP3    H232059   6.999   2.120   5.752
10713TIP3   OH232060   6.470   1.883   6.112
10713TIP3    H132061   6.517   1.875   6.198
10713TIP3    H232062   6.427   1.795   6.107
10714TIP3   OH232063   7.230   1.937   5.362
10714TIP3    H132064   7.288   1.866   5.327
10714TIP3    H232065   7.266   1.948   5.453
10715TIP3   OH232066   7.284   1.986   5.631
10715TIP3    H132067   7.195   1.995   5.673
10715TIP3    H232068   7.335   1.947   5.704
10716TIP3   OH232069   8.045   1.284   6.848
10716TIP3    H132070   7.954   1.297   6.815
10716TIP3    H232071   8.033   1.209   6.909
10717TIP3   OH232072   6.647   1.659   6.933
10717TIP3    H132073   6.698   1.642   7.016
10717TIP3    H232074   6.574   1.594   6.941
10718TIP3   OH232075   7.794   1.043   6.841
10718TIP3    H132076   7.847   1.069   6.918
10718TIP3    H232077   7.783   1.129   6.796
10719TIP3   OH232078   7.486   1.143   5.386
10719TIP3    H132079   7.446   1.132   5.297
10719TIP3    H232080   7.567   1.193   5.363
10720TIP3   OH232081   7.004   0.997   6.752
10720TIP3    H132082   6.940   1.011   6.826
10720TIP3    H232083   6.986   1.077   6.698
10721TIP3   OH232084   6.883   0.877   6.257
10721TIP3    H132085   6.789   0.860   6.280
10721TIP3    H232086   6.883   0.853   6.162
10722TIP3   OH232087   7.336   0.981   5.992
10722TIP3    H132088   7.288   1.052   5.944
10722TIP3    H232089   7.404   0.957   5.926
10723TIP3   OH232090   7.518   1.243   7.059
10723TIP3    H132091   7.495   1.182   7.133
10723TIP3    H232092   7.593   1.291   7.095
10724TIP3   OH232093   7.493   1.029   6.232
10724TIP3    H132094   7.435   1.056   6.158
10724TIP3    H232095   7.529   0.946   6.193
10725TIP3   OH232096   6.797   1.033   6.941
10725TIP3    H132097   6.823   1.094   7.012
10725TIP3    H232098   6.734   0.974   6.985
10726TIP3   OH232099   6.395   0.608   6.044
10726TIP3    H132100   6.411   0.652   5.957
10726TIP3    H232101   6.332   0.672   6.084
10727TIP3   OH232102   7.520   1.238   6.642
10727TIP3    H132103   7.557   1.169   6.582
10727TIP3    H232104   7.494   1.182   6.718
10728TIP3   OH232105   6.618   0.803   6.303
10728TIP3    H132106   6.521   0.805   6.286
10728TIP3    H232107   6.636   0.707   6.316
10729TIP3   OH232108   6.910   0.777   6.004
10729TIP3    H132109   6.997   0.770   5.964
10729TIP3    H232110   6.849   0.774   5.927
10730TIP3   OH232111   6.741   0.780   5.783
10730TIP3    H132112   6.666   0.748   5.729
10730TIP3    H232113   6.795   0.824   5.715
10731TIP3   OH232114   7.857   2.472   6.740
10731TIP3    H132115   7.855   2.495   6.645
10731TIP3    H232116   7.938   2.518   6.769
10732TIP3   OH232117   6.811   1.582   7.157
10732TIP3    H132118   6.891   1.610   7.206
10732TIP3    H232119   6.746   1.580   7.230
10733TIP3   OH232120   7.269   1.031   6.418
10733TIP3    H132121   7.345   0.999   6.366
10733TIP3    H232122   7.276   0.979   6.500
10734TIP3   OH232123   7.270   0.927   6.709
10734TIP3    H132124   7.176   0.952   6.723
10734TIP3    H232125   7.317   0.999   6.756
10735TIP3   OH232126   6.982   1.324   5.795
10735TIP3    H132127   6.912   1.256   5.785
10735TIP3    H232128   6.963   1.357   5.887
10736TIP3   OH232129   7.881   1.558   6.421
10736TIP3    H132130   7.904   1.609   6.340
10736TIP3    H232131   7.797   1.515   6.395
10737TIP3   OH232132   7.367   0.718   5.636
10737TIP3    H132133   7.360   0.630   5.670
10737TIP3    H232134   7.461   0.703   5.589
10738TIP3   OH232135   7.387   1.641   6.795
10738TIP3    H132136   7.416   1.623   6.885
10738TIP3    H232137   7.346   1.729   6.803
10739TIP3   OH232138   7.515   0.932   5.803
10739TIP3    H132139   7.613   0.928   5.786
10739TIP3    H232140   7.484   0.985   5.729
10740TIP3   OH232141   6.694   1.360   6.471
10740TIP3    H132142   6.721   1.322   6.385
10740TIP3    H232143   6.697   1.283   6.528
10741TIP3   OH232144   7.132   1.471   5.621
10741TIP3    H132145   7.083   1.557   5.624
10741TIP3    H232146   7.076   1.416   5.681
10742TIP3   OH232147   6.562   1.262   7.086
10742TIP3    H132148   6.586   1.252   7.181
10742TIP3    H232149   6.502   1.187   7.073
10743TIP3   OH232150   7.280   1.381   7.107
10743TIP3    H132151   7.214   1.319   7.073
10743TIP3    H232152   7.362   1.344   7.070
10744TIP3   OH232153   7.544   1.903   6.691
10744TIP3    H132154   7.447   1.900   6.706
10744TIP3    H232155   7.572   1.955   6.770
10745TIP3   OH232156   7.929   0.985   5.605
10745TIP3    H132157   7.873   0.940   5.538
10745TIP3    H232158   7.934   1.075   5.563
10746TIP3   OH232159   8.173   1.832   6.679
10746TIP3    H132160   8.076   1.820   6.679
10746TIP3    H232161   8.194   1.805   6.587
10747TIP3   OH232162   7.658   1.793   5.510
10747TIP3    H132163   7.629   1.724   5.572
10747TIP3    H232164   7.670   1.744   5.427
10748TIP3   OH232165   7.649   1.425   6.341
10748TIP3    H132166   7.555   1.399   6.354
10748TIP3    H232167   7.683   1.346   6.295
10749TIP3   OH232168   6.782   1.651   6.101
10749TIP3    H132169   6.776   1.731   6.045
10749TIP3    H232170   6.690   1.626   6.110
10750TIP3   OH232171   6.326   0.969   5.799
10750TIP3    H132172   6.384   1.046   5.818
10750TIP3    H232173   6.267   0.976   5.878
10751TIP3   OH232174   6.913   1.413   6.039
10751TIP3    H132175   6.880   1.502   6.062
10751TIP3    H232176   6.879   1.360   6.113
10752TIP3   OH232177   7.052   1.991   6.567
10752TIP3    H132178   7.095   2.063   6.516
10752TIP3    H232179   7.128   1.953   6.613
10753TIP3   OH232180   6.697   1.890   5.949
10753TIP3    H132181   6.613   1.899   5.998
10753TIP3    H232182   6.730   1.982   5.953
10754TIP3   OH232183   7.434   1.627   6.527
10754TIP3    H132184   7.424   1.626   6.625
10754TIP3    H232185   7.513   1.572   6.515
10755TIP3   OH232186   7.415   1.521   5.410
10755TIP3    H132187   7.468   1.496   5.489
10755TIP3    H232188   7.326   1.494   5.440
10756TIP3   OH232189   7.685   2.157   6.577
10756TIP3    H132190   7.606   2.100   6.572
10756TIP3    H232191   7.667   2.220   6.504
10757TIP3   OH232192   7.750   1.991   5.227
10757TIP3    H132193   7.784   2.064   5.173
10757TIP3    H232194   7.671   2.035   5.264
10758TIP3   OH232195   7.577   1.450   5.620
10758TIP3    H132196   7.565   1.387   5.694
10758TIP3    H232197   7.674   1.449   5.611
10759TIP3   OH232198   6.485   1.852   6.725
10759TIP3    H132199   6.542   1.780   6.758
10759TIP3    H232200   6.514   1.925   6.781
10760TIP3   OH232201   6.776   1.499   5.410
10760TIP3    H132202   6.789   1.405   5.385
10760TIP3    H232203   6.755   1.490   5.505
10761TIP3   OH232204   6.719   1.505   5.681
10761TIP3    H132205   6.792   1.474   5.737
10761TIP3    H232206   6.724   1.602   5.692
10762TIP3   OH232207   6.471   1.192   5.872
10762TIP3    H132208   6.409   1.237   5.933
10762TIP3    H232209   6.478   1.263   5.806
10763TIP3   OH232210   6.990   1.701   5.629
10763TIP3    H132211   6.903   1.724   5.666
10763TIP3    H232212   7.005   1.778   5.572
10764TIP3   OH232213   7.212   0.750   6.051
10764TIP3    H132214   7.256   0.833   6.023
10764TIP3    H232215   7.190   0.772   6.142
10765TIP3   OH232216   7.460   1.071   6.855
10765TIP3    H132217   7.468   1.145   6.919
10765TIP3    H232218   7.492   0.998   6.911
10766TIP3   OH232219   6.736   1.777   5.701
10766TIP3    H132220   6.706   1.848   5.639
10766TIP3    H232221   6.720   1.819   5.788
10767TIP3   OH232222   7.731   1.187   6.221
10767TIP3    H132223   7.653   1.130   6.233
10767TIP3    H232224   7.802   1.136   6.265
10768TIP3   OH232225   6.450   1.404   5.682
10768TIP3    H132226   6.526   1.464   5.697
10768TIP3    H232227   6.491   1.344   5.616
10769TIP3   OH232228   6.381   0.703   5.795
10769TIP3    H132229   6.377   0.801   5.798
10769TIP3    H232230   6.307   0.683   5.736
10770TIP3   OH232231   7.707   2.137   6.168
10770TIP3    H132232   7.664   2.185   6.093
10770TIP3    H232233   7.801   2.156   6.147
10771TIP3   OH232234   6.325   1.641   6.086
10771TIP3    H132235   6.255   1.678   6.142
10771TIP3    H232236   6.293   1.665   5.996
10772TIP3   OH232237   6.482   2.171   7.149
10772TIP3    H132238   6.569   2.172   7.196
10772TIP3    H232239   6.464   2.075   7.147
10773TIP3   OH232240   6.955   2.123   7.193
10773TIP3    H132241   7.050   2.106   7.201
10773TIP3    H232242   6.931   2.060   7.122
10774TIP3   OH232243   6.939   1.701   5.318
10774TIP3    H132244   6.885   1.629   5.357
10774TIP3    H232245   7.016   1.650   5.285
10775TIP3   OH232246   7.596   2.037   6.927
10775TIP3    H132247   7.591   1.965   6.994
10775TIP3    H232248   7.675   2.087   6.955
10776TIP3   OH232249   7.375   1.739   5.235
10776TIP3    H132250   7.416   1.674   5.294
10776TIP3    H232251   7.432   1.735   5.155
10777TIP3   OH232252   6.607   1.573   7.346
10777TIP3    H132253   6.618   1.477   7.360
10777TIP3    H232254   6.520   1.576   7.300
10778TIP3   OH232255   6.587   1.215   5.544
10778TIP3    H132256   6.640   1.185   5.620
10778TIP3    H232257   6.656   1.220   5.474
10779TIP3   OH232258   7.216   1.659   7.123
10779TIP3    H132259   7.174   1.678   7.037
10779TIP3    H232260   7.245   1.566   7.113
10780TIP3   OH232261   7.105   1.419   5.352
10780TIP3    H132262   7.105   1.430   5.449
10780TIP3    H232263   7.103   1.321   5.346
10781TIP3   OH232264   7.707   1.669   6.730
10781TIP3    H132265   7.783   1.712   6.686
10781TIP3    H232266   7.637   1.736   6.714
10782TIP3   OH232267   6.731   1.299   7.327
10782TIP3    H132268   6.815   1.258   7.302
10782TIP3    H232269   6.756   1.343   7.411
10783TIP3   OH232270   6.792   1.127   5.765
10783TIP3    H132271   6.762   1.092   5.850
10783TIP3    H232272   6.828   1.048   5.720
10784TIP3   OH232273   7.076   1.196   6.999
10784TIP3    H132274   6.992   1.247   6.997
10784TIP3    H232275   7.119   1.225   6.915
10785TIP3   OH232276   6.895   0.921   5.605
10785TIP3    H132277   6.869   0.927   5.510
10785TIP3    H232278   6.992   0.923   5.596
10786TIP3   OH232279   7.580   1.588   7.125
10786TIP3    H132280   7.663   1.567   7.080
10786TIP3    H232281   7.582   1.527   7.201
10787TIP3   OH232282   7.716   1.244   5.269
10787TIP3    H132283   7.696   1.206   5.181
10787TIP3    H232284   7.683   1.336   5.253
10788TIP3   OH232285   7.188   0.988   7.132
10788TIP3    H132286   7.167   0.905   7.088
10788TIP3    H232287   7.146   1.055   7.073
10789TIP3   OH232288   7.221   1.297   6.794
10789TIP3    H132289   7.302   1.317   6.746
10789TIP3    H232290   7.158   1.360   6.753
10790TIP3   OH232291   7.836   1.521   6.915
10790TIP3    H132292   7.785   1.580   6.855
10790TIP3    H232293   7.927   1.536   6.881
10791TIP3   OH232294   7.036   1.105   7.342
10791TIP3    H132295   6.997   1.025   7.381
10791TIP3    H232296   7.094   1.067   7.273
10792TIP3   OH232297   7.425   1.069   7.246
10792TIP3    H132298   7.417   1.030   7.334
10792TIP3    H232299   7.340   1.040   7.206
10793TIP3   OH232300   6.706   1.981   5.514
10793TIP3    H132301   6.801   1.969   5.494
10793TIP3    H232302   6.680   2.034   5.436
10794TIP3   OH232303   6.171   1.371   5.695
10794TIP3    H132304   6.266   1.390   5.713
10794TIP3    H232305   6.175   1.277   5.669
10795TIP3   OH232306   6.096   1.969   6.145
10795TIP3    H132307   6.036   1.904   6.104
10795TIP3    H232308   6.142   1.913   6.212
10796TIP3   OH232309   6.227   1.820   6.335
10796TIP3    H132310   6.226   1.748   6.401
10796TIP3    H232311   6.282   1.885   6.382
10797TIP3   OH232312   7.962   2.224   6.131
10797TIP3    H132313   7.989   2.254   6.219
10797TIP3    H232314   8.031   2.261   6.074
10798TIP3   OH232315   7.991   2.244   6.413
10798TIP3    H132316   7.943   2.158   6.408
10798TIP3    H232317   8.064   2.218   6.471
10799TIP3   OH232318   8.015   1.941   6.963
10799TIP3    H132319   7.954   1.944   7.038
10799TIP3    H232320   8.069   2.022   6.975
10800TIP3   OH232321   7.855   1.434   5.601
10800TIP3    H132322   7.920   1.501   5.571
10800TIP3    H232323   7.899   1.398   5.681
10801TIP3   OH232324   7.982   1.304   5.806
10801TIP3    H132325   7.914   1.268   5.866
10801TIP3    H232326   8.049   1.340   5.868
10802TIP3   OH232327   8.039   1.696   6.237
10802TIP3    H132328   8.089   1.627   6.189
10802TIP3    H232329   8.035   1.768   6.171
10803TIP3   OH232330   7.863   1.996   6.431
10803TIP3    H132331   7.792   2.036   6.483
10803TIP3    H232332   7.814   1.950   6.360
10804TIP3   OH232333   7.913   1.211   5.452
10804TIP3    H132334   7.844   1.218   5.382
10804TIP3    H232335   7.888   1.288   5.508
10805TIP3   OH232336   7.788   0.868   5.397
10805TIP3    H132337   7.767   0.942   5.339
10805TIP3    H232338   7.726   0.801   5.366
10806TIP3   OH232339   7.789   1.181   5.953
10806TIP3    H132340   7.781   1.085   5.932
10806TIP3    H232341   7.772   1.183   6.050
10807TIP3   OH232342   6.418   1.239   6.707
10807TIP3    H132343   6.419   1.203   6.615
10807TIP3    H232344   6.515   1.238   6.725
10808TIP3   OH232345   8.096   1.569   6.818
10808TIP3    H132346   8.146   1.484   6.818
10808TIP3    H232347   8.133   1.616   6.743
10809TIP3   OH232348   7.787   0.933   5.829
10809TIP3    H132349   7.832   0.849   5.851
10809TIP3    H232350   7.837   0.957   5.748
10810TIP3   OH232351   7.947   1.060   6.333
10810TIP3    H132352   8.034   1.081   6.293
10810TIP3    H232353   7.962   1.098   6.422
10811TIP3   OH232354   8.007   1.200   6.559
10811TIP3    H132355   7.935   1.234   6.615
10811TIP3    H232356   8.040   1.281   6.516
10812TIP3   OH232357   6.603   0.945   7.413
10812TIP3    H132358   6.690   0.909   7.385
10812TIP3    H232359   6.558   0.862   7.431
10813TIP3   OH232360   6.391   0.899   6.762
10813TIP3    H132361   6.449   0.896   6.682
10813TIP3    H232362   6.432   0.970   6.812
10814TIP3   OH232363   7.544   2.093   5.784
10814TIP3    H132364   7.596   2.083   5.702
10814TIP3    H232365   7.597   2.158   5.833
10815TIP3   OH232366   6.644   1.901   7.166
10815TIP3    H132367   6.551   1.874   7.152
10815TIP3    H232368   6.658   1.877   7.259
10816TIP3   OH232369   6.825   1.933   6.717
10816TIP3    H132370   6.779   2.010   6.678
10816TIP3    H232371   6.911   1.944   6.672
10817TIP3   OH232372   7.264   2.173   6.854
10817TIP3    H132373   7.306   2.171   6.942
10817TIP3    H232374   7.329   2.225   6.803
10818TIP3   OH232375   7.444   2.328   6.716
10818TIP3    H132376   7.514   2.275   6.674
10818TIP3    H232377   7.497   2.384   6.777
10819TIP3   OH232378   6.498   2.186   6.741
10819TIP3    H132379   6.408   2.218   6.721
10819TIP3    H232380   6.515   2.232   6.824
10820TIP3   OH232381   6.736   2.166   6.601
10820TIP3    H132382   6.648   2.177   6.643
10820TIP3    H232383   6.717   2.196   6.510
10821TIP3   OH232384   7.161   2.190   6.398
10821TIP3    H132385   7.091   2.208   6.333
10821TIP3    H232386   7.172   2.278   6.440
10822TIP3   OH232387   7.430   2.130   6.451
10822TIP3    H132388   7.336   2.147   6.431
10822TIP3    H232389   7.474   2.202   6.405
10823TIP3   OH232390   7.636   2.321   6.361
10823TIP3    H132391   7.622   2.405   6.313
10823TIP3    H232392   7.663   2.260   6.289
10824TIP3   OH232393   6.408   1.976   6.486
10824TIP3    H132394   6.436   1.948   6.575
10824TIP3    H232395   6.481   1.935   6.434
10825TIP3   OH232396   6.606   1.854   6.346
10825TIP3    H132397   6.620   1.769   6.395
10825TIP3    H232398   6.699   1.888   6.342
10826TIP3   OH232399   6.875   1.942   6.350
10826TIP3    H132400   6.903   1.849   6.340
10826TIP3    H232401   6.925   1.964   6.432
10827TIP3   OH232402   6.193   1.755   5.877
10827TIP3    H132403   6.111   1.722   5.837
10827TIP3    H232404   6.188   1.849   5.853
10828TIP3   OH232405   6.971   1.933   5.459
10828TIP3    H132406   7.059   1.957   5.422
10828TIP3    H232407   6.949   1.859   5.398
10829TIP3   OH232408   7.692   2.059   5.553
10829TIP3    H132409   7.685   1.962   5.543
10829TIP3    H232410   7.645   2.090   5.473
10830TIP3   OH232411   6.275   1.774   5.513
10830TIP3    H132412   6.285   1.788   5.608
10830TIP3    H232413   6.360   1.728   5.491
10831TIP3   OH232414   7.915   2.203   6.736
10831TIP3    H132415   7.837   2.171   6.687
10831TIP3    H232416   7.893   2.298   6.744
10832TIP3   OH232417   8.481   1.485   6.250
10832TIP3    H132418   8.517   1.437   6.325
10832TIP3    H232419   8.561   1.524   6.212
10833TIP3   OH232420   8.437   1.867   5.980
10833TIP3    H132421   8.427   1.770   5.983
10833TIP3    H232422   8.532   1.871   5.956
10834TIP3   OH232423   8.147   1.080   5.756
10834TIP3    H132424   8.102   1.165   5.772
10834TIP3    H232425   8.071   1.022   5.744
10835TIP3   OH232426   8.216   1.370   5.935
10835TIP3    H132427   8.265   1.292   5.969
10835TIP3    H232428   8.278   1.406   5.870
10836TIP3   OH232429   8.368   1.168   6.036
10836TIP3    H132430   8.454   1.143   6.075
10836TIP3    H232431   8.379   1.124   5.949
10837TIP3   OH232432   8.826   1.736   6.142
10837TIP3    H132433   8.763   1.788   6.196
10837TIP3    H232434   8.827   1.789   6.061
10838TIP3   OH232435   8.610   1.068   6.109
10838TIP3    H132436   8.678   1.129   6.144
10838TIP3    H232437   8.665   0.995   6.073
10839TIP3   OH232438   8.653   1.915   6.260
10839TIP3    H132439   8.637   2.003   6.220
10839TIP3    H232440   8.569   1.905   6.310
10840TIP3   OH232441   8.052   1.608   5.493
10840TIP3    H132442   8.012   1.636   5.408
10840TIP3    H232443   8.085   1.693   5.528
10841TIP3   OH232444   8.595   1.481   5.726
10841TIP3    H132445   8.536   1.439   5.659
10841TIP3    H232446   8.668   1.417   5.725
10842TIP3   OH232447   8.695   1.855   5.883
10842TIP3    H132448   8.710   1.823   5.792
10842TIP3    H232449   8.767   1.922   5.890
10843TIP3   OH232450   8.727   1.489   6.083
10843TIP3    H132451   8.756   1.478   5.991
10843TIP3    H232452   8.765   1.577   6.104
10844TIP3   OH232453   8.865   2.030   6.399
10844TIP3    H132454   8.808   2.095   6.444
10844TIP3    H232455   8.799   1.975   6.354
10845TIP3   OH232456   8.595   1.597   6.513
10845TIP3    H132457   8.598   1.692   6.533
10845TIP3    H232458   8.498   1.583   6.507
10846TIP3   OH232459   8.661   2.209   6.490
10846TIP3    H132460   8.629   2.204   6.398
10846TIP3    H232461   8.580   2.184   6.541
10847TIP3   OH232462   8.454   1.359   5.530
10847TIP3    H132463   8.380   1.390   5.473
10847TIP3    H232464   8.437   1.264   5.536
10848TIP3   OH232465   8.234   1.738   6.432
10848TIP3    H132466   8.164   1.719   6.365
10848TIP3    H232467   8.265   1.649   6.457
10849TIP3   OH232468   8.098   1.925   6.066
10849TIP3    H132469   8.194   1.918   6.057
10849TIP3    H232470   8.089   2.002   6.124
10850TIP3   OH232471   8.804   2.291   5.246
10850TIP3    H132472   8.738   2.266   5.180
10850TIP3    H232473   8.783   2.386   5.260
10851TIP3   OH232474   8.265   2.137   5.591
10851TIP3    H132475   8.304   2.126   5.680
10851TIP3    H232476   8.213   2.054   5.584
10852TIP3   OH232477   8.424   1.933   6.409
10852TIP3    H132478   8.472   1.918   6.493
10852TIP3    H232479   8.352   1.866   6.417
10853TIP3   OH232480   8.772   1.255   6.225
10853TIP3    H132481   8.783   1.292   6.313
10853TIP3    H232482   8.770   1.336   6.169
10854TIP3   OH232483   8.663   1.164   5.695
10854TIP3    H132484   8.582   1.149   5.749
10854TIP3    H232485   8.668   1.079   5.651
10855TIP3   OH232486   8.188   0.865   5.533
10855TIP3    H132487   8.202   0.908   5.445
10855TIP3    H232488   8.136   0.933   5.578
10856TIP3   OH232489   8.421   1.058   5.793
10856TIP3    H132490   8.326   1.052   5.768
10856TIP3    H232491   8.445   0.964   5.808
10857TIP3   OH232492   8.502   1.028   5.272
10857TIP3    H132493   8.438   0.993   5.208
10857TIP3    H232494   8.566   1.070   5.214
10858TIP3   OH232495   8.578   1.846   6.627
10858TIP3    H132496   8.669   1.837   6.661
10858TIP3    H232497   8.524   1.825   6.707
10859TIP3   OH232498   8.470   1.591   5.953
10859TIP3    H132499   8.514   1.570   5.868
10859TIP3    H232500   8.515   1.530   6.013
10860TIP3   OH232501   8.332   1.513   6.565
10860TIP3    H132502   8.332   1.480   6.657
10860TIP3    H232503   8.259   1.459   6.526
10861TIP3   OH232504   8.575   1.922   5.575
10861TIP3    H132505   8.555   2.009   5.537
10861TIP3    H232506   8.490   1.896   5.612
10862TIP3   OH232507   8.134   1.221   5.283
10862TIP3    H132508   8.184   1.301   5.309
10862TIP3    H232509   8.061   1.223   5.349
10863TIP3   OH232510   8.626   1.657   5.483
10863TIP3    H132511   8.645   1.743   5.525
10863TIP3    H232512   8.611   1.602   5.561
10864TIP3   OH232513   8.846   2.271   6.078
10864TIP3    H132514   8.873   2.312   5.993
10864TIP3    H232515   8.919   2.210   6.094
10865TIP3   OH232516   8.498   2.153   5.438
10865TIP3    H132517   8.411   2.160   5.481
10865TIP3    H232518   8.529   2.246   5.444
10866TIP3   OH232519   8.285   2.110   6.210
10866TIP3    H132520   8.338   2.037   6.248
10866TIP3    H232521   8.310   2.182   6.269
10867TIP3   OH232522   8.553   1.810   4.903
10867TIP3    H132523   8.582   1.744   4.835
10867TIP3    H232524   8.556   1.758   4.985
10868TIP3   OH232525   8.551   1.751   5.186
10868TIP3    H132526   8.558   1.726   5.280
10868TIP3    H232527   8.537   1.848   5.191
10869TIP3   OH232528   8.248   1.454   5.374
10869TIP3    H132529   8.183   1.501   5.430
10869TIP3    H232530   8.265   1.521   5.306
10870TIP3   OH232531   8.509   2.020   5.195
10870TIP3    H132532   8.517   2.089   5.127
10870TIP3    H232533   8.505   2.072   5.278
10871TIP3   OH232534   8.249   1.658   5.177
10871TIP3    H132535   8.308   1.735   5.178
10871TIP3    H232536   8.297   1.599   5.114
10872TIP3   OH232537   8.174   0.950   5.280
10872TIP3    H132538   8.180   1.048   5.277
10872TIP3    H232539   8.103   0.933   5.216
10873TIP3   OH232540   8.112   1.876   5.558
10873TIP3    H132541   8.051   1.907   5.628
10873TIP3    H232542   8.075   1.921   5.478
10874TIP3   OH232543   8.277   2.427   6.633
10874TIP3    H132544   8.363   2.427   6.681
10874TIP3    H232545   8.256   2.332   6.634
10875TIP3   OH232546   8.751   2.381   6.693
10875TIP3    H132547   8.817   2.448   6.670
10875TIP3    H232548   8.736   2.331   6.609
10876TIP3   OH232549   8.405   1.784   6.834
10876TIP3    H132550   8.389   1.719   6.907
10876TIP3    H232551   8.317   1.795   6.794
10877TIP3   OH232552   8.384   1.473   5.029
10877TIP3    H132553   8.440   1.431   5.099
10877TIP3    H232554   8.449   1.482   4.958
10878TIP3   OH232555   8.553   1.360   5.219
10878TIP3    H132556   8.546   1.372   5.315
10878TIP3    H232557   8.646   1.335   5.209
10879TIP3   OH232558   8.553   2.230   4.995
10879TIP3    H132559   8.574   2.309   4.941
10879TIP3    H232560   8.467   2.208   4.954
10880TIP3   OH232561   7.979   1.619   5.211
10880TIP3    H132562   8.075   1.638   5.198
10880TIP3    H232563   7.972   1.530   5.171
10881TIP3   OH232564   7.897   2.230   5.631
10881TIP3    H132565   7.831   2.169   5.591
10881TIP3    H232566   7.940   2.169   5.695
10882TIP3   OH232567   8.029   2.074   5.816
10882TIP3    H132568   8.018   2.004   5.883
10882TIP3    H232569   8.080   2.139   5.867
10883TIP3   OH232570   8.213   1.484   6.187
10883TIP3    H132571   8.210   1.452   6.094
10883TIP3    H232572   8.310   1.492   6.200
10884TIP3   OH232573   8.195   1.152   6.252
10884TIP3    H132574   8.250   1.152   6.171
10884TIP3    H232575   8.215   1.239   6.289
10885TIP3   OH232576   8.444   2.156   6.661
10885TIP3    H132577   8.351   2.131   6.643
10885TIP3    H232578   8.458   2.118   6.748
10886TIP3   OH232579   8.620   2.190   6.211
10886TIP3    H132580   8.568   2.258   6.164
10886TIP3    H232581   8.708   2.213   6.174
10887TIP3   OH232582   8.292   2.443   6.230
10887TIP3    H132583   8.202   2.475   6.207
10887TIP3    H232584   8.304   2.487   6.315
10888TIP3   OH232585   8.522   2.414   6.086
10888TIP3    H132586   8.435   2.427   6.130
10888TIP3    H232587   8.502   2.447   5.995
10889TIP3   OH232588   8.976   2.588   5.833
10889TIP3    H132589   8.885   2.561   5.817
10889TIP3    H232590   8.980   2.601   5.929
10890TIP3   OH232591   8.202   2.237   5.975
10890TIP3    H132592   8.232   2.209   6.064
10890TIP3    H232593   8.268   2.188   5.921
10891TIP3   OH232594   8.376   2.088   5.834
10891TIP3    H132595   8.391   2.006   5.886
10891TIP3    H232596   8.467   2.127   5.837
10892TIP3   OH232597   8.625   2.188   5.847
10892TIP3    H132598   8.688   2.133   5.799
10892TIP3    H232599   8.681   2.230   5.912
10893TIP3   OH232600   7.994   2.013   5.357
10893TIP3    H132601   7.907   1.980   5.327
10893TIP3    H232602   7.986   2.107   5.330
10894TIP3   OH232603   8.073   2.028   4.999
10894TIP3    H132604   8.073   2.046   5.094
10894TIP3    H232605   8.162   1.987   4.985
10895TIP3   OH232606   1.635   2.362   7.191
10895TIP3    H132607   1.605   2.453   7.169
10895TIP3    H232608   1.559   2.312   7.159
10896TIP3   OH232609   1.639   2.362   7.579
10896TIP3    H132610   1.676   2.335   7.664
10896TIP3    H232611   1.592   2.282   7.550
10897TIP3   OH232612   1.881   2.665   7.261
10897TIP3    H132613   1.864   2.600   7.330
10897TIP3    H232614   1.912   2.742   7.312
10898TIP3   OH232615   0.907   2.669   7.673
10898TIP3    H132616   0.900   2.571   7.670
10898TIP3    H232617   1.003   2.679   7.667
10899TIP3   OH232618   0.691   2.164   7.642
10899TIP3    H132619   0.730   2.088   7.688
10899TIP3    H232620   0.728   2.160   7.553
10900TIP3   OH232621   1.533   3.127   7.277
10900TIP3    H132622   1.573   3.056   7.222
10900TIP3    H232623   1.520   3.082   7.361
10901TIP3   OH232624   1.432   2.593   7.620
10901TIP3    H132625   1.473   2.518   7.574
10901TIP3    H232626   1.514   2.640   7.646
10902TIP3   OH232627   2.451   1.908   7.623
10902TIP3    H132628   2.479   1.992   7.664
10902TIP3    H232629   2.473   1.924   7.529
10903TIP3   OH232630   1.836   2.080   7.660
10903TIP3    H132631   1.885   1.996   7.673
10903TIP3    H232632   1.811   2.072   7.567
10904TIP3   OH232633   1.217   1.744   7.611
10904TIP3    H132634   1.180   1.805   7.544
10904TIP3    H232635   1.139   1.689   7.632
10905TIP3   OH232636   1.882   1.843   7.240
10905TIP3    H132637   1.954   1.827   7.306
10905TIP3    H232638   1.935   1.877   7.165
10906TIP3   OH232639   1.257   2.146   7.515
10906TIP3    H132640   1.352   2.126   7.530
10906TIP3    H232641   1.222   2.058   7.492
10907TIP3   OH232642   2.519   2.118   7.799
10907TIP3    H132643   2.437   2.168   7.780
10907TIP3    H232644   2.562   2.175   7.867
10908TIP3   OH232645   1.520   2.580   7.061
10908TIP3    H132646   1.483   2.572   6.972
10908TIP3    H232647   1.477   2.663   7.091
10909TIP3   OH232648   1.290   2.490   7.849
10909TIP3    H132649   1.233   2.552   7.899
10909TIP3    H232650   1.326   2.549   7.780
10910TIP3   OH232651   2.085   1.845   7.421
10910TIP3    H132652   2.058   1.812   7.508
10910TIP3    H232653   2.137   1.924   7.445
10911TIP3   OH232654   1.073   1.872   7.814
10911TIP3    H132655   1.124   1.945   7.855
10911TIP3    H232656   1.131   1.849   7.739
10912TIP3   OH232657   1.129   2.693   7.957
10912TIP3    H132658   1.072   2.770   7.937
10912TIP3    H232659   1.077   2.642   8.021
10913TIP3   OH232660   0.515   2.393   7.183
10913TIP3    H132661   0.477   2.415   7.095
10913TIP3    H232662   0.541   2.481   7.216
10914TIP3   OH232663   1.947   2.910   7.421
10914TIP3    H132664   1.857   2.902   7.461
10914TIP3    H232665   1.939   2.997   7.376
10915TIP3   OH232666   2.236   1.814   7.783
10915TIP3    H132667   2.151   1.834   7.742
10915TIP3    H232668   2.300   1.843   7.715
10916TIP3   OH232669   1.577   1.454   7.792
10916TIP3    H132670   1.542   1.363   7.781
10916TIP3    H232671   1.526   1.483   7.868
10917TIP3   OH232672   1.645   2.953   7.092
10917TIP3    H132673   1.696   2.871   7.074
10917TIP3    H232674   1.709   3.019   7.054
10918TIP3   OH232675   1.790   2.737   7.011
10918TIP3    H132676   1.756   2.656   6.970
10918TIP3    H232677   1.829   2.703   7.094
10919TIP3   OH232678   2.172   2.819   7.768
10919TIP3    H132679   2.160   2.742   7.709
10919TIP3    H232680   2.154   2.894   7.706
10920TIP3   OH232681   1.465   2.212   7.028
10920TIP3    H132682   1.386   2.267   7.009
10920TIP3    H232683   1.511   2.214   6.942
10921TIP3   OH232684   1.422   2.000   6.739
10921TIP3    H132685   1.488   2.053   6.788
10921TIP3    H232686   1.482   1.939   6.691
10922TIP3   OH232687   2.367   2.457   7.614
10922TIP3    H132688   2.284   2.510   7.618
10922TIP3    H232689   2.400   2.483   7.525
10923TIP3   OH232690   1.813   2.295   6.994
10923TIP3    H132691   1.759   2.321   7.073
10923TIP3    H232692   1.899   2.274   7.038
10924TIP3   OH232693   2.057   2.325   7.910
10924TIP3    H132694   2.055   2.405   7.967
10924TIP3    H232695   1.966   2.330   7.871
10925TIP3   OH232696   1.045   2.291   7.412
10925TIP3    H132697   1.009   2.233   7.342
10925TIP3    H232698   1.124   2.241   7.443
10926TIP3   OH232699   1.177   2.711   7.558
10926TIP3    H132700   1.157   2.673   7.471
10926TIP3    H232701   1.266   2.673   7.577
10927TIP3   OH232702   1.170   2.262   7.762
10927TIP3    H132703   1.213   2.245   7.676
10927TIP3    H232704   1.215   2.343   7.793
10928TIP3   OH232705   1.708   2.903   7.546
10928TIP3    H132706   1.695   2.983   7.599
10928TIP3    H232707   1.691   2.831   7.610
10929TIP3   OH232708   1.298   2.856   8.100
10929TIP3    H132709   1.285   2.803   8.182
10929TIP3    H232710   1.252   2.797   8.036
10930TIP3   OH232711   1.651   2.155   6.822
10930TIP3    H132712   1.710   2.216   6.872
10930TIP3    H232713   1.677   2.174   6.729
10931TIP3   OH232714   1.400   2.829   7.098
10931TIP3    H132715   1.483   2.882   7.104
10931TIP3    H232716   1.340   2.890   7.054
10932TIP3   OH232717   2.168   1.392   6.872
10932TIP3    H132718   2.087   1.418   6.921
10932TIP3    H232719   2.185   1.475   6.821
10933TIP3   OH232720   0.912   2.128   7.215
10933TIP3    H132721   0.852   2.183   7.159
10933TIP3    H232722   0.851   2.059   7.242
10934TIP3   OH232723   1.970   2.760   6.423
10934TIP3    H132724   1.978   2.856   6.406
10934TIP3    H232725   2.063   2.731   6.410
10935TIP3   OH232726   0.545   2.735   7.734
10935TIP3    H132727   0.622   2.676   7.732
10935TIP3    H232728   0.562   2.789   7.812
10936TIP3   OH232729   2.410   3.168   7.819
10936TIP3    H132730   2.409   3.071   7.832
10936TIP3    H232731   2.326   3.193   7.862
10937TIP3   OH232732   1.509   2.940   7.944
10937TIP3    H132733   1.518   3.034   7.971
10937TIP3    H232734   1.434   2.912   8.001
10938TIP3   OH232735   1.282   3.076   6.903
10938TIP3    H132736   1.235   3.059   6.819
10938TIP3    H232737   1.248   3.163   6.930
10939TIP3   OH232738   0.718   2.930   7.289
10939TIP3    H132739   0.766   2.920   7.374
10939TIP3    H232740   0.663   2.850   7.289
10940TIP3   OH232741   1.479   2.981   6.539
10940TIP3    H132742   1.538   2.911   6.503
10940TIP3    H232743   1.515   2.992   6.629
10941TIP3   OH232744   1.533   3.030   6.808
10941TIP3    H132745   1.444   3.039   6.850
10941TIP3    H232746   1.584   2.994   6.882
10942TIP3   OH232747   2.306   2.291   8.037
10942TIP3    H132748   2.231   2.307   7.977
10942TIP3    H232749   2.319   2.195   8.028
10943TIP3   OH232750   2.032   2.063   8.009
10943TIP3    H132751   2.074   2.070   8.097
10943TIP3    H232752   2.035   2.155   7.976
10944TIP3   OH232753   1.728   2.191   6.566
10944TIP3    H132754   1.694   2.173   6.476
10944TIP3    H232755   1.811   2.237   6.544
10945TIP3   OH232756   1.437   1.581   6.868
10945TIP3    H132757   1.409   1.571   6.961
10945TIP3    H232758   1.401   1.497   6.832
10946TIP3   OH232759   1.239   2.059   7.928
10946TIP3    H132760   1.224   2.096   8.015
10946TIP3    H232761   1.214   2.135   7.870
10947TIP3   OH232762   1.106   1.917   7.435
10947TIP3    H132763   1.013   1.944   7.428
10947TIP3    H232764   1.122   1.882   7.345
10948TIP3   OH232765   1.601   2.010   7.160
10948TIP3    H132766   1.552   2.084   7.116
10948TIP3    H232767   1.659   1.980   7.087
10949TIP3   OH232768   1.761   2.041   7.398
10949TIP3    H132769   1.696   2.071   7.332
10949TIP3    H232770   1.795   1.962   7.350
10950TIP3   OH232771   1.087   1.560   6.840
10950TIP3    H132772   1.094   1.558   6.938
10950TIP3    H232773   1.052   1.649   6.826
10951TIP3   OH232774   1.791   2.293   7.825
10951TIP3    H132775   1.804   2.209   7.776
10951TIP3    H232776   1.714   2.275   7.882
10952TIP3   OH232777   1.469   1.756   7.482
10952TIP3    H132778   1.385   1.751   7.533
10952TIP3    H232779   1.535   1.762   7.554
10953TIP3   OH232780   1.141   1.808   7.190
10953TIP3    H132781   1.237   1.818   7.173
10953TIP3    H232782   1.100   1.831   7.104
10954TIP3   OH232783   1.940   1.821   7.687
10954TIP3    H132784   1.917   1.821   7.783
10954TIP3    H232785   1.867   1.765   7.654
10955TIP3   OH232786   0.990   1.826   6.957
10955TIP3    H132787   0.919   1.797   6.895
10955TIP3    H232788   1.044   1.880   6.896
10956TIP3   OH232789   2.101   3.512   7.912
10956TIP3    H132790   2.097   3.540   7.818
10956TIP3    H232791   2.183   3.559   7.940
10957TIP3   OH232792   1.517   2.081   7.587
10957TIP3    H132793   1.598   2.041   7.552
10957TIP3    H232794   1.516   2.046   7.679
10958TIP3   OH232795   1.496   1.991   7.848
10958TIP3    H132796   1.402   2.001   7.870
10958TIP3    H232797   1.538   2.031   7.925
10959TIP3   OH232798   1.237   2.364   6.975
10959TIP3    H132799   1.162   2.302   6.961
10959TIP3    H232800   1.216   2.400   7.064
10960TIP3   OH232801   2.134   2.602   7.600
10960TIP3    H132802   2.158   2.654   7.521
10960TIP3    H232803   2.049   2.561   7.573
10961TIP3   OH232804   1.692   1.675   6.843
10961TIP3    H132805   1.595   1.659   6.850
10961TIP3    H232806   1.700   1.770   6.866
10962TIP3   OH232807   1.636   2.690   7.975
10962TIP3    H132808   1.626   2.656   8.065
10962TIP3    H232809   1.591   2.776   7.981
10963TIP3   OH232810   1.761   1.927   6.943
10963TIP3    H132811   1.857   1.935   6.957
10963TIP3    H232812   1.740   2.008   6.892
10964TIP3   OH232813   0.947   2.397   7.653
10964TIP3    H132814   0.966   2.363   7.564
10964TIP3    H232815   1.008   2.345   7.707
10965TIP3   OH232816   1.382   2.516   6.799
10965TIP3    H132817   1.332   2.601   6.801
10965TIP3    H232818   1.327   2.462   6.860
10966TIP3   OH232819   1.791   2.948   7.863
10966TIP3    H132820   1.696   2.935   7.876
10966TIP3    H232821   1.814   3.005   7.939
10967TIP3   OH232822   2.199   2.022   6.778
10967TIP3    H132823   2.139   1.977   6.714
10967TIP3    H232824   2.197   2.111   6.737
10968TIP3   OH232825   2.423   2.878   7.854
10968TIP3    H132826   2.325   2.871   7.846
10968TIP3    H232827   2.449   2.847   7.764
10969TIP3   OH232828   1.906   2.837   6.686
10969TIP3    H132829   1.878   2.766   6.745
10969TIP3    H232830   1.920   2.791   6.601
10970TIP3   OH232831   1.901   2.468   7.514
10970TIP3    H132832   1.807   2.443   7.530
10970TIP3    H232833   1.933   2.386   7.471
10971TIP3   OH232834   1.031   2.694   7.273
10971TIP3    H132835   1.027   2.776   7.219
10971TIP3    H232836   0.937   2.679   7.289
10972TIP3   OH232837   0.590   2.004   6.995
10972TIP3    H132838   0.632   2.092   7.004
10972TIP3    H232839   0.540   1.999   7.079
10973TIP3   OH232840   1.159   2.456   7.215
10973TIP3    H132841   1.127   2.547   7.233
10973TIP3    H232842   1.125   2.409   7.293
10974TIP3   OH232843   1.296   3.036   7.745
10974TIP3    H132844   1.339   3.107   7.693
10974TIP3    H232845   1.373   2.993   7.786
10975TIP3   OH232846   0.947   2.932   7.127
10975TIP3    H132847   0.862   2.943   7.174
10975TIP3    H232848   0.981   3.025   7.130
10976TIP3   OH232849   1.684   2.671   7.707
10976TIP3    H132850   1.675   2.672   7.805
10976TIP3    H232851   1.764   2.617   7.696
10977TIP3   OH232852   1.665   2.565   6.588
10977TIP3    H132853   1.717   2.540   6.667
10977TIP3    H232854   1.576   2.539   6.616
10978TIP3   OH232855   1.933   3.202   7.752
10978TIP3    H132856   1.852   3.147   7.743
10978TIP3    H232857   1.919   3.267   7.678
10979TIP3   OH232858   1.999   3.035   6.405
10979TIP3    H132859   2.033   3.106   6.348
10979TIP3    H232860   1.920   3.081   6.440
10980TIP3   OH232861   1.825   2.497   6.803
10980TIP3    H132862   1.815   2.430   6.873
10980TIP3    H232863   1.922   2.494   6.789
10981TIP3   OH232864   0.731   2.898   7.895
10981TIP3    H132865   0.796   2.828   7.882
10981TIP3    H232866   0.780   2.959   7.952
10982TIP3   OH232867   1.028   2.544   6.587
10982TIP3    H132868   1.039   2.450   6.561
10982TIP3    H232869   1.006   2.535   6.682
10983TIP3   OH232870   0.972   2.550   6.859
10983TIP3    H132871   1.046   2.528   6.917
10983TIP3    H232872   0.972   2.649   6.865
10984TIP3   OH232873   0.712   2.245   7.064
10984TIP3    H132874   0.644   2.289   7.121
10984TIP3    H232875   0.721   2.314   6.995
10985TIP3   OH232876   1.875   1.847   7.954
10985TIP3    H132877   1.930   1.928   7.965
10985TIP3    H232878   1.817   1.854   8.031
10986TIP3   OH232879   1.746   1.629   7.121
10986TIP3    H132880   1.729   1.649   7.027
10986TIP3    H232881   1.783   1.713   7.154
10987TIP3   OH232882   1.238   2.745   6.806
10987TIP3    H132883   1.151   2.770   6.843
10987TIP3    H232884   1.254   2.820   6.747
10988TIP3   OH232885   1.421   1.810   7.218
10988TIP3    H132886   1.484   1.883   7.196
10988TIP3    H232887   1.437   1.803   7.314
10989TIP3   OH232888   1.592   1.549   7.332
10989TIP3    H132889   1.573   1.636   7.374
10989TIP3    H232890   1.648   1.577   7.256
10990TIP3   OH232891   0.984   2.821   6.877
10990TIP3    H132892   0.955   2.891   6.815
10990TIP3    H232893   0.968   2.864   6.964
10991TIP3   OH232894   1.085   1.549   7.113
10991TIP3    H132895   1.091   1.640   7.149
10991TIP3    H232896   1.178   1.521   7.124
10992TIP3   OH232897   2.326   2.018   7.997
10992TIP3    H132898   2.233   1.993   7.988
10992TIP3    H232899   2.359   1.995   7.908
10993TIP3   OH232900   1.986   2.221   7.399
10993TIP3    H132901   1.909   2.161   7.409
10993TIP3    H232902   2.057   2.172   7.446
10994TIP3   OH232903   0.707   2.447   6.865
10994TIP3    H132904   0.776   2.515   6.872
10994TIP3    H232905   0.750   2.389   6.799
10995TIP3   OH232906   1.956   3.180   7.345
10995TIP3    H132907   1.913   3.228   7.270
10995TIP3    H232908   2.051   3.199   7.324
10996TIP3   OH232909   0.564   2.665   7.250
10996TIP3    H132910   0.507   2.702   7.319
10996TIP3    H232911   0.530   2.711   7.169
10997TIP3   OH232912   1.189   2.747   6.495
10997TIP3    H132913   1.136   2.673   6.533
10997TIP3    H232914   1.265   2.697   6.458
10998TIP3   OH232915   1.839   3.081   8.103
10998TIP3    H132916   1.850   3.004   8.159
10998TIP3    H232917   1.918   3.134   8.124
10999TIP3   OH232918   1.623   2.784   6.410
10999TIP3    H132919   1.668   2.721   6.469
10999TIP3    H232920   1.679   2.782   6.330
11000TIP3   OH232921   0.844   2.262   6.725
11000TIP3    H132922   0.902   2.237   6.800
11000TIP3    H232923   0.911   2.267   6.653
11001TIP3   OH232924   1.355   2.462   6.530
11001TIP3    H132925   1.354   2.475   6.627
11001TIP3    H232926   1.352   2.364   6.524
11002TIP3   OH232927   1.958   2.717   7.912
11002TIP3    H132928   2.032   2.759   7.865
11002TIP3    H232929   1.885   2.778   7.893
11003TIP3   OH232930   1.037   2.173   6.939
11003TIP3    H132931   1.011   2.134   7.024
11003TIP3    H232932   1.078   2.097   6.892
11004TIP3   OH232933   1.148   1.963   6.786
11004TIP3    H132934   1.122   1.975   6.692
11004TIP3    H232935   1.245   1.967   6.777
11005TIP3   OH232936   1.961   2.289   6.451
11005TIP3    H132937   1.943   2.247   6.364
11005TIP3    H232938   1.930   2.380   6.431
11006TIP3   OH232939   1.518   2.324   7.929
11006TIP3    H132940   1.532   2.401   7.872
11006TIP3    H232941   1.435   2.350   7.971
11007TIP3   OH232942   2.087   2.542   8.075
11007TIP3    H132943   2.030   2.605   8.025
11007TIP3    H232944   2.176   2.579   8.053
11008TIP3   OH232945   0.954   3.022   6.689
11008TIP3    H132946   1.049   3.015   6.669
11008TIP3    H232947   0.925   3.075   6.612
11009TIP3   OH232948   0.446   2.396   6.916
11009TIP3    H132949   0.537   2.422   6.892
11009TIP3    H232950   0.433   2.316   6.863
11010TIP3   OH232951   0.340   3.016   7.326
11010TIP3    H132952   0.252   2.976   7.334
11010TIP3    H232953   0.391   2.959   7.387
11011TIP3   OH232954   0.485   2.869   7.505
11011TIP3    H132955   0.486   2.805   7.579
11011TIP3    H232956   0.535   2.940   7.548
11012TIP3   OH232957   2.213   3.264   7.308
11012TIP3    H132958   2.237   3.303   7.394
11012TIP3    H232959   2.274   3.308   7.247
11013TIP3   OH232960   2.235   3.290   7.591
11013TIP3    H132961   2.192   3.202   7.584
11013TIP3    H232962   2.314   3.265   7.642
11014TIP3   OH232963   2.294   2.969   8.145
11014TIP3    H132964   2.217   2.979   8.201
11014TIP3    H232965   2.332   3.059   8.146
11015TIP3   OH232966   2.103   2.477   6.778
11015TIP3    H132967   2.167   2.544   6.747
11015TIP3    H232968   2.150   2.441   6.857
11016TIP3   OH232969   2.232   2.344   6.983
11016TIP3    H132970   2.164   2.305   7.042
11016TIP3    H232971   2.296   2.381   7.046
11017TIP3   OH232972   2.288   2.741   7.416
11017TIP3    H132973   2.339   2.673   7.368
11017TIP3    H232974   2.285   2.814   7.352
11018TIP3   OH232975   2.112   3.038   7.608
11018TIP3    H132976   2.038   3.080   7.657
11018TIP3    H232977   2.064   2.993   7.535
11019TIP3   OH232978   2.166   2.253   6.629
11019TIP3    H132979   2.095   2.256   6.561
11019TIP3    H232980   2.139   2.330   6.683
11020TIP3   OH232981   2.037   1.925   6.583
11020TIP3    H132982   1.993   1.965   6.508
11020TIP3    H232983   2.014   1.830   6.570
11021TIP3   OH232984   2.041   2.207   7.129
11021TIP3    H132985   2.049   2.110   7.121
11021TIP3    H232986   2.026   2.219   7.225
11022TIP3   OH232987   0.661   2.311   7.867
11022TIP3    H132988   0.673   2.269   7.779
11022TIP3    H232989   0.747   2.297   7.906
11023TIP3   OH232990   2.336   2.632   7.991
11023TIP3    H132991   2.410   2.569   7.979
11023TIP3    H232992   2.358   2.703   7.928
11024TIP3   OH232993   2.527   2.442   7.992
11024TIP3    H132994   2.452   2.388   8.024
11024TIP3    H232995   2.602   2.383   8.014
11025TIP3   OH232996   1.982   1.657   6.562
11025TIP3    H132997   2.053   1.628   6.622
11025TIP3    H232998   1.906   1.601   6.586
11026TIP3   OH232999   2.040   1.922   7.020
11026TIP3    H133000   2.082   1.834   7.033
11026TIP3    H233001   2.097   1.957   6.948
11027TIP3   OH233002   2.198   2.085   7.517
11027TIP3    H133003   2.284   2.110   7.475
11027TIP3    H233004   2.213   2.126   7.605
11028TIP3   OH233005   2.269   2.236   7.742
11028TIP3    H133006   2.187   2.272   7.783
11028TIP3    H233007   2.304   2.316   7.697
11029TIP3   OH233008   2.149   1.671   7.060
11029TIP3    H133009   2.196   1.654   7.145
11029TIP3    H233010   2.086   1.597   7.059
11030TIP3   OH233011   2.584   1.971   8.104
11030TIP3    H133012   2.505   2.003   8.058
11030TIP3    H233013   2.594   1.884   8.062
11031TIP3   OH233014   2.224   1.600   6.698
11031TIP3    H133015   2.266   1.534   6.639
11031TIP3    H233016   2.289   1.673   6.695
11032TIP3   OH233017   1.793   3.137   6.962
11032TIP3    H133018   1.844   3.127   6.879
11032TIP3    H233019   1.845   3.204   7.008
11033TIP3   OH233020   1.050   2.966   7.888
11033TIP3    H133021   1.020   3.051   7.850
11033TIP3    H233022   1.143   2.970   7.858
11034TIP3   OH233023   1.548   3.195   8.025
11034TIP3    H133024   1.620   3.182   8.089
11034TIP3    H233025   1.591   3.260   7.965
11035TIP3   OH233026   1.688   3.372   7.878
11035TIP3    H133027   1.760   3.326   7.832
11035TIP3    H233028   1.740   3.436   7.933
11036TIP3   OH233029   2.489   1.736   7.979
11036TIP3    H133030   2.398   1.722   7.949
11036TIP3    H233031   2.522   1.644   7.981
11037TIP3   OH233032   0.762   3.242   7.929
11037TIP3    H133033   0.676   3.277   7.896
11037TIP3    H233034   0.731   3.193   8.005
11038TIP3   OH233035   0.991   3.212   7.777
11038TIP3    H133036   0.907   3.231   7.825
11038TIP3    H233037   0.969   3.242   7.686
11039TIP3   OH233038   1.409   3.233   7.576
11039TIP3    H133039   1.340   3.249   7.509
11039TIP3    H233040   1.420   3.323   7.615
11040TIP3   OH233041   1.679   3.173   7.628
11040TIP3    H133042   1.585   3.191   7.608
11040TIP3    H233043   1.724   3.244   7.579
11041TIP3   OH233044   1.881   3.363   7.538
11041TIP3    H133045   1.869   3.449   7.491
11041TIP3    H233046   1.910   3.305   7.464
11042TIP3   OH233047   0.662   3.025   7.654
11042TIP3    H133048   0.671   2.993   7.746
11042TIP3    H233049   0.735   2.976   7.611
11043TIP3   OH233050   0.858   2.892   7.521
11043TIP3    H133051   0.873   2.809   7.572
11043TIP3    H233052   0.949   2.929   7.518
11044TIP3   OH233053   1.123   2.986   7.528
11044TIP3    H133054   1.152   2.893   7.520
11044TIP3    H233055   1.169   3.010   7.611
11045TIP3   OH233056   1.714   1.652   7.620
11045TIP3    H133057   1.672   1.578   7.668
11045TIP3    H233058   1.779   1.606   7.564
11046TIP3   OH233059   2.215   1.524   7.517
11046TIP3    H133060   2.252   1.577   7.443
11046TIP3    H233061   2.119   1.545   7.510
11047TIP3   OH233062   2.311   1.619   7.279
11047TIP3    H133063   2.386   1.569   7.239
11047TIP3    H233064   2.344   1.711   7.266
11048TIP3   OH233065   1.380   1.442   7.467
11048TIP3    H133066   1.463   1.485   7.439
11048TIP3    H233067   1.383   1.450   7.565
11049TIP3   OH233068   1.932   1.535   7.482
11049TIP3    H133069   1.927   1.496   7.394
11049TIP3    H233070   1.917   1.456   7.540
11050TIP3   OH233071   1.965   1.460   7.053
11050TIP3    H133072   1.879   1.500   7.072
11050TIP3    H233073   1.954   1.371   7.093
11051TIP3   OH233074   0.443   2.800   7.051
11051TIP3    H133075   0.379   2.753   6.997
11051TIP3    H233076   0.427   2.892   7.021
11052TIP3   OH233077   1.361   1.554   7.134
11052TIP3    H133078   1.411   1.495   7.191
11052TIP3    H233079   1.391   1.642   7.164
11053TIP3   OH233080   1.221   2.978   6.637
11053TIP3    H133081   1.308   3.003   6.599
11053TIP3    H233082   1.199   2.905   6.575
11054TIP3   OH233083   1.939   3.104   6.730
11054TIP3    H133084   1.932   3.006   6.718
11054TIP3    H233085   1.894   3.135   6.650
11055TIP3   OH233086   0.526   2.818   6.691
11055TIP3    H133087   0.533   2.853   6.780
11055TIP3    H233088   0.613   2.774   6.677
11056TIP3   OH233089   2.157   3.245   7.913
11056TIP3    H133090   2.082   3.217   7.856
11056TIP3    H233091   2.141   3.342   7.914
11057TIP3   OH233092   3.430   2.621   6.676
11057TIP3    H133093   3.398   2.710   6.652
11057TIP3    H233094   3.358   2.567   6.638
11058TIP3   OH233095   3.436   2.622   7.065
11058TIP3    H133096   3.467   2.593   7.153
11058TIP3    H233097   3.392   2.543   7.032
11059TIP3   OH233098   2.727   2.509   7.429
11059TIP3    H133099   2.758   2.442   7.493
11059TIP3    H233100   2.805   2.566   7.423
11060TIP3   OH233101   3.681   2.922   6.746
11060TIP3    H133102   3.655   2.856   6.812
11060TIP3    H233103   3.708   2.998   6.800
11061TIP3   OH233104   2.705   2.924   7.150
11061TIP3    H133105   2.696   2.826   7.151
11061TIP3    H233106   2.801   2.933   7.138
11062TIP3   OH233107   2.407   2.120   6.932
11062TIP3    H133108   2.363   2.205   6.952
11062TIP3    H233109   2.336   2.074   6.885
11063TIP3   OH233110   2.465   2.413   7.114
11063TIP3    H133111   2.517   2.336   7.146
11063TIP3    H233112   2.526   2.453   7.051
11064TIP3   OH233113   3.331   3.385   6.764
11064TIP3    H133114   3.369   3.313   6.709
11064TIP3    H233115   3.314   3.338   6.847
11065TIP3   OH233116   3.227   2.846   7.111
11065TIP3    H133117   3.267   2.772   7.063
11065TIP3    H233118   3.309   2.893   7.137
11066TIP3   OH233119   4.247   2.164   7.110
11066TIP3    H133120   4.276   2.248   7.151
11066TIP3    H233121   4.265   2.181   7.016
11067TIP3   OH233122   3.641   2.343   7.139
11067TIP3    H133123   3.683   2.257   7.159
11067TIP3    H233124   3.608   2.327   7.048
11068TIP3   OH233125   2.985   2.004   7.105
11068TIP3    H133126   2.965   2.078   7.043
11068TIP3    H233127   2.935   1.932   7.062
11069TIP3   OH233128   3.678   2.098   6.728
11069TIP3    H133129   3.750   2.084   6.792
11069TIP3    H233130   3.728   2.133   6.652
11070TIP3   OH233131   2.612   2.205   7.216
11070TIP3    H133132   2.696   2.189   7.263
11070TIP3    H233133   2.628   2.152   7.135
11071TIP3   OH233134   3.052   2.404   7.014
11071TIP3    H133135   3.147   2.380   7.023
11071TIP3    H233136   3.014   2.320   6.978
11072TIP3   OH233137   4.319   2.375   7.278
11072TIP3    H133138   4.234   2.420   7.258
11072TIP3    H233139   4.336   2.407   7.368
11073TIP3   OH233140   2.976   1.987   7.541
11073TIP3    H133141   2.918   2.026   7.473
11073TIP3    H233142   2.922   2.006   7.621
11074TIP3   OH233143   3.324   2.842   6.549
11074TIP3    H133144   3.288   2.824   6.460
11074TIP3    H233145   3.271   2.920   6.575
11075TIP3   OH233146   3.083   2.765   7.332
11075TIP3    H133147   3.023   2.834   7.368
11075TIP3    H233148   3.126   2.812   7.257
11076TIP3   OH233149   3.882   2.102   6.909
11076TIP3    H133150   3.857   2.065   6.995
11076TIP3    H233151   3.932   2.181   6.934
11077TIP3   OH233152   2.850   2.103   7.324
11077TIP3    H133153   2.910   2.177   7.348
11077TIP3    H233154   2.899   2.064   7.249
11078TIP3   OH233155   2.914   2.963   7.434
11078TIP3    H133156   2.888   3.049   7.397
11078TIP3    H233157   2.834   2.944   7.488
11079TIP3   OH233158   2.300   2.651   6.669
11079TIP3    H133159   2.263   2.677   6.583
11079TIP3    H233160   2.333   2.736   6.703
11080TIP3   OH233161   3.745   3.168   6.910
11080TIP3    H133162   3.655   3.158   6.950
11080TIP3    H233163   3.735   3.253   6.864
11081TIP3   OH233164   4.039   2.062   7.275
11081TIP3    H133165   3.951   2.088   7.242
11081TIP3    H233166   4.098   2.095   7.205
11082TIP3   OH233167   3.329   1.705   7.259
11082TIP3    H133168   3.311   1.610   7.275
11082TIP3    H233169   3.252   1.745   7.306
11083TIP3   OH233170   3.441   3.210   6.579
11083TIP3    H133171   3.491   3.127   6.562
11083TIP3    H233172   3.505   3.275   6.541
11084TIP3   OH233173   3.587   2.995   6.495
11084TIP3    H133174   3.542   2.917   6.461
11084TIP3    H233175   3.627   2.959   6.578
11085TIP3   OH233176   3.970   3.074   7.254
11085TIP3    H133177   3.956   2.998   7.194
11085TIP3    H233178   3.950   3.150   7.195
11086TIP3   OH233179   3.262   2.474   6.514
11086TIP3    H133180   3.181   2.527   6.495
11086TIP3    H233181   3.301   2.466   6.425
11087TIP3   OH233182   3.228   2.222   6.267
11087TIP3    H133183   3.286   2.297   6.288
11087TIP3    H233184   3.281   2.179   6.197
11088TIP3   OH233185   4.165   2.718   7.103
11088TIP3    H133186   4.080   2.767   7.106
11088TIP3    H233187   4.195   2.741   7.013
11089TIP3   OH233188   3.611   2.560   6.480
11089TIP3    H133189   3.554   2.582   6.558
11089TIP3    H233190   3.695   2.535   6.526
11090TIP3   OH233191   3.843   2.590   7.401
11090TIP3    H133192   3.840   2.674   7.450
11090TIP3    H233193   3.757   2.592   7.355
11091TIP3   OH233194   2.839   2.548   6.905
11091TIP3    H133195   2.797   2.491   6.837
11091TIP3    H233196   2.916   2.495   6.932
11092TIP3   OH233197   2.968   2.961   7.047
11092TIP3    H133198   2.949   2.932   6.956
11092TIP3    H233199   3.057   2.923   7.062
11093TIP3   OH233200   2.975   2.522   7.256
11093TIP3    H133201   3.008   2.496   7.167
11093TIP3    H233202   3.019   2.608   7.271
11094TIP3   OH233203   3.506   3.160   7.034
11094TIP3    H133204   3.490   3.240   7.086
11094TIP3    H233205   3.487   3.088   7.096
11095TIP3   OH233206   3.117   3.078   7.581
11095TIP3    H133207   3.054   3.139   7.625
11095TIP3    H233208   3.054   3.025   7.528
11096TIP3   OH233209   3.451   2.408   6.312
11096TIP3    H133210   3.507   2.474   6.358
11096TIP3    H233211   3.475   2.425   6.218
11097TIP3   OH233212   2.874   2.631   7.680
11097TIP3    H133213   2.879   2.718   7.726
11097TIP3    H233214   2.779   2.610   7.696
11098TIP3   OH233215   3.194   3.089   6.590
11098TIP3    H133216   3.277   3.140   6.592
11098TIP3    H233217   3.135   3.147   6.540
11099TIP3   OH233218   2.910   3.244   7.668
11099TIP3    H133219   2.876   3.248   7.576
11099TIP3    H233220   2.828   3.221   7.718
11100TIP3   OH233221   3.965   1.648   6.361
11100TIP3    H133222   3.883   1.672   6.409
11100TIP3    H233223   3.981   1.730   6.310
11101TIP3   OH233224   2.705   2.393   6.711
11101TIP3    H133225   2.642   2.440   6.653
11101TIP3    H233226   2.667   2.305   6.712
11102TIP3   OH233227   3.764   3.017   5.909
11102TIP3    H133228   3.772   3.113   5.893
11102TIP3    H233229   3.857   2.988   5.896
11103TIP3   OH233230   2.489   2.779   7.612
11103TIP3    H133231   2.421   2.759   7.544
11103TIP3    H233232   2.528   2.691   7.631
11104TIP3   OH233233   2.344   2.969   7.247
11104TIP3    H133234   2.440   2.967   7.236
11104TIP3    H233235   2.332   3.050   7.300
11105TIP3   OH233236   4.208   3.427   7.305
11105TIP3    H133237   4.206   3.330   7.318
11105TIP3    H233238   4.124   3.451   7.349
11106TIP3   OH233239   3.314   3.205   7.438
11106TIP3    H133240   3.309   3.298   7.469
11106TIP3    H233241   3.241   3.165   7.491
11107TIP3   OH233242   3.080   3.334   6.389
11107TIP3    H133243   3.031   3.315   6.307
11107TIP3    H233244   3.043   3.420   6.415
11108TIP3   OH233245   2.513   3.183   6.775
11108TIP3    H133246   2.560   3.174   6.860
11108TIP3    H233247   2.462   3.101   6.772
11109TIP3   OH233248   3.276   3.239   6.025
11109TIP3    H133249   3.332   3.167   5.990
11109TIP3    H233250   3.311   3.249   6.116
11110TIP3   OH233251   3.329   3.286   6.294
11110TIP3    H133252   3.240   3.297   6.335
11110TIP3    H233253   3.378   3.245   6.367
11111TIP3   OH233254   4.096   2.552   7.577
11111TIP3    H133255   4.012   2.562   7.530
11111TIP3    H233256   4.112   2.455   7.568
11112TIP3   OH233257   2.693   2.962   7.596
11112TIP3    H133258   2.743   2.944   7.678
11112TIP3    H233259   2.619   2.899   7.603
11113TIP3   OH233260   3.092   1.782   7.390
11113TIP3    H133261   3.004   1.753   7.359
11113TIP3    H233262   3.067   1.864   7.437
11114TIP3   OH233263   3.629   1.896   7.581
11114TIP3    H133264   3.698   1.870   7.645
11114TIP3    H233265   3.546   1.878   7.630
11115TIP3   OH233266   3.864   2.328   7.501
11115TIP3    H133267   3.812   2.326   7.585
11115TIP3    H233268   3.840   2.415   7.464
11116TIP3   OH233269   3.530   2.439   6.054
11116TIP3    H133270   3.480   2.426   5.972
11116TIP3    H233271   3.607   2.490   6.022
11117TIP3   OH233272   3.239   1.821   6.359
11117TIP3    H133273   3.201   1.823   6.449
11117TIP3    H233274   3.195   1.742   6.323
11118TIP3   OH233275   3.024   2.300   7.405
11118TIP3    H133276   2.974   2.321   7.486
11118TIP3    H233277   3.008   2.381   7.352
11119TIP3   OH233278   2.911   2.185   6.918
11119TIP3    H133279   2.817   2.162   6.935
11119TIP3    H233280   2.922   2.145   6.829
11120TIP3   OH233281   3.395   2.271   6.648
11120TIP3    H133282   3.345   2.343   6.603
11120TIP3    H233283   3.449   2.236   6.574
11121TIP3   OH233284   3.573   2.545   7.731
11121TIP3    H133285   3.550   2.473   7.793
11121TIP3    H233286   3.667   2.558   7.753
11122TIP3   OH233287   3.553   2.297   6.883
11122TIP3    H133288   3.490   2.326   6.813
11122TIP3    H233289   3.588   2.218   6.837
11123TIP3   OH233290   2.845   2.327   7.614
11123TIP3    H133291   2.875   2.392   7.680
11123TIP3    H233292   2.837   2.246   7.668
11124TIP3   OH233293   2.890   1.802   6.325
11124TIP3    H133294   2.880   1.807   6.422
11124TIP3    H233295   2.818   1.860   6.296
11125TIP3   OH233296   2.438   1.842   7.199
11125TIP3    H133297   2.510   1.880   7.253
11125TIP3    H233298   2.480   1.824   7.114
11126TIP3   OH233299   2.398   1.828   6.714
11126TIP3    H133300   2.442   1.865   6.634
11126TIP3    H233301   2.338   1.903   6.734
11127TIP3   OH233302   3.569   2.541   7.306
11127TIP3    H133303   3.601   2.470   7.246
11127TIP3    H233304   3.536   2.487   7.381
11128TIP3   OH233305   3.243   1.999   6.979
11128TIP3    H133306   3.161   2.003   7.031
11128TIP3    H233307   3.311   2.002   7.048
11129TIP3   OH233308   2.670   2.065   6.987
11129TIP3    H133309   2.576   2.073   6.957
11129TIP3    H233310   2.694   1.975   6.961
11130TIP3   OH233311   2.936   2.059   6.676
11130TIP3    H133312   3.029   2.076   6.652
11130TIP3    H233313   2.887   2.080   6.593
11131TIP3   OH233314   3.729   2.082   7.180
11131TIP3    H133315   3.700   2.096   7.273
11131TIP3    H233316   3.658   2.023   7.149
11132TIP3   OH233317   2.786   2.088   6.452
11132TIP3    H133318   2.721   2.046   6.393
11132TIP3    H233319   2.841   2.135   6.386
11133TIP3   OH233320   3.903   3.771   7.403
11133TIP3    H133321   3.898   3.796   7.309
11133TIP3    H233322   3.981   3.821   7.432
11134TIP3   OH233323   2.858   2.884   7.817
11134TIP3    H133324   2.937   2.909   7.869
11134TIP3    H233325   2.793   2.875   7.889
11135TIP3   OH233326   3.317   2.335   7.076
11135TIP3    H133327   3.393   2.300   7.026
11135TIP3    H233328   3.325   2.291   7.162
11136TIP3   OH233329   2.836   1.824   6.959
11136TIP3    H133330   2.802   1.745   7.007
11136TIP3    H233331   2.875   1.784   6.881
11137TIP3   OH233332   3.294   2.236   7.368
11137TIP3    H133333   3.204   2.272   7.380
11137TIP3    H233334   3.350   2.299   7.417
11138TIP3   OH233335   3.030   2.619   6.462
11138TIP3    H133336   2.955   2.559   6.445
11138TIP3    H233337   3.008   2.655   6.551
11139TIP3   OH233338   3.929   2.858   7.087
11139TIP3    H133339   3.952   2.910   7.007
11139TIP3    H233340   3.844   2.816   7.061
11140TIP3   OH233341   3.487   1.933   6.332
11140TIP3    H133342   3.390   1.914   6.335
11140TIP3    H233343   3.491   2.028   6.352
11141TIP3   OH233344   3.430   2.941   7.460
11141TIP3    H133345   3.459   2.927   7.550
11141TIP3    H233346   3.392   3.031   7.463
11142TIP3   OH233347   3.556   2.184   6.434
11142TIP3    H133348   3.652   2.197   6.443
11142TIP3    H233349   3.529   2.263   6.382
11143TIP3   OH233350   2.724   2.646   7.137
11143TIP3    H133351   2.761   2.618   7.050
11143TIP3    H233352   2.772   2.588   7.198
11144TIP3   OH233353   3.211   2.790   6.301
11144TIP3    H133354   3.149   2.867   6.295
11144TIP3    H233355   3.148   2.719   6.321
11145TIP3   OH233356   2.609   2.565   7.745
11145TIP3    H133357   2.627   2.555   7.841
11145TIP3    H233358   2.537   2.501   7.732
11146TIP3   OH233359   3.334   2.683   7.769
11146TIP3    H133360   3.270   2.624   7.726
11146TIP3    H233361   3.419   2.646   7.739
11147TIP3   OH233362   3.590   3.201   7.359
11147TIP3    H133363   3.493   3.200   7.370
11147TIP3    H233364   3.617   3.255   7.435
11148TIP3   OH233365   3.999   2.277   6.262
11148TIP3    H133366   3.939   2.232   6.198
11148TIP3    H233367   3.993   2.368   6.224
11149TIP3   OH233368   4.220   3.136   7.342
11149TIP3    H133369   4.122   3.129   7.334
11149TIP3    H233370   4.246   3.104   7.252
11150TIP3   OH233371   3.706   3.092   6.176
11150TIP3    H133372   3.672   3.024   6.235
11150TIP3    H233373   3.716   3.045   6.091
11151TIP3   OH233374   3.697   2.722   7.005
11151TIP3    H133375   3.603   2.698   7.019
11151TIP3    H233376   3.729   2.642   6.959
11152TIP3   OH233377   2.829   2.954   6.769
11152TIP3    H133378   2.827   3.033   6.711
11152TIP3    H233379   2.735   2.931   6.771
11153TIP3   OH233380   2.393   2.252   6.469
11153TIP3    H133381   2.437   2.338   6.490
11153TIP3    H233382   2.316   2.257   6.530
11154TIP3   OH233383   2.955   2.712   6.707
11154TIP3    H133384   2.925   2.804   6.726
11154TIP3    H233385   2.918   2.664   6.783
11155TIP3   OH233386   3.096   3.292   7.230
11155TIP3    H133387   3.137   3.365   7.179
11155TIP3    H233388   3.174   3.255   7.274
11156TIP3   OH233389   2.744   3.189   6.615
11156TIP3    H133390   2.658   3.199   6.660
11156TIP3    H233391   2.777   3.281   6.617
11157TIP3   OH233392   3.479   2.928   7.191
11157TIP3    H133393   3.469   2.926   7.289
11157TIP3    H233394   3.557   2.872   7.178
11158TIP3   OH233395   3.451   2.817   6.078
11158TIP3    H133396   3.512   2.796   6.152
11158TIP3    H233397   3.366   2.796   6.121
11159TIP3   OH233398   3.730   3.458   7.239
11159TIP3    H133399   3.649   3.404   7.233
11159TIP3    H233400   3.715   3.523   7.167
11160TIP3   OH233401   3.795   3.292   5.891
11160TIP3    H133402   3.823   3.361   5.830
11160TIP3    H233403   3.716   3.336   5.930
11161TIP3   OH233404   2.815   2.067   7.754
11161TIP3    H133405   2.720   2.070   7.772
11161TIP3    H233406   2.849   2.021   7.833
11162TIP3   OH233407   3.624   2.757   6.284
11162TIP3    H133408   3.609   2.693   6.356
11162TIP3    H233409   3.721   2.751   6.274
11163TIP3   OH233410   2.533   3.155   7.388
11163TIP3    H133411   2.588   3.085   7.427
11163TIP3    H233412   2.561   3.232   7.439
11164TIP3   OH233413   2.843   2.797   6.074
11164TIP3    H133414   2.883   2.710   6.048
11164TIP3    H233415   2.812   2.779   6.164
11165TIP3   OH233416   2.765   2.805   6.348
11165TIP3    H133417   2.849   2.779   6.388
11165TIP3    H233418   2.769   2.903   6.354
11166TIP3   OH233419   2.500   2.496   6.552
11166TIP3    H133420   2.433   2.544   6.605
11166TIP3    H233421   2.516   2.562   6.481
11167TIP3   OH233422   3.659   2.132   7.440
11167TIP3    H133423   3.737   2.173   7.482
11167TIP3    H233424   3.645   2.052   7.495
11168TIP3   OH233425   3.539   1.880   6.609
11168TIP3    H133426   3.519   1.902   6.516
11168TIP3    H233427   3.575   1.965   6.643
11169TIP3   OH233428   3.034   3.000   6.294
11169TIP3    H133429   2.946   3.023   6.328
11169TIP3    H233430   3.047   3.071   6.230
11170TIP3   OH233431   3.221   2.066   6.709
11170TIP3    H133432   3.282   2.140   6.689
11170TIP3    H233433   3.228   2.060   6.806
11171TIP3   OH233434   3.493   2.382   7.513
11171TIP3    H133435   3.516   2.435   7.592
11171TIP3    H233436   3.544   2.301   7.527
11172TIP3   OH233437   3.363   1.786   6.807
11172TIP3    H133438   3.347   1.866   6.861
11172TIP3    H233439   3.427   1.820   6.741
11173TIP3   OH233440   2.780   3.078   6.363
11173TIP3    H133441   2.750   3.148   6.301
11173TIP3    H233442   2.764   3.121   6.450
11174TIP3   OH233443   2.876   1.794   6.604
11174TIP3    H133444   2.874   1.886   6.636
11174TIP3    H233445   2.973   1.778   6.609
11175TIP3   OH233446   4.130   2.284   7.498
11175TIP3    H133447   4.032   2.284   7.506
11175TIP3    H233448   4.139   2.240   7.412
11176TIP3   OH233449   3.782   2.477   6.884
11176TIP3    H133450   3.704   2.419   6.895
11176TIP3    H233451   3.851   2.428   6.934
11177TIP3   OH233452   2.501   2.695   6.350
11177TIP3    H133453   2.572   2.762   6.362
11177TIP3    H233454   2.544   2.641   6.281
11178TIP3   OH233455   2.431   1.981   6.491
11178TIP3    H133456   2.444   2.077   6.489
11178TIP3    H233457   2.356   1.970   6.433
11179TIP3   OH233458   3.752   3.438   6.832
11179TIP3    H133459   3.708   3.485   6.757
11179TIP3    H233460   3.846   3.455   6.810
11180TIP3   OH233461   2.828   1.703   7.357
11180TIP3    H133462   2.797   1.671   7.270
11180TIP3    H233463   2.815   1.625   7.414
11181TIP3   OH233464   2.361   2.919   6.736
11181TIP3    H133465   2.298   2.951   6.803
11181TIP3    H233466   2.327   2.965   6.655
11182TIP3   OH233467   2.530   3.469   7.810
11182TIP3    H133468   2.617   3.468   7.856
11182TIP3    H233469   2.511   3.374   7.805
11183TIP3   OH233470   3.000   3.421   7.861
11183TIP3    H133471   3.095   3.408   7.861
11183TIP3    H233472   2.973   3.360   7.788
11184TIP3   OH233473   2.988   3.007   5.980
11184TIP3    H133474   2.935   2.933   6.018
11184TIP3    H233475   3.061   2.957   5.938
11185TIP3   OH233476   3.640   3.338   7.593
11185TIP3    H133477   3.635   3.267   7.661
11185TIP3    H233478   3.718   3.389   7.622
11186TIP3   OH233479   3.418   3.038   5.896
11186TIP3    H133480   3.459   2.974   5.957
11186TIP3    H233481   3.476   3.036   5.818
11187TIP3   OH233482   2.653   2.870   8.007
11187TIP3    H133483   2.673   2.775   8.012
11187TIP3    H233484   2.565   2.870   7.961
11188TIP3   OH233485   2.645   2.514   6.198
11188TIP3    H133486   2.700   2.487   6.274
11188TIP3    H233487   2.713   2.520   6.129
11189TIP3   OH233488   3.258   2.960   7.787
11189TIP3    H133489   3.217   2.981   7.700
11189TIP3    H233490   3.289   2.868   7.775
11190TIP3   OH233491   3.754   2.971   7.397
11190TIP3    H133492   3.829   3.013   7.351
11190TIP3    H233493   3.684   3.037   7.380
11191TIP3   OH233494   2.777   2.617   7.984
11191TIP3    H133495   2.829   2.535   7.984
11191TIP3    H233496   2.789   2.642   8.078
11192TIP3   OH233497   2.827   2.430   6.421
11192TIP3    H133498   2.811   2.381   6.503
11192TIP3    H233499   2.873   2.363   6.366
11193TIP3   OH233500   3.109   2.488   7.656
11193TIP3    H133501   3.031   2.548   7.657
11193TIP3    H233502   3.159   2.524   7.579
11194TIP3   OH233503   2.944   2.223   6.280
11194TIP3    H133504   2.919   2.218   6.185
11194TIP3    H233505   3.042   2.226   6.272
11195TIP3   OH233506   3.628   2.892   7.790
11195TIP3    H133507   3.700   2.856   7.738
11195TIP3    H233508   3.619   2.827   7.862
11196TIP3   OH233509   3.764   2.548   5.933
11196TIP3    H133510   3.742   2.505   5.848
11196TIP3    H233511   3.729   2.638   5.914
11197TIP3   OH233512   3.235   2.279   7.777
11197TIP3    H133513   3.233   2.201   7.718
11197TIP3    H233514   3.189   2.347   7.723
11198TIP3   OH233515   3.236   2.063   7.589
11198TIP3    H133516   3.263   2.107   7.506
11198TIP3    H233517   3.142   2.042   7.570
11199TIP3   OH233518   3.258   2.600   7.463
11199TIP3    H133519   3.343   2.617   7.421
11199TIP3    H233520   3.200   2.664   7.417
11200TIP3   OH233521   3.839   2.566   7.839
11200TIP3    H133522   3.887   2.485   7.860
11200TIP3    H233523   3.908   2.620   7.798
11201TIP3   OH233524   3.882   2.821   7.581
11201TIP3    H133525   3.825   2.876   7.523
11201TIP3    H233526   3.970   2.842   7.542
11202TIP3   OH233527   3.120   2.384   8.016
11202TIP3    H133528   3.038   2.333   8.031
11202TIP3    H233529   3.147   2.353   7.927
11203TIP3   OH233530   3.366   1.827   7.662
11203TIP3    H133531   3.317   1.909   7.637
11203TIP3    H233532   3.297   1.759   7.649
11204TIP3   OH233533   3.492   2.328   7.874
11204TIP3    H133534   3.474   2.313   7.969
11204TIP3    H233535   3.404   2.306   7.839
11205TIP3   OH233536   3.729   2.279   7.730
11205TIP3    H133537   3.655   2.281   7.793
11205TIP3    H233538   3.804   2.250   7.786
11206TIP3   OH233539   3.965   2.223   7.874
11206TIP3    H133540   3.975   2.127   7.892
11206TIP3    H233541   3.955   2.261   7.964
11207TIP3   OH233542   2.946   2.164   8.046
11207TIP3    H133543   2.962   2.071   8.021
11207TIP3    H233544   2.991   2.166   8.134
11208TIP3   OH233545   3.454   1.833   7.920
11208TIP3    H133546   3.525   1.767   7.912
11208TIP3    H233547   3.418   1.832   7.829
11209TIP3   OH233548   3.531   2.054   8.072
11209TIP3    H133549   3.505   1.984   8.009
11209TIP3    H233550   3.453   2.113   8.070
11210TIP3   OH233551   2.751   3.283   6.178
11210TIP3    H133552   2.845   3.273   6.157
11210TIP3    H233553   2.722   3.333   6.099
11211TIP3   OH233554   2.230   2.663   6.390
11211TIP3    H133555   2.325   2.683   6.374
11211TIP3    H233556   2.222   2.575   6.348
11212TIP3   OH233557   2.145   3.274   6.808
11212TIP3    H133558   2.079   3.214   6.767
11212TIP3    H233559   2.189   3.213   6.871
11213TIP3   OH233560   2.279   3.118   6.992
11213TIP3    H133561   2.265   3.050   7.060
11213TIP3    H233562   2.332   3.182   7.042
11214TIP3   OH233563   4.011   3.518   6.795
11214TIP3    H133564   4.034   3.554   6.882
11214TIP3    H233565   4.070   3.567   6.735
11215TIP3   OH233566   4.034   3.545   7.077
11215TIP3    H133567   3.988   3.459   7.071
11215TIP3    H233568   4.108   3.519   7.134
11216TIP3   OH233569   4.083   3.222   7.649
11216TIP3    H133570   4.010   3.232   7.714
11216TIP3    H233571   4.124   3.310   7.652
11217TIP3   OH233572   3.901   2.732   6.266
11217TIP3    H133573   3.966   2.800   6.236
11217TIP3    H233574   3.947   2.696   6.345
11218TIP3   OH233575   4.029   2.599   6.471
11218TIP3    H133576   3.959   2.559   6.527
11218TIP3    H233577   4.089   2.639   6.537
11219TIP3   OH233578   4.086   2.999   6.905
11219TIP3    H133579   4.134   2.930   6.856
11219TIP3    H233580   4.080   3.071   6.839
11220TIP3   OH233581   3.909   3.296   7.097
11220TIP3    H133582   3.836   3.338   7.146
11220TIP3    H233583   3.860   3.251   7.024
11221TIP3   OH233584   3.963   2.510   6.115
11221TIP3    H133585   3.892   2.513   6.046
11221TIP3    H233586   3.934   2.586   6.170
11222TIP3   OH233587   3.842   2.178   6.064
11222TIP3    H133588   3.782   2.222   6.002
11222TIP3    H233589   3.817   2.084   6.050
11223TIP3   OH233590   3.838   2.462   6.615
11223TIP3    H133591   3.843   2.366   6.605
11223TIP3    H233592   3.823   2.473   6.711
11224TIP3   OH233593   2.463   2.529   7.366
11224TIP3    H133594   2.459   2.497   7.274
11224TIP3    H233595   2.560   2.531   7.381
11225TIP3   OH233596   4.129   2.886   7.475
11225TIP3    H133597   4.200   2.819   7.462
11225TIP3    H233598   4.150   2.952   7.408
11226TIP3   OH233599   4.311   2.684   7.478
11226TIP3    H133600   4.236   2.637   7.520
11226TIP3    H233601   4.384   2.621   7.498
11227TIP3   OH233602   3.779   1.911   6.045
11227TIP3    H133603   3.844   1.882   6.112
11227TIP3    H233604   3.698   1.861   6.068
11228TIP3   OH233605   3.840   2.181   6.510
11228TIP3    H133606   3.880   2.092   6.523
11228TIP3    H233607   3.895   2.213   6.436
11229TIP3   OH233608   3.994   2.343   7.007
11229TIP3    H133609   4.079   2.368   6.964
11229TIP3    H233610   4.009   2.383   7.095
11230TIP3   OH233611   4.068   2.494   7.234
11230TIP3    H133612   3.990   2.528   7.284
11230TIP3    H233613   4.100   2.576   7.190
11231TIP3   OH233614   2.680   2.216   8.009
11231TIP3    H133615   2.777   2.226   8.024
11231TIP3    H233616   2.663   2.138   8.066
11232TIP3   OH233617   4.519   2.089   7.791
11232TIP3    H133618   4.579   2.024   7.748
11232TIP3    H233619   4.487   2.140   7.714
11233TIP3   OH233620   3.947   1.928   6.546
11233TIP3    H133621   3.992   1.910   6.631
11233TIP3    H233622   3.883   1.853   6.544
11234TIP3   OH233623   2.644   1.913   7.372
11234TIP3    H133624   2.706   1.838   7.377
11234TIP3    H233625   2.705   1.988   7.360
11235TIP3   OH233626   2.444   2.183   7.441
11235TIP3    H133627   2.494   2.181   7.357
11235TIP3    H233628   2.467   2.271   7.474
11236TIP3   OH233629   4.384   2.221   7.596
11236TIP3    H133630   4.299   2.266   7.614
11236TIP3    H233631   4.352   2.149   7.538
11237TIP3   OH233632   4.022   1.856   6.187
11237TIP3    H133633   4.060   1.789   6.126
11237TIP3    H233634   4.086   1.930   6.181
11238TIP3   OH233635   2.430   1.682   6.939
11238TIP3    H133636   2.339   1.681   6.970
11238TIP3    H233637   2.425   1.744   6.863
11239TIP3   OH233638   3.592   3.393   6.450
11239TIP3    H133639   3.641   3.382   6.366
11239TIP3    H233640   3.643   3.463   6.493
11240TIP3   OH233641   2.649   1.759   7.749
11240TIP3    H133642   2.597   1.760   7.831
11240TIP3    H233643   2.587   1.804   7.688
11241TIP3   OH233644   2.688   3.200   7.832
11241TIP3    H133645   2.596   3.174   7.812
11241TIP3    H233646   2.692   3.181   7.927
11242TIP3   OH233647   2.872   3.235   7.382
11242TIP3    H133648   2.823   3.310   7.342
11242TIP3    H233649   2.957   3.247   7.335
11243TIP3   OH233650   3.308   3.472   7.517
11243TIP3    H133651   3.351   3.473   7.606
11243TIP3    H233652   3.373   3.525   7.466
11244TIP3   OH233653   3.487   3.628   7.381
11244TIP3    H133654   3.557   3.579   7.335
11244TIP3    H233655   3.542   3.685   7.441
11245TIP3   OH233656   4.286   1.985   7.476
11245TIP3    H133657   4.197   1.976   7.440
11245TIP3    H233658   4.320   1.893   7.467
11246TIP3   OH233659   2.544   3.485   7.409
11246TIP3    H133660   2.453   3.513   7.385
11246TIP3    H233661   2.559   3.543   7.485
11247TIP3   OH233662   2.780   3.466   7.265
11247TIP3    H133663   2.692   3.477   7.307
11247TIP3    H233664   2.762   3.498   7.174
11248TIP3   OH233665   3.205   3.490   7.063
11248TIP3    H133666   3.136   3.507   6.996
11248TIP3    H233667   3.216   3.579   7.102
11249TIP3   OH233668   3.475   3.431   7.116
11249TIP3    H133669   3.381   3.448   7.096
11249TIP3    H233670   3.518   3.502   7.067
11250TIP3   OH233671   3.682   3.622   7.025
11250TIP3    H133672   3.667   3.707   6.977
11250TIP3    H233673   3.707   3.562   6.952
11251TIP3   OH233674   2.454   3.278   7.147
11251TIP3    H133675   2.480   3.250   7.237
11251TIP3    H233676   2.527   3.237   7.096
11252TIP3   OH233677   2.651   3.153   7.010
11252TIP3    H133678   2.667   3.068   7.058
11252TIP3    H233679   2.742   3.188   7.004
11253TIP3   OH233680   2.918   3.244   7.013
11253TIP3    H133681   2.948   3.152   7.000
11253TIP3    H233682   2.967   3.266   7.095
11254TIP3   OH233683   3.497   1.904   7.105
11254TIP3    H133684   3.451   1.831   7.151
11254TIP3    H233685   3.568   1.857   7.056
11255TIP3   OH233686   4.010   1.781   6.999
11255TIP3    H133687   4.046   1.834   6.925
11255TIP3    H233688   3.915   1.803   6.995
11256TIP3   OH233689   4.108   1.878   6.764
11256TIP3    H133690   4.183   1.828   6.726
11256TIP3    H233691   4.141   1.970   6.750
11257TIP3   OH233692   2.739   1.609   7.110
11257TIP3    H133693   2.646   1.578   7.114
11257TIP3    H233694   2.787   1.523   7.106
11258TIP3   OH233695   2.532   1.481   6.762
11258TIP3    H133696   2.560   1.538   6.688
11258TIP3    H233697   2.502   1.547   6.827
11259TIP3   OH233698   3.190   1.638   6.995
11259TIP3    H133699   3.241   1.687   6.928
11259TIP3    H233700   3.214   1.684   7.076
11260TIP3   OH233701   3.726   1.791   6.976
11260TIP3    H133702   3.726   1.752   6.888
11260TIP3    H233703   3.716   1.710   7.033
11261TIP3   OH233704   3.761   1.717   6.540
11261TIP3    H133705   3.677   1.764   6.557
11261TIP3    H233706   3.743   1.631   6.583
11262TIP3   OH233707   2.241   3.059   6.538
11262TIP3    H133708   2.155   3.026   6.506
11262TIP3    H233709   2.235   3.151   6.507
11263TIP3   OH233710   2.647   1.635   6.526
11263TIP3    H133711   2.696   1.576   6.465
11263TIP3    H233712   2.719   1.692   6.560
11264TIP3   OH233713   3.153   1.816   6.623
11264TIP3    H133714   3.216   1.772   6.681
11264TIP3    H233715   3.173   1.910   6.645
11265TIP3   OH233716   3.017   3.237   6.124
11265TIP3    H133717   3.104   3.261   6.086
11265TIP3    H233718   2.994   3.163   6.062
11266TIP3   OH233719   3.738   3.360   6.217
11266TIP3    H133720   3.731   3.262   6.206
11266TIP3    H233721   3.690   3.391   6.138
11267TIP3   OH233722   2.947   1.877   7.990
11267TIP3    H133723   2.922   1.845   8.078
11267TIP3    H233724   3.045   1.868   7.997
11268TIP3   OH233725   3.210   1.855   8.051
11268TIP3    H133726   3.299   1.847   8.011
11268TIP3    H233727   3.232   1.871   8.145
11269TIP3   OH233728   2.318   3.071   6.175
11269TIP3    H133729   2.326   3.096   6.268
11269TIP3    H233730   2.406   3.028   6.158
11270TIP3   OH233731   4.023   1.952   7.905
11270TIP3    H133732   4.039   1.923   7.997
11270TIP3    H233733   4.114   1.947   7.867
11271TIP3   OH233734   3.958   3.501   7.402
11271TIP3    H133735   3.880   3.471   7.350
11271TIP3    H233736   3.939   3.597   7.408
11272TIP3   OH233737   5.227   2.876   6.164
11272TIP3    H133738   5.197   2.967   6.143
11272TIP3    H233739   5.150   2.826   6.133
11273TIP3   OH233740   5.230   2.877   6.555
11273TIP3    H133741   5.265   2.851   6.642
11273TIP3    H233742   5.186   2.795   6.526
11274TIP3   OH233743   4.525   2.766   6.914
11274TIP3    H133744   4.554   2.697   6.976
11274TIP3    H233745   4.603   2.823   6.910
11275TIP3   OH233746   5.473   3.177   6.235
11275TIP3    H133747   5.457   3.112   6.303
11275TIP3    H233748   5.505   3.254   6.286
11276TIP3   OH233749   4.502   3.183   6.637
11276TIP3    H133750   4.492   3.085   6.638
11276TIP3    H233751   4.599   3.191   6.627
11277TIP3   OH233752   4.205   2.381   6.418
11277TIP3    H133753   4.156   2.463   6.439
11277TIP3    H233754   4.135   2.330   6.373
11278TIP3   OH233755   4.263   2.671   6.604
11278TIP3    H133756   4.313   2.593   6.634
11278TIP3    H233757   4.318   2.704   6.532
11279TIP3   OH233758   5.126   3.641   6.251
11279TIP3    H133759   5.166   3.570   6.195
11279TIP3    H233760   5.110   3.594   6.333
11280TIP3   OH233761   5.024   3.103   6.597
11280TIP3    H133762   5.064   3.026   6.553
11280TIP3    H233763   5.107   3.150   6.622
11281TIP3   OH233764   6.040   2.421   6.595
11281TIP3    H133765   6.071   2.503   6.638
11281TIP3    H233766   6.067   2.437   6.503
11282TIP3   OH233767   5.438   2.602   6.626
11282TIP3    H133768   5.480   2.517   6.649
11282TIP3    H233769   5.406   2.583   6.536
11283TIP3   OH233770   4.782   2.261   6.591
11283TIP3    H133771   4.759   2.334   6.529
11283TIP3    H233772   4.731   2.188   6.549
11284TIP3   OH233773   5.475   2.351   6.214
11284TIP3    H133774   5.545   2.340   6.282
11284TIP3    H233775   5.529   2.389   6.141
11285TIP3   OH233776   4.410   2.462   6.702
11285TIP3    H133777   4.493   2.443   6.750
11285TIP3    H233778   4.423   2.407   6.622
11286TIP3   OH233779   4.849   2.660   6.498
11286TIP3    H133780   4.943   2.636   6.510
11286TIP3    H233781   4.810   2.577   6.465
11287TIP3   OH233782   6.114   2.629   6.766
11287TIP3    H133783   6.029   2.675   6.748
11287TIP3    H233784   6.135   2.663   6.854
11288TIP3   OH233785   4.773   2.245   7.029
11288TIP3    H133786   4.714   2.282   6.961
11288TIP3    H233787   4.719   2.262   7.109
11289TIP3   OH233788   5.112   3.093   6.035
11289TIP3    H133789   5.074   3.085   5.946
11289TIP3    H233790   5.069   3.177   6.065
11290TIP3   OH233791   4.880   3.022   6.818
11290TIP3    H133792   4.819   3.091   6.854
11290TIP3    H233793   4.921   3.069   6.743
11291TIP3   OH233794   5.674   2.360   6.397
11291TIP3    H133795   5.652   2.326   6.485
11291TIP3    H233796   5.728   2.438   6.419
11292TIP3   OH233797   4.647   2.360   6.811
11292TIP3    H133798   4.708   2.432   6.835
11292TIP3    H233799   4.697   2.320   6.736
11293TIP3   OH233800   4.711   3.219   6.921
11293TIP3    H133801   4.684   3.306   6.884
11293TIP3    H233802   4.631   3.200   6.975
11294TIP3   OH233803   4.099   2.907   6.156
11294TIP3    H133804   4.056   2.933   6.072
11294TIP3    H233805   4.129   2.994   6.190
11295TIP3   OH233806   5.539   3.424   6.395
11295TIP3    H133807   5.449   3.415   6.434
11295TIP3    H233808   5.531   3.510   6.349
11296TIP3   OH233809   5.835   2.316   6.759
11296TIP3    H133810   5.749   2.349   6.728
11296TIP3    H233811   5.897   2.351   6.691
11297TIP3   OH233812   5.124   1.960   6.747
11297TIP3    H133813   5.108   1.866   6.766
11297TIP3    H233814   5.048   2.001   6.793
11298TIP3   OH233815   5.238   3.467   6.066
11298TIP3    H133816   5.288   3.384   6.048
11298TIP3    H233817   5.301   3.532   6.028
11299TIP3   OH233818   5.381   3.251   5.984
11299TIP3    H133819   5.350   3.170   5.942
11299TIP3    H233820   5.421   3.216   6.068
11300TIP3   OH233821   5.763   3.333   6.741
11300TIP3    H133822   5.753   3.256   6.681
11300TIP3    H233823   5.748   3.408   6.680
11301TIP3   OH233824   5.057   2.725   6.001
11301TIP3    H133825   4.977   2.779   5.986
11301TIP3    H233826   5.101   2.731   5.914
11302TIP3   OH233827   5.016   2.515   5.709
11302TIP3    H133828   5.083   2.567   5.758
11302TIP3    H233829   5.073   2.451   5.663
11303TIP3   OH233830   5.960   2.972   6.588
11303TIP3    H133831   5.876   3.024   6.591
11303TIP3    H233832   5.991   2.996   6.498
11304TIP3   OH233833   5.405   2.807   5.969
11304TIP3    H133834   5.351   2.834   6.047
11304TIP3    H233835   5.490   2.787   6.012
11305TIP3   OH233836   5.639   2.845   6.889
11305TIP3    H133837   5.638   2.928   6.940
11305TIP3    H233838   5.554   2.851   6.842
11306TIP3   OH233839   4.637   2.805   6.388
11306TIP3    H133840   4.596   2.747   6.319
11306TIP3    H233841   4.713   2.751   6.417
11307TIP3   OH233842   4.767   3.219   6.533
11307TIP3    H133843   4.746   3.188   6.444
11307TIP3    H233844   4.856   3.180   6.548
11308TIP3   OH233845   4.777   2.776   6.744
11308TIP3    H133846   4.806   2.753   6.653
11308TIP3    H233847   4.817   2.864   6.758
11309TIP3   OH233848   5.299   3.418   6.519
11309TIP3    H133849   5.286   3.497   6.574
11309TIP3    H233850   5.283   3.344   6.581
11310TIP3   OH233851   4.912   3.334   7.067
11310TIP3    H133852   4.849   3.395   7.111
11310TIP3    H233853   4.849   3.281   7.014
11311TIP3   OH233854   5.251   2.655   5.798
11311TIP3    H133855   5.306   2.720   5.849
11311TIP3    H233856   5.275   2.680   5.706
11312TIP3   OH233857   4.668   2.887   7.172
11312TIP3    H133858   4.672   2.977   7.212
11312TIP3    H233859   4.573   2.867   7.185
11313TIP3   OH233860   4.993   3.343   6.074
11313TIP3    H133861   5.075   3.396   6.078
11313TIP3    H233862   4.932   3.402   6.027
11314TIP3   OH233863   4.707   3.499   7.154
11314TIP3    H133864   4.672   3.504   7.063
11314TIP3    H233865   4.626   3.477   7.206
11315TIP3   OH233866   5.760   1.910   5.845
11315TIP3    H133867   5.680   1.934   5.896
11315TIP3    H233868   5.776   1.993   5.795
11316TIP3   OH233869   4.506   2.649   6.187
11316TIP3    H133870   4.436   2.696   6.136
11316TIP3    H233871   4.463   2.564   6.203
11317TIP3   OH233872   5.564   3.272   5.397
11317TIP3    H133873   5.574   3.368   5.378
11317TIP3    H233874   5.657   3.241   5.386
11318TIP3   OH233875   4.285   3.035   7.100
11318TIP3    H133876   4.216   3.018   7.033
11318TIP3    H233877   4.321   2.946   7.117
11319TIP3   OH233878   4.138   3.227   6.733
11319TIP3    H133879   4.235   3.228   6.725
11319TIP3    H233880   4.122   3.307   6.784
11320TIP3   OH233881   6.006   3.680   6.790
11320TIP3    H133882   6.004   3.584   6.806
11320TIP3    H233883   5.920   3.706   6.830
11321TIP3   OH233884   5.113   3.461   6.933
11321TIP3    H133885   5.101   3.555   6.958
11321TIP3    H233886   5.037   3.420   6.980
11322TIP3   OH233887   4.876   3.590   5.876
11322TIP3    H133888   4.827   3.572   5.794
11322TIP3    H233889   4.840   3.676   5.904
11323TIP3   OH233890   4.310   3.440   6.260
11323TIP3    H133891   4.354   3.430   6.347
11323TIP3    H233892   4.256   3.358   6.257
11324TIP3   OH233893   5.072   3.495   5.512
11324TIP3    H133894   5.130   3.425   5.476
11324TIP3    H233895   5.108   3.506   5.603
11325TIP3   OH233896   5.125   3.544   5.781
11325TIP3    H133897   5.037   3.554   5.822
11325TIP3    H233898   5.176   3.506   5.854
11326TIP3   OH233899   5.891   2.808   7.065
11326TIP3    H133900   5.808   2.815   7.016
11326TIP3    H233901   5.909   2.711   7.058
11327TIP3   OH233902   4.490   3.216   7.083
11327TIP3    H133903   4.538   3.200   7.167
11327TIP3    H233904   4.415   3.154   7.090
11328TIP3   OH233905   4.888   2.040   6.875
11328TIP3    H133906   4.800   2.010   6.845
11328TIP3    H233907   4.861   2.120   6.925
11329TIP3   OH233908   5.426   2.152   7.068
11329TIP3    H133909   5.496   2.126   7.132
11329TIP3    H233910   5.343   2.134   7.118
11330TIP3   OH233911   5.656   2.582   6.984
11330TIP3    H133912   5.608   2.580   7.070
11330TIP3    H233913   5.636   2.671   6.950
11331TIP3   OH233914   5.320   2.698   5.540
11331TIP3    H133915   5.285   2.685   5.450
11331TIP3    H233916   5.401   2.749   5.520
11332TIP3   OH233917   5.064   2.072   5.846
11332TIP3    H133918   5.023   2.081   5.934
11332TIP3    H233919   5.004   2.003   5.809
11333TIP3   OH233920   4.823   2.555   6.893
11333TIP3    H133921   4.770   2.575   6.974
11333TIP3    H233922   4.807   2.637   6.840
11334TIP3   OH233923   4.705   2.442   6.405
11334TIP3    H133924   4.612   2.417   6.424
11334TIP3    H233925   4.715   2.401   6.316
11335TIP3   OH233926   5.196   2.527   6.133
11335TIP3    H133927   5.143   2.600   6.093
11335TIP3    H233928   5.248   2.496   6.058
11336TIP3   OH233929   5.369   2.803   7.218
11336TIP3    H133930   5.347   2.730   7.280
11336TIP3    H233931   5.463   2.816   7.240
11337TIP3   OH233932   5.351   2.552   6.371
11337TIP3    H133933   5.288   2.582   6.302
11337TIP3    H233934   5.385   2.473   6.325
11338TIP3   OH233935   4.642   2.583   7.099
11338TIP3    H133936   4.665   2.648   7.167
11338TIP3    H233937   4.629   2.501   7.151
11339TIP3   OH233938   4.695   2.063   5.813
11339TIP3    H133939   4.680   2.062   5.909
11339TIP3    H233940   4.616   2.114   5.783
11340TIP3   OH233941   4.233   2.101   6.683
11340TIP3    H133942   4.308   2.136   6.737
11340TIP3    H233943   4.274   2.076   6.600
11341TIP3   OH233944   4.197   2.086   6.199
11341TIP3    H133945   4.241   2.124   6.120
11341TIP3    H233946   4.135   2.159   6.219
11342TIP3   OH233947   5.360   2.799   6.792
11342TIP3    H133948   5.395   2.728   6.733
11342TIP3    H233949   5.331   2.744   6.868
11343TIP3   OH233950   5.037   2.257   6.464
11343TIP3    H133951   4.955   2.260   6.517
11343TIP3    H233952   5.106   2.256   6.533
11344TIP3   OH233953   4.466   2.323   6.472
11344TIP3    H133954   4.372   2.332   6.444
11344TIP3    H233955   4.486   2.230   6.450
11345TIP3   OH233956   4.731   2.313   6.165
11345TIP3    H133957   4.824   2.333   6.140
11345TIP3    H233958   4.681   2.336   6.083
11346TIP3   OH233959   5.523   2.340   6.666
11346TIP3    H133960   5.496   2.353   6.760
11346TIP3    H233961   5.452   2.280   6.636
11347TIP3   OH233962   4.585   2.348   5.941
11347TIP3    H133963   4.512   2.303   5.893
11347TIP3    H233964   4.634   2.387   5.866
11348TIP3   OH233965   5.695   4.030   6.895
11348TIP3    H133966   5.694   4.049   6.799
11348TIP3    H233967   5.779   4.074   6.921
11349TIP3   OH233968   4.653   3.139   7.308
11349TIP3    H133969   4.731   3.168   7.358
11349TIP3    H233970   4.586   3.136   7.379
11350TIP3   OH233971   5.113   2.592   6.565
11350TIP3    H133972   5.190   2.555   6.520
11350TIP3    H233973   5.116   2.550   6.652
11351TIP3   OH233974   4.633   2.078   6.449
11351TIP3    H133975   4.595   2.002   6.499
11351TIP3    H233976   4.671   2.033   6.372
11352TIP3   OH233977   5.091   2.496   6.848
11352TIP3    H133978   5.000   2.528   6.866
11352TIP3    H233979   5.147   2.555   6.902
11353TIP3   OH233980   4.830   2.876   5.951
11353TIP3    H133981   4.756   2.813   5.937
11353TIP3    H233982   4.807   2.912   6.040
11354TIP3   OH233983   5.725   3.117   6.573
11354TIP3    H133984   5.751   3.167   6.493
11354TIP3    H233985   5.641   3.074   6.545
11355TIP3   OH233986   5.282   2.192   5.731
11355TIP3    H133987   5.202   2.157   5.777
11355TIP3    H233988   5.308   2.263   5.794
11356TIP3   OH233989   5.232   3.200   6.945
11356TIP3    H133990   5.249   3.172   7.036
11356TIP3    H233991   5.186   3.285   6.956
11357TIP3   OH233992   5.356   2.414   5.900
11357TIP3    H133993   5.448   2.431   5.928
11357TIP3    H233994   5.331   2.501   5.862
11358TIP3   OH233995   4.524   2.907   6.622
11358TIP3    H133996   4.560   2.875   6.537
11358TIP3    H233997   4.562   2.843   6.685
11359TIP3   OH233998   4.973   3.029   5.774
11359TIP3    H133999   4.925   3.114   5.775
11359TIP3    H234000   4.918   2.975   5.835
11360TIP3   OH234001   4.405   2.818   7.236
11360TIP3    H134002   4.416   2.803   7.332
11360TIP3    H234003   4.332   2.757   7.215
11361TIP3   OH234004   5.130   2.942   7.255
11361TIP3    H134005   5.067   2.881   7.215
11361TIP3    H234006   5.215   2.902   7.227
11362TIP3   OH234007   5.382   3.455   6.838
11362TIP3    H134008   5.285   3.451   6.854
11362TIP3    H234009   5.415   3.495   6.919
11363TIP3   OH234010   5.788   2.533   5.752
11363TIP3    H134011   5.729   2.486   5.688
11363TIP3    H234012   5.785   2.622   5.710
11364TIP3   OH234013   6.015   3.390   6.829
11364TIP3    H134014   5.918   3.384   6.821
11364TIP3    H234015   6.041   3.360   6.739
11365TIP3   OH234016   5.498   3.351   5.659
11365TIP3    H134017   5.472   3.278   5.717
11365TIP3    H234018   5.515   3.306   5.574
11366TIP3   OH234019   5.491   2.980   6.490
11366TIP3    H134020   5.398   2.954   6.504
11366TIP3    H234021   5.526   2.900   6.446
11367TIP3   OH234022   4.624   3.209   6.252
11367TIP3    H134023   4.619   3.290   6.196
11367TIP3    H234024   4.530   3.189   6.262
11368TIP3   OH234025   4.190   2.509   5.959
11368TIP3    H134026   4.231   2.596   5.979
11368TIP3    H234027   4.110   2.513   6.017
11369TIP3   OH234028   4.751   2.970   6.191
11369TIP3    H134029   4.720   3.061   6.210
11369TIP3    H234030   4.715   2.921   6.267
11370TIP3   OH234031   4.891   3.551   6.715
11370TIP3    H134032   4.931   3.624   6.663
11370TIP3    H234033   4.970   3.512   6.755
11371TIP3   OH234034   4.541   3.444   6.102
11371TIP3    H134035   4.455   3.454   6.147
11371TIP3    H234036   4.574   3.536   6.104
11372TIP3   OH234037   5.277   3.185   6.676
11372TIP3    H134038   5.269   3.183   6.775
11372TIP3    H234039   5.353   3.127   6.662
11373TIP3   OH234040   5.257   3.077   5.562
11373TIP3    H134041   5.309   3.053   5.642
11373TIP3    H234042   5.167   3.053   5.589
11374TIP3   OH234043   5.518   3.718   6.729
11374TIP3    H134044   5.438   3.665   6.715
11374TIP3    H234045   5.511   3.782   6.654
11375TIP3   OH234046   5.590   3.547   5.378
11375TIP3    H134047   5.625   3.618   5.321
11375TIP3    H234048   5.511   3.593   5.414
11376TIP3   OH234049   4.609   2.328   7.241
11376TIP3    H134050   4.512   2.330   7.253
11376TIP3    H234051   4.636   2.272   7.316
11377TIP3   OH234052   5.417   3.009   5.777
11377TIP3    H134053   5.409   2.943   5.848
11377TIP3    H234054   5.515   3.007   5.763
11378TIP3   OH234055   4.331   3.411   6.873
11378TIP3    H134056   4.384   3.339   6.912
11378TIP3    H234057   4.354   3.485   6.930
11379TIP3   OH234058   4.621   3.056   5.560
11379TIP3    H134059   4.630   2.962   5.534
11379TIP3    H234060   4.598   3.048   5.655
11380TIP3   OH234061   4.563   3.063   5.831
11380TIP3    H134062   4.635   3.039   5.890
11380TIP3    H234063   4.564   3.161   5.838
11381TIP3   OH234064   4.297   2.756   6.038
11381TIP3    H134065   4.229   2.801   6.093
11381TIP3    H234066   4.307   2.823   5.968
11382TIP3   OH234067   5.455   2.387   6.926
11382TIP3    H134068   5.533   2.430   6.966
11382TIP3    H234069   5.443   2.308   6.983
11383TIP3   OH234070   5.340   2.143   6.097
11383TIP3    H134071   5.306   2.189   6.020
11383TIP3    H234072   5.385   2.218   6.144
11384TIP3   OH234073   4.832   3.259   5.781
11384TIP3    H134074   4.745   3.282   5.817
11384TIP3    H234075   4.846   3.334   5.720
11385TIP3   OH234076   5.019   2.323   6.195
11385TIP3    H134077   5.080   2.399   6.181
11385TIP3    H234078   5.022   2.314   6.293
11386TIP3   OH234079   5.290   2.638   7.001
11386TIP3    H134080   5.313   2.691   7.080
11386TIP3    H234081   5.342   2.557   7.013
11387TIP3   OH234082   5.160   2.044   6.296
11387TIP3    H134083   5.148   2.122   6.354
11387TIP3    H234084   5.223   2.080   6.230
11388TIP3   OH234085   4.578   3.334   5.851
11388TIP3    H134086   4.548   3.404   5.788
11388TIP3    H234087   4.560   3.377   5.937
11389TIP3   OH234088   4.674   2.049   6.088
11389TIP3    H134089   4.670   2.139   6.125
11389TIP3    H234090   4.771   2.034   6.094
11390TIP3   OH234091   5.924   2.542   6.986
11390TIP3    H134092   5.826   2.539   6.991
11390TIP3    H234093   5.939   2.498   6.902
11391TIP3   OH234094   5.578   2.735   6.372
11391TIP3    H134095   5.502   2.676   6.386
11391TIP3    H234096   5.650   2.689   6.421
11392TIP3   OH234097   4.292   2.957   5.841
11392TIP3    H134098   4.360   3.028   5.847
11392TIP3    H234099   4.336   2.901   5.773
11393TIP3   OH234100   4.232   2.238   5.974
11393TIP3    H134101   4.235   2.336   5.974
11393TIP3    H234102   4.148   2.222   5.930
11394TIP3   OH234103   5.548   3.695   6.319
11394TIP3    H134104   5.505   3.742   6.244
11394TIP3    H234105   5.642   3.713   6.298
11395TIP3   OH234106   4.625   1.959   6.844
11395TIP3    H134107   4.593   1.924   6.757
11395TIP3    H234108   4.614   1.881   6.902
11396TIP3   OH234109   4.157   3.177   6.223
11396TIP3    H134110   4.095   3.207   6.291
11396TIP3    H234111   4.120   3.222   6.143
11397TIP3   OH234112   4.322   3.728   7.299
11397TIP3    H134113   4.408   3.727   7.346
11397TIP3    H234114   4.301   3.633   7.297
11398TIP3   OH234115   4.796   3.679   7.346
11398TIP3    H134116   4.890   3.659   7.350
11398TIP3    H234117   4.768   3.619   7.273
11399TIP3   OH234118   4.782   3.260   5.468
11399TIP3    H134119   4.728   3.186   5.506
11399TIP3    H234120   4.857   3.210   5.431
11400TIP3   OH234121   5.216   3.297   5.385
11400TIP3    H134122   5.261   3.234   5.444
11400TIP3    H234123   5.270   3.294   5.304
11401TIP3   OH234124   4.450   3.129   7.498
11401TIP3    H134125   4.465   3.033   7.506
11401TIP3    H234126   4.363   3.132   7.453
11402TIP3   OH234127   4.429   2.774   5.695
11402TIP3    H134128   4.487   2.747   5.769
11402TIP3    H234129   4.495   2.779   5.623
11403TIP3   OH234130   5.058   3.218   7.272
11403TIP3    H134131   5.012   3.236   7.188
11403TIP3    H234132   5.087   3.125   7.262
11404TIP3   OH234133   4.949   2.977   5.504
11404TIP3    H134134   4.946   2.989   5.601
11404TIP3    H234135   4.943   2.879   5.497
11405TIP3   OH234136   5.551   3.226   6.883
11405TIP3    H134137   5.627   3.268   6.837
11405TIP3    H234138   5.478   3.286   6.857
11406TIP3   OH234139   4.571   2.867   7.485
11406TIP3    H134140   4.648   2.815   7.457
11406TIP3    H234141   4.600   2.898   7.573
11407TIP3   OH234142   4.634   2.684   5.914
11407TIP3    H134143   4.603   2.645   5.998
11407TIP3    H234144   4.669   2.606   5.866
11408TIP3   OH234145   4.908   2.749   7.146
11408TIP3    H134146   4.827   2.805   7.146
11408TIP3    H234147   4.957   2.783   7.068
11409TIP3   OH234148   4.737   2.478   5.754
11409TIP3    H134149   4.711   2.485   5.660
11409TIP3    H234150   4.835   2.483   5.745
11410TIP3   OH234151   5.429   3.161   7.271
11410TIP3    H134152   5.503   3.118   7.225
11410TIP3    H234153   5.415   3.099   7.344
11411TIP3   OH234154   5.551   2.800   5.426
11411TIP3    H134155   5.534   2.762   5.337
11411TIP3    H234156   5.523   2.893   5.407
11412TIP3   OH234157   5.028   2.537   7.268
11412TIP3    H134158   5.029   2.458   7.209
11412TIP3    H234159   4.985   2.604   7.211
11413TIP3   OH234160   5.031   2.323   7.076
11413TIP3    H134161   5.059   2.363   6.992
11413TIP3    H234162   4.938   2.300   7.058
11414TIP3   OH234163   5.055   2.858   6.950
11414TIP3    H134164   5.139   2.869   6.905
11414TIP3    H234165   4.997   2.921   6.902
11415TIP3   OH234166   5.634   2.820   7.326
11415TIP3    H134167   5.680   2.738   7.349
11415TIP3    H234168   5.706   2.874   7.291
11416TIP3   OH234169   5.680   3.076   7.065
11416TIP3    H134170   5.623   3.132   7.007
11416TIP3    H234171   5.768   3.096   7.027
11417TIP3   OH234172   4.907   2.641   7.502
11417TIP3    H134173   4.839   2.572   7.519
11417TIP3    H234174   4.940   2.615   7.414
11418TIP3   OH234175   5.162   2.083   7.146
11418TIP3    H134176   5.112   2.165   7.124
11418TIP3    H234177   5.093   2.014   7.136
11419TIP3   OH234178   5.288   2.586   7.361
11419TIP3    H134179   5.275   2.570   7.456
11419TIP3    H234180   5.198   2.563   7.329
11420TIP3   OH234181   5.525   2.536   7.215
11420TIP3    H134182   5.452   2.538   7.280
11420TIP3    H234183   5.601   2.508   7.270
11421TIP3   OH234184   5.754   2.479   7.363
11421TIP3    H134185   5.769   2.384   7.379
11421TIP3    H234186   5.751   2.516   7.454
11422TIP3   OH234187   4.745   2.421   7.558
11422TIP3    H134188   4.749   2.329   7.525
11422TIP3    H234189   4.784   2.409   7.647
11423TIP3   OH234190   5.254   2.094   7.405
11423TIP3    H134191   5.321   2.023   7.400
11423TIP3    H234192   5.215   2.089   7.316
11424TIP3   OH234193   5.323   2.309   7.562
11424TIP3    H134194   5.302   2.237   7.499
11424TIP3    H234195   5.244   2.366   7.556
11425TIP3   OH234196   4.547   3.537   5.664
11425TIP3    H134197   4.642   3.529   5.642
11425TIP3    H234198   4.517   3.588   5.587
11426TIP3   OH234199   4.023   2.919   5.877
11426TIP3    H134200   4.118   2.940   5.862
11426TIP3    H234201   4.016   2.832   5.834
11427TIP3   OH234202   3.942   3.531   6.294
11427TIP3    H134203   3.876   3.471   6.253
11427TIP3    H234204   3.985   3.469   6.357
11428TIP3   OH234205   4.076   3.374   6.478
11428TIP3    H134206   4.059   3.307   6.546
11428TIP3    H234207   4.127   3.439   6.530
11429TIP3   OH234208   5.804   3.780   6.281
11429TIP3    H134209   5.832   3.813   6.368
11429TIP3    H234210   5.869   3.819   6.221
11430TIP3   OH234211   5.831   3.802   6.563
11430TIP3    H134212   5.786   3.715   6.557
11430TIP3    H234213   5.904   3.778   6.621
11431TIP3   OH234214   5.885   3.482   7.129
11431TIP3    H134215   5.831   3.490   7.209
11431TIP3    H234216   5.926   3.571   7.125
11432TIP3   OH234217   5.696   2.990   5.751
11432TIP3    H134218   5.760   3.056   5.717
11432TIP3    H234219   5.744   2.956   5.829
11433TIP3   OH234220   5.824   2.857   5.957
11433TIP3    H134221   5.756   2.819   6.017
11433TIP3    H234222   5.890   2.895   6.019
11434TIP3   OH234223   5.879   3.253   6.389
11434TIP3    H134224   5.931   3.185   6.342
11434TIP3    H234225   5.878   3.326   6.323
11435TIP3   OH234226   5.703   3.553   6.582
11435TIP3    H134227   5.629   3.592   6.632
11435TIP3    H234228   5.657   3.507   6.509
11436TIP3   OH234229   5.755   2.764   5.603
11436TIP3    H134230   5.685   2.772   5.534
11436TIP3    H234231   5.733   2.842   5.657
11437TIP3   OH234232   5.623   2.424   5.559
11437TIP3    H134233   5.595   2.490   5.494
11437TIP3    H234234   5.588   2.342   5.521
11438TIP3   OH234235   5.632   2.721   6.104
11438TIP3    H134236   5.644   2.625   6.098
11438TIP3    H234237   5.618   2.734   6.200
11439TIP3   OH234238   4.259   2.786   6.854
11439TIP3    H134239   4.255   2.753   6.761
11439TIP3    H234240   4.357   2.788   6.867
11440TIP3   OH234241   5.925   3.141   6.959
11440TIP3    H134242   5.996   3.074   6.948
11440TIP3    H234243   5.952   3.209   6.895
11441TIP3   OH234244   6.107   2.941   6.967
11441TIP3    H134245   6.032   2.892   7.008
11441TIP3    H234246   6.180   2.879   6.985
11442TIP3   OH234247   5.546   2.131   5.570
11442TIP3    H134248   5.644   2.127   5.580
11442TIP3    H234249   5.523   2.165   5.657
11443TIP3   OH234250   5.628   2.433   5.992
11443TIP3    H134251   5.673   2.346   6.006
11443TIP3    H234252   5.687   2.471   5.924
11444TIP3   OH234253   5.790   2.602   6.491
11444TIP3    H134254   5.875   2.626   6.449
11444TIP3    H234255   5.806   2.640   6.580
11445TIP3   OH234256   5.863   2.750   6.720
11445TIP3    H134257   5.787   2.785   6.771
11445TIP3    H234258   5.896   2.831   6.676
11446TIP3   OH234259   4.479   2.473   7.525
11446TIP3    H134260   4.577   2.468   7.530
11446TIP3    H234261   4.455   2.387   7.563
11447TIP3   OH234262   6.312   2.344   7.277
11447TIP3    H134263   6.374   2.280   7.237
11447TIP3    H234264   6.283   2.396   7.199
11448TIP3   OH234265   5.738   2.184   6.033
11448TIP3    H134266   5.789   2.170   6.115
11448TIP3    H234267   5.679   2.106   6.035
11449TIP3   OH234268   4.441   2.169   6.853
11449TIP3    H134269   4.503   2.093   6.862
11449TIP3    H234270   4.504   2.243   6.845
11450TIP3   OH234271   4.240   2.439   6.927
11450TIP3    H134272   4.289   2.438   6.843
11450TIP3    H234273   4.264   2.526   6.962
11451TIP3   OH234274   6.181   2.479   7.079
11451TIP3    H134275   6.096   2.521   7.101
11451TIP3    H234276   6.150   2.405   7.024
11452TIP3   OH234277   5.813   2.120   5.659
11452TIP3    H134278   5.862   2.049   5.613
11452TIP3    H234279   5.880   2.191   5.665
11453TIP3   OH234280   4.227   1.943   6.427
11453TIP3    H134281   4.135   1.937   6.457
11453TIP3    H234282   4.219   2.003   6.349
11454TIP3   OH234283   5.387   3.650   5.936
11454TIP3    H134284   5.436   3.638   5.852
11454TIP3    H234285   5.440   3.718   5.980
11455TIP3   OH234286   4.447   2.023   7.241
11455TIP3    H134287   4.395   2.020   7.324
11455TIP3    H234288   4.382   2.063   7.180
11456TIP3   OH234289   4.486   3.454   7.319
11456TIP3    H134290   4.393   3.432   7.301
11456TIP3    H234291   4.494   3.435   7.413
11457TIP3   OH234292   4.668   3.491   6.869
11457TIP3    H134293   4.617   3.565   6.830
11457TIP3    H234294   4.753   3.506   6.821
11458TIP3   OH234295   5.106   3.729   7.006
11458TIP3    H134296   5.152   3.729   7.092
11458TIP3    H234297   5.167   3.783   6.951
11459TIP3   OH234298   5.285   3.882   6.869
11459TIP3    H134299   5.352   3.841   6.812
11459TIP3    H234300   5.341   3.939   6.927
11460TIP3   OH234301   6.083   2.240   6.964
11460TIP3    H134302   5.993   2.227   6.930
11460TIP3    H234303   6.120   2.149   6.956
11461TIP3   OH234304   4.341   3.743   6.894
11461TIP3    H134305   4.250   3.772   6.869
11461TIP3    H234306   4.352   3.792   6.976
11462TIP3   OH234307   4.577   3.723   6.751
11462TIP3    H134308   4.489   3.735   6.794
11462TIP3    H234309   4.558   3.754   6.661
11463TIP3   OH234310   5.001   3.747   6.549
11463TIP3    H134311   4.931   3.762   6.482
11463TIP3    H234312   5.011   3.836   6.587
11464TIP3   OH234313   5.270   3.688   6.604
11464TIP3    H134314   5.176   3.705   6.581
11464TIP3    H234315   5.315   3.755   6.550
11465TIP3   OH234316   5.477   3.878   6.512
11465TIP3    H134317   5.463   3.963   6.464
11465TIP3    H234318   5.504   3.819   6.438
11466TIP3   OH234319   4.251   3.536   6.634
11466TIP3    H134320   4.277   3.507   6.724
11466TIP3    H234321   4.323   3.494   6.582
11467TIP3   OH234322   4.447   3.409   6.495
11467TIP3    H134323   4.462   3.326   6.546
11467TIP3    H234324   4.538   3.445   6.490
11468TIP3   OH234325   4.714   3.500   6.499
11468TIP3    H134326   4.744   3.408   6.488
11468TIP3    H234327   4.762   3.523   6.582
11469TIP3   OH234328   5.286   2.158   6.586
11469TIP3    H134329   5.244   2.087   6.638
11469TIP3    H234330   5.362   2.113   6.544
11470TIP3   OH234331   5.803   2.030   6.478
11470TIP3    H134332   5.843   2.087   6.408
11470TIP3    H234333   5.712   2.064   6.482
11471TIP3   OH234334   5.902   2.137   6.247
11471TIP3    H134335   5.977   2.083   6.213
11471TIP3    H234336   5.940   2.227   6.235
11472TIP3   OH234337   4.536   1.865   6.597
11472TIP3    H134338   4.443   1.833   6.601
11472TIP3    H234339   4.583   1.779   6.593
11473TIP3   OH234340   4.331   1.739   6.251
11473TIP3    H134341   4.354   1.796   6.176
11473TIP3    H234342   4.298   1.804   6.316
11474TIP3   OH234343   4.986   1.895   6.480
11474TIP3    H134344   5.040   1.948   6.419
11474TIP3    H234345   5.005   1.936   6.565
11475TIP3   OH234346   5.516   2.048   6.466
11475TIP3    H134347   5.520   2.011   6.378
11475TIP3    H234348   5.510   1.966   6.521
11476TIP3   OH234349   5.553   1.970   6.026
11476TIP3    H134350   5.471   2.018   6.049
11476TIP3    H234351   5.538   1.884   6.071
11477TIP3   OH234352   4.039   3.315   6.023
11477TIP3    H134353   3.952   3.283   5.992
11477TIP3    H234354   4.032   3.408   5.991
11478TIP3   OH234355   4.443   1.894   6.010
11478TIP3    H134356   4.490   1.832   5.951
11478TIP3    H234357   4.516   1.948   6.046
11479TIP3   OH234358   4.954   2.075   6.104
11479TIP3    H134359   5.009   2.028   6.169
11479TIP3    H234360   4.971   2.168   6.132
11480TIP3   OH234361   4.814   3.491   5.610
11480TIP3    H134362   4.901   3.516   5.572
11480TIP3    H234363   4.791   3.418   5.549
11481TIP3   OH234364   5.532   3.617   5.704
11481TIP3    H134365   5.524   3.519   5.692
11481TIP3    H234366   5.486   3.648   5.623
11482TIP3   OH234367   4.743   2.146   7.490
11482TIP3    H134368   4.707   2.076   7.547
11482TIP3    H234369   4.837   2.146   7.518
11483TIP3   OH234370   4.994   2.144   7.608
11483TIP3    H134371   5.080   2.121   7.569
11483TIP3    H234372   4.983   2.073   7.674
11484TIP3   OH234373   4.115   3.329   5.661
11484TIP3    H134374   4.116   3.355   5.754
11484TIP3    H234375   4.203   3.287   5.649
11485TIP3   OH234376   5.821   2.210   7.396
11485TIP3    H134377   5.838   2.178   7.487
11485TIP3    H234378   5.910   2.204   7.357
11486TIP3   OH234379   5.757   3.759   6.872
11486TIP3    H134380   5.674   3.732   6.827
11486TIP3    H234381   5.736   3.851   6.897
11487TIP3   OH234382   7.024   3.136   5.651
11487TIP3    H134383   6.991   3.225   5.626
11487TIP3    H234384   6.953   3.080   5.615
11488TIP3   OH234385   7.027   3.135   6.041
11488TIP3    H134386   7.060   3.106   6.128
11488TIP3    H234387   6.984   3.055   6.008
11489TIP3   OH234388   6.318   3.023   6.405
11489TIP3    H134389   6.350   2.955   6.467
11489TIP3    H234390   6.400   3.072   6.389
11490TIP3   OH234391   7.272   3.437   5.719
11490TIP3    H134392   7.249   3.367   5.782
11490TIP3    H234393   7.300   3.510   5.777
11491TIP3   OH234394   6.296   3.437   6.124
11491TIP3    H134395   6.288   3.340   6.124
11491TIP3    H234396   6.393   3.446   6.113
11492TIP3   OH234397   5.999   2.632   5.905
11492TIP3    H134398   5.956   2.718   5.925
11492TIP3    H234399   5.926   2.587   5.859
11493TIP3   OH234400   6.057   2.926   6.088
11493TIP3    H134401   6.109   2.849   6.120
11493TIP3    H234402   6.118   2.965   6.023
11494TIP3   OH234403   6.926   3.900   5.740
11494TIP3    H134404   6.963   3.829   5.683
11494TIP3    H234405   6.907   3.850   5.821
11495TIP3   OH234406   6.819   3.360   6.085
11495TIP3    H134407   6.859   3.284   6.039
11495TIP3    H234408   6.902   3.406   6.110
11496TIP3   OH234409   7.838   2.677   6.082
11496TIP3    H134410   7.868   2.761   6.122
11496TIP3    H234411   7.861   2.692   5.989
11497TIP3   OH234412   7.234   2.857   6.113
11497TIP3    H134413   7.277   2.772   6.133
11497TIP3    H234414   7.201   2.840   6.022
11498TIP3   OH234415   6.576   2.518   6.079
11498TIP3    H134416   6.557   2.590   6.016
11498TIP3    H234417   6.526   2.445   6.036
11499TIP3   OH234418   7.270   2.611   5.700
11499TIP3    H134419   7.342   2.597   5.766
11499TIP3    H234420   7.322   2.646   5.625
11500TIP3   OH234421   6.206   2.719   6.189
11500TIP3    H134422   6.290   2.701   6.236
11500TIP3    H234423   6.221   2.665   6.108
11501TIP3   OH234424   6.644   2.917   5.990
11501TIP3    H134425   6.739   2.894   5.998
11501TIP3    H234426   6.607   2.834   5.953
11502TIP3   OH234427   7.912   2.889   6.250
11502TIP3    H134428   7.827   2.932   6.231
11502TIP3    H234429   7.923   2.912   6.343
11503TIP3   OH234430   6.569   2.502   6.516
11503TIP3    H134431   6.510   2.539   6.447
11503TIP3    H234432   6.516   2.519   6.596
11504TIP3   OH234433   6.913   3.354   5.518
11504TIP3    H134434   6.868   3.335   5.435
11504TIP3    H234435   6.864   3.433   5.549
11505TIP3   OH234436   6.676   3.278   6.305
11505TIP3    H134437   6.616   3.348   6.341
11505TIP3    H234438   6.719   3.325   6.230
11506TIP3   OH234439   7.473   2.617   5.880
11506TIP3    H134440   7.456   2.573   5.965
11506TIP3    H234441   7.524   2.695   5.908
11507TIP3   OH234442   6.442   2.616   6.298
11507TIP3    H134443   6.503   2.689   6.322
11507TIP3    H234444   6.491   2.576   6.223
11508TIP3   OH234445   6.507   3.476   6.408
11508TIP3    H134446   6.480   3.562   6.370
11508TIP3    H234447   6.427   3.457   6.462
11509TIP3   OH234448   5.895   3.162   5.641
11509TIP3    H134449   5.860   3.181   5.551
11509TIP3    H234450   5.926   3.249   5.670
11510TIP3   OH234451   7.337   3.682   5.885
11510TIP3    H134452   7.247   3.671   5.924
11510TIP3    H234453   7.326   3.767   5.838
11511TIP3   OH234454   7.631   2.578   6.249
11511TIP3    H134455   7.543   2.603   6.215
11511TIP3    H234456   7.691   2.610   6.178
11512TIP3   OH234457   6.919   2.215   6.231
11512TIP3    H134458   6.905   2.121   6.251
11512TIP3    H234459   6.843   2.255   6.278
11513TIP3   OH234460   7.033   3.726   5.553
11513TIP3    H134461   7.082   3.642   5.537
11513TIP3    H234462   7.097   3.790   5.513
11514TIP3   OH234463   7.179   3.511   5.470
11514TIP3    H134464   7.137   3.432   5.433
11514TIP3    H234465   7.219   3.475   5.552
11515TIP3   OH234466   7.562   3.589   6.227
11515TIP3    H134467   7.548   3.511   6.168
11515TIP3    H234468   7.544   3.663   6.165
11516TIP3   OH234469   6.862   2.981   5.492
11516TIP3    H134470   6.781   3.034   5.477
11516TIP3    H234471   6.900   2.979   5.402
11517TIP3   OH234472   6.812   2.766   5.201
11517TIP3    H134473   6.877   2.823   5.246
11517TIP3    H234474   6.872   2.706   5.152
11518TIP3   OH234475   7.757   3.232   6.077
11518TIP3    H134476   7.672   3.281   6.079
11518TIP3    H234477   7.787   3.254   5.986
11519TIP3   OH234478   7.203   3.070   5.454
11519TIP3    H134479   7.147   3.093   5.532
11519TIP3    H234480   7.286   3.045   5.498
11520TIP3   OH234481   7.436   3.103   6.375
11520TIP3    H134482   7.432   3.187   6.425
11520TIP3    H234483   7.349   3.106   6.328
11521TIP3   OH234484   6.432   3.063   5.877
11521TIP3    H134485   6.389   3.005   5.810
11521TIP3    H234486   6.509   3.009   5.904
11522TIP3   OH234487   6.561   3.476   6.020
11522TIP3    H134488   6.541   3.446   5.930
11522TIP3    H234489   6.650   3.437   6.035
11523TIP3   OH234490   6.564   3.036   6.230
11523TIP3    H134491   6.597   3.008   6.143
11523TIP3    H234492   6.611   3.121   6.245
11524TIP3   OH234493   7.097   3.674   6.007
11524TIP3    H134494   7.083   3.752   6.064
11524TIP3    H234495   7.080   3.599   6.068
11525TIP3   OH234496   6.710   3.591   6.553
11525TIP3    H134497   6.648   3.652   6.599
11525TIP3    H234498   6.646   3.538   6.501
11526TIP3   OH234499   7.042   2.922   5.283
11526TIP3    H134500   7.099   2.985   5.332
11526TIP3    H234501   7.068   2.943   5.190
11527TIP3   OH234502   6.466   3.145   6.661
11527TIP3    H134503   6.469   3.234   6.701
11527TIP3    H234504   6.371   3.125   6.670
11528TIP3   OH234505   6.788   3.600   5.569
11528TIP3    H134506   6.869   3.654   5.566
11528TIP3    H234507   6.730   3.645   5.506
11529TIP3   OH234508   6.502   3.756   6.640
11529TIP3    H134509   6.468   3.759   6.549
11529TIP3    H234510   6.421   3.735   6.692
11530TIP3   OH234511   7.558   2.162   5.334
11530TIP3    H134512   7.476   2.185   5.383
11530TIP3    H234513   7.573   2.244   5.283
11531TIP3   OH234514   6.291   2.907   5.690
11531TIP3    H134515   6.232   2.953   5.627
11531TIP3    H234516   6.256   2.817   5.687
11532TIP3   OH234517   7.359   3.531   4.883
11532TIP3    H134518   7.367   3.627   4.866
11532TIP3    H234519   7.451   3.500   4.869
11533TIP3   OH234520   6.080   3.292   6.586
11533TIP3    H134521   6.014   3.270   6.517
11533TIP3    H234522   6.119   3.204   6.607
11534TIP3   OH234523   5.937   3.481   6.221
11534TIP3    H134524   6.032   3.476   6.208
11534TIP3    H234525   5.928   3.561   6.274
11535TIP3   OH234526   7.798   3.939   6.276
11535TIP3    H134527   7.798   3.842   6.290
11535TIP3    H234528   7.715   3.962   6.322
11536TIP3   OH234529   6.905   3.720   6.411
11536TIP3    H134530   6.900   3.812   6.442
11536TIP3    H234531   6.833   3.679   6.464
11537TIP3   OH234532   6.674   3.853   5.359
11537TIP3    H134533   6.618   3.826   5.284
11537TIP3    H234534   6.633   3.936   5.388
11538TIP3   OH234535   6.104   3.697   5.749
11538TIP3    H134536   6.150   3.686   5.835
11538TIP3    H234537   6.056   3.612   5.742
11539TIP3   OH234538   6.868   3.753   4.999
11539TIP3    H134539   6.926   3.681   4.964
11539TIP3    H234540   6.901   3.761   5.091
11540TIP3   OH234541   6.923   3.801   5.267
11540TIP3    H134542   6.833   3.811   5.306
11540TIP3    H234543   6.968   3.752   5.338
11541TIP3   OH234544   7.688   3.065   6.550
11541TIP3    H134545   7.604   3.073   6.502
11541TIP3    H234546   7.705   2.969   6.541
11542TIP3   OH234547   6.286   3.474   6.571
11542TIP3    H134548   6.335   3.457   6.654
11542TIP3    H234549   6.211   3.411   6.578
11543TIP3   OH234550   6.684   2.296   6.362
11543TIP3    H134551   6.595   2.266   6.332
11543TIP3    H234552   6.657   2.376   6.412
11544TIP3   OH234553   7.221   2.411   6.555
11544TIP3    H134554   7.291   2.382   6.618
11544TIP3    H234555   7.139   2.391   6.604
11545TIP3   OH234556   7.455   2.841   6.474
11545TIP3    H134557   7.404   2.838   6.558
11545TIP3    H234558   7.431   2.928   6.437
11546TIP3   OH234559   7.126   2.966   5.032
11546TIP3    H134560   7.082   2.948   4.947
11546TIP3    H234561   7.208   3.009   5.002
11547TIP3   OH234562   6.827   2.343   5.331
11547TIP3    H134563   6.794   2.340   5.423
11547TIP3    H234564   6.788   2.260   5.297
11548TIP3   OH234565   6.617   2.813   6.378
11548TIP3    H134566   6.567   2.833   6.460
11548TIP3    H234567   6.600   2.895   6.326
11549TIP3   OH234568   6.503   2.699   5.892
11549TIP3    H134569   6.409   2.676   5.909
11549TIP3    H234570   6.514   2.659   5.803
11550TIP3   OH234571   6.992   2.781   5.624
11550TIP3    H134572   6.943   2.853   5.580
11550TIP3    H234573   7.047   2.747   5.551
11551TIP3   OH234574   7.166   3.059   6.705
11551TIP3    H134575   7.143   2.986   6.767
11551TIP3    H234576   7.260   3.072   6.727
11552TIP3   OH234577   7.147   2.810   5.857
11552TIP3    H134578   7.083   2.836   5.787
11552TIP3    H234579   7.184   2.730   5.812
11553TIP3   OH234580   6.437   2.840   6.587
11553TIP3    H134581   6.470   2.902   6.653
11553TIP3    H234582   6.426   2.758   6.639
11554TIP3   OH234583   6.481   2.317   5.297
11554TIP3    H134584   6.474   2.317   5.394
11554TIP3    H234585   6.407   2.376   5.273
11555TIP3   OH234586   6.033   2.357   6.169
11555TIP3    H134587   6.102   2.395   6.227
11555TIP3    H234588   6.081   2.337   6.088
11556TIP3   OH234589   5.988   2.341   5.687
11556TIP3    H134590   6.034   2.376   5.608
11556TIP3    H234591   5.931   2.418   5.707
11557TIP3   OH234592   7.160   3.055   6.279
11557TIP3    H134593   7.193   2.984   6.219
11557TIP3    H234594   7.128   3.000   6.354
11558TIP3   OH234595   6.835   2.518   5.952
11558TIP3    H134596   6.755   2.518   6.007
11558TIP3    H234597   6.906   2.511   6.020
11559TIP3   OH234598   6.262   2.578   5.960
11559TIP3    H134599   6.169   2.584   5.930
11559TIP3    H234600   6.289   2.488   5.936
11560TIP3   OH234601   6.526   2.571   5.651
11560TIP3    H134602   6.620   2.588   5.630
11560TIP3    H234603   6.480   2.594   5.568
11561TIP3   OH234604   7.321   2.597   6.157
11561TIP3    H134605   7.289   2.610   6.249
11561TIP3    H234606   7.253   2.536   6.123
11562TIP3   OH234607   6.377   2.604   5.426
11562TIP3    H134608   6.310   2.561   5.370
11562TIP3    H234609   6.432   2.647   5.358
11563TIP3   OH234610   7.495   4.286   6.377
11563TIP3    H134611   7.492   4.308   6.282
11563TIP3    H234612   7.576   4.332   6.407
11564TIP3   OH234613   6.448   3.396   6.794
11564TIP3    H134614   6.528   3.425   6.843
11564TIP3    H234615   6.383   3.394   6.867
11565TIP3   OH234616   6.910   2.851   6.051
11565TIP3    H134617   6.983   2.811   6.001
11565TIP3    H234618   6.915   2.804   6.137
11566TIP3   OH234619   6.426   2.336   5.934
11566TIP3    H134620   6.393   2.258   5.983
11566TIP3    H234621   6.474   2.295   5.861
11567TIP3   OH234622   6.887   2.750   6.338
11567TIP3    H134623   6.796   2.784   6.353
11567TIP3    H234624   6.943   2.812   6.389
11568TIP3   OH234625   6.642   3.132   5.447
11568TIP3    H134626   6.570   3.066   5.433
11568TIP3    H234627   6.611   3.173   5.532
11569TIP3   OH234628   7.521   3.373   6.061
11569TIP3    H134629   7.544   3.423   5.980
11569TIP3    H234630   7.437   3.329   6.034
11570TIP3   OH234631   7.081   2.442   5.308
11570TIP3    H134632   6.984   2.426   5.312
11570TIP3    H234633   7.088   2.538   5.328
11571TIP3   OH234634   7.025   3.457   6.432
11571TIP3    H134635   7.053   3.437   6.522
11571TIP3    H234636   6.984   3.544   6.440
11572TIP3   OH234637   7.149   2.696   5.406
11572TIP3    H134638   7.245   2.705   5.417
11572TIP3    H234639   7.126   2.776   5.353
11573TIP3   OH234640   6.317   3.160   6.109
11573TIP3    H134641   6.353   3.133   6.022
11573TIP3    H234642   6.366   3.102   6.169
11574TIP3   OH234643   6.769   3.292   5.265
11574TIP3    H134644   6.722   3.379   5.268
11574TIP3    H234645   6.711   3.237   5.322
11575TIP3   OH234646   6.200   3.079   6.725
11575TIP3    H134647   6.217   3.065   6.820
11575TIP3    H234648   6.131   3.012   6.707
11576TIP3   OH234649   6.927   3.197   6.742
11576TIP3    H134650   6.865   3.137   6.698
11576TIP3    H234651   7.013   3.159   6.714
11577TIP3   OH234652   7.181   3.721   6.327
11577TIP3    H134653   7.085   3.715   6.342
11577TIP3    H234654   7.209   3.770   6.408
11578TIP3   OH234655   7.589   2.791   5.237
11578TIP3    H134656   7.528   2.747   5.173
11578TIP3    H234657   7.586   2.881   5.197
11579TIP3   OH234658   7.812   3.651   6.314
11579TIP3    H134659   7.715   3.642   6.307
11579TIP3    H234660   7.839   3.618   6.225
11580TIP3   OH234661   7.300   3.606   5.149
11580TIP3    H134662   7.265   3.538   5.209
11580TIP3    H234663   7.307   3.559   5.064
11581TIP3   OH234664   7.289   3.236   5.978
11581TIP3    H134665   7.195   3.211   5.991
11581TIP3    H234666   7.322   3.155   5.933
11582TIP3   OH234667   6.419   3.468   5.745
11582TIP3    H134668   6.418   3.546   5.685
11582TIP3    H234669   6.327   3.441   5.742
11583TIP3   OH234670   5.984   2.764   5.441
11583TIP3    H134671   6.030   2.850   5.455
11583TIP3    H234672   5.908   2.773   5.502
11584TIP3   OH234673   6.551   3.230   5.684
11584TIP3    H134674   6.518   3.320   5.702
11584TIP3    H234675   6.512   3.178   5.756
11585TIP3   OH234676   6.689   3.805   6.204
11585TIP3    H134677   6.732   3.877   6.153
11585TIP3    H234678   6.766   3.766   6.250
11586TIP3   OH234679   6.336   3.705   5.591
11586TIP3    H134680   6.250   3.712   5.636
11586TIP3    H234681   6.367   3.798   5.592
11587TIP3   OH234682   7.072   3.442   6.164
11587TIP3    H134683   7.062   3.440   6.262
11587TIP3    H234684   7.148   3.383   6.151
11588TIP3   OH234685   7.051   3.340   5.046
11588TIP3    H134686   7.102   3.314   5.125
11588TIP3    H234687   6.963   3.305   5.069
11589TIP3   OH234688   7.323   3.972   6.215
11589TIP3    H134689   7.244   3.914   6.212
11589TIP3    H234690   7.304   4.034   6.142
11590TIP3   OH234691   7.388   3.806   4.863
11590TIP3    H134692   7.422   3.880   4.811
11590TIP3    H234693   7.308   3.849   4.901
11591TIP3   OH234694   6.407   2.585   6.729
11591TIP3    H134695   6.310   2.584   6.741
11591TIP3    H234696   6.436   2.529   6.803
11592TIP3   OH234697   7.213   3.271   5.260
11592TIP3    H134698   7.200   3.204   5.330
11592TIP3    H234699   7.310   3.264   5.248
11593TIP3   OH234700   6.125   3.668   6.362
11593TIP3    H134701   6.180   3.594   6.395
11593TIP3    H234702   6.154   3.740   6.419
11594TIP3   OH234703   6.444   3.341   5.303
11594TIP3    H134704   6.405   3.275   5.361
11594TIP3    H234705   6.387   3.418   5.316
11595TIP3   OH234706   6.102   3.007   5.506
11595TIP3    H134707   6.038   3.065   5.552
11595TIP3    H234708   6.114   3.055   5.421
11596TIP3   OH234709   7.248   2.648   6.417
11596TIP3    H134710   7.330   2.686   6.455
11596TIP3    H234711   7.236   2.567   6.471
11597TIP3   OH234712   7.129   2.394   5.586
11597TIP3    H134713   7.114   2.415   5.491
11597TIP3    H234714   7.168   2.478   5.619
11598TIP3   OH234715   6.650   3.540   5.273
11598TIP3    H134716   6.560   3.512   5.301
11598TIP3    H234717   6.630   3.612   5.212
11599TIP3   OH234718   6.810   2.581   5.683
11599TIP3    H134719   6.874   2.653   5.665
11599TIP3    H234720   6.819   2.572   5.781
11600TIP3   OH234721   7.085   2.894   6.486
11600TIP3    H134722   7.111   2.945   6.566
11600TIP3    H234723   7.137   2.812   6.495
11601TIP3   OH234724   6.954   2.299   5.781
11601TIP3    H134725   6.945   2.378   5.838
11601TIP3    H234726   7.019   2.332   5.714
11602TIP3   OH234727   6.364   3.599   5.335
11602TIP3    H134728   6.339   3.673   5.276
11602TIP3    H234729   6.353   3.638   5.424
11603TIP3   OH234730   6.469   2.307   5.573
11603TIP3    H134731   6.467   2.398   5.609
11603TIP3    H234732   6.566   2.289   5.581
11604TIP3   OH234733   7.721   2.798   6.468
11604TIP3    H134734   7.624   2.799   6.478
11604TIP3    H234735   7.729   2.746   6.387
11605TIP3   OH234736   7.374   2.991   5.858
11605TIP3    H134737   7.297   2.932   5.869
11605TIP3    H234738   7.444   2.943   5.907
11606TIP3   OH234739   6.024   2.494   5.464
11606TIP3    H134740   6.039   2.590   5.464
11606TIP3    H234741   5.952   2.487   5.400
11607TIP3   OH234742   7.344   3.954   5.806
11607TIP3    H134743   7.300   4.002   5.731
11607TIP3    H234744   7.438   3.971   5.784
11608TIP3   OH234745   6.418   2.216   6.332
11608TIP3    H134746   6.389   2.181   6.245
11608TIP3    H234747   6.408   2.138   6.390
11609TIP3   OH234748   5.958   3.439   5.709
11609TIP3    H134749   5.890   3.466   5.773
11609TIP3    H234750   5.923   3.481   5.627
11610TIP3   OH234751   6.119   3.985   6.786
11610TIP3    H134752   6.206   3.985   6.833
11610TIP3    H234753   6.100   3.890   6.784
11611TIP3   OH234754   6.593   3.937   6.830
11611TIP3    H134755   6.688   3.917   6.836
11611TIP3    H234756   6.567   3.875   6.759
11612TIP3   OH234757   6.576   3.506   4.963
11612TIP3    H134758   6.540   3.441   5.026
11612TIP3    H234759   6.651   3.455   4.927
11613TIP3   OH234760   7.234   3.850   6.566
11613TIP3    H134761   7.228   3.779   6.634
11613TIP3    H234762   7.312   3.900   6.596
11614TIP3   OH234763   7.014   3.555   4.874
11614TIP3    H134764   7.046   3.485   4.935
11614TIP3    H234765   7.073   3.545   4.797
11615TIP3   OH234766   6.246   3.384   6.985
11615TIP3    H134767   6.262   3.288   6.993
11615TIP3    H234768   6.159   3.386   6.939
11616TIP3   OH234769   6.852   3.473   6.761
11616TIP3    H134770   6.811   3.493   6.674
11616TIP3    H234771   6.883   3.380   6.749
11617TIP3   OH234772   6.736   3.242   4.994
11617TIP3    H134773   6.738   3.245   5.091
11617TIP3    H234774   6.733   3.145   4.980
11618TIP3   OH234775   7.346   3.485   6.370
11618TIP3    H134776   7.422   3.527   6.324
11618TIP3    H234777   7.275   3.549   6.351
11619TIP3   OH234778   6.366   3.123   6.971
11619TIP3    H134779   6.444   3.074   6.941
11619TIP3    H234780   6.395   3.154   7.059
11620TIP3   OH234781   6.462   2.932   5.427
11620TIP3    H134782   6.406   2.885   5.490
11620TIP3    H234783   6.478   2.865   5.358
11621TIP3   OH234784   6.700   3.001   6.630
11621TIP3    H134785   6.622   3.061   6.632
11621TIP3    H234786   6.751   3.037   6.554
11622TIP3   OH234787   6.533   2.730   5.245
11622TIP3    H134788   6.506   2.730   5.150
11622TIP3    H234789   6.631   2.737   5.236
11623TIP3   OH234790   7.220   3.405   6.762
11623TIP3    H134791   7.295   3.370   6.713
11623TIP3    H234792   7.212   3.341   6.836
11624TIP3   OH234793   7.354   3.062   4.909
11624TIP3    H134794   7.333   3.017   4.824
11624TIP3    H234795   7.319   3.152   4.888
11625TIP3   OH234796   6.825   2.793   6.754
11625TIP3    H134797   6.826   2.714   6.696
11625TIP3    H234798   6.780   2.860   6.698
11626TIP3   OH234799   6.827   2.580   6.564
11626TIP3    H134800   6.856   2.620   6.480
11626TIP3    H234801   6.734   2.557   6.545
11627TIP3   OH234802   6.849   3.114   6.439
11627TIP3    H134803   6.935   3.125   6.396
11627TIP3    H234804   6.793   3.178   6.390
11628TIP3   OH234805   7.432   3.078   6.814
11628TIP3    H134806   7.478   2.993   6.829
11628TIP3    H234807   7.502   3.133   6.777
11629TIP3   OH234808   7.475   3.335   6.554
11629TIP3    H134809   7.417   3.390   6.496
11629TIP3    H234810   7.563   3.355   6.515
11630TIP3   OH234811   6.703   2.897   6.989
11630TIP3    H134812   6.635   2.828   7.005
11630TIP3    H234813   6.736   2.871   6.901
11631TIP3   OH234814   6.959   2.341   6.634
11631TIP3    H134815   6.909   2.422   6.611
11631TIP3    H234816   6.891   2.271   6.623
11632TIP3   OH234817   7.084   2.842   6.848
11632TIP3    H134818   7.069   2.826   6.943
11632TIP3    H234819   6.995   2.819   6.814
11633TIP3   OH234820   7.323   2.796   6.704
11633TIP3    H134821   7.248   2.795   6.767
11633TIP3    H234822   7.397   2.764   6.760
11634TIP3   OH234823   7.554   2.737   6.852
11634TIP3    H134824   7.567   2.641   6.866
11634TIP3    H234825   7.549   2.772   6.943
11635TIP3   OH234826   6.541   2.678   7.045
11635TIP3    H134827   6.545   2.586   7.012
11635TIP3    H234828   6.580   2.667   7.134
11636TIP3   OH234829   7.051   2.351   6.893
11636TIP3    H134830   7.117   2.279   6.887
11636TIP3    H234831   7.012   2.346   6.803
11637TIP3   OH234832   7.120   2.566   7.049
11637TIP3    H134833   7.098   2.494   6.986
11637TIP3    H234834   7.040   2.623   7.043
11638TIP3   OH234835   6.347   3.812   5.156
11638TIP3    H134836   6.439   3.792   5.130
11638TIP3    H234837   6.314   3.852   5.073
11639TIP3   OH234838   5.813   3.166   5.376
11639TIP3    H134839   5.897   3.193   5.331
11639TIP3    H234840   5.803   3.079   5.332
11640TIP3   OH234841   5.736   3.789   5.781
11640TIP3    H134842   5.672   3.727   5.740
11640TIP3    H234843   5.781   3.728   5.844
11641TIP3   OH234844   5.869   3.634   5.967
11641TIP3    H134845   5.857   3.563   6.032
11641TIP3    H234846   5.923   3.696   6.019
11642TIP3   OH234847   7.601   4.039   5.768
11642TIP3    H134848   7.628   4.067   5.857
11642TIP3    H234849   7.669   4.077   5.711
11643TIP3   OH234850   7.630   4.058   6.050
11643TIP3    H134851   7.580   3.973   6.044
11643TIP3    H234852   7.701   4.030   6.109
11644TIP3   OH234853   7.673   3.736   6.622
11644TIP3    H134854   7.602   3.745   6.688
11644TIP3    H234855   7.716   3.824   6.627
11645TIP3   OH234856   7.492   3.247   5.240
11645TIP3    H134857   7.558   3.312   5.209
11645TIP3    H234858   7.537   3.209   5.319
11646TIP3   OH234859   7.620   3.115   5.445
11646TIP3    H134860   7.551   3.073   5.502
11646TIP3    H234861   7.682   3.151   5.511
11647TIP3   OH234862   7.677   3.512   5.877
11647TIP3    H134863   7.728   3.441   5.832
11647TIP3    H234864   7.669   3.579   5.807
11648TIP3   OH234865   7.501   3.811   6.069
11648TIP3    H134866   7.428   3.850   6.121
11648TIP3    H234867   7.453   3.764   5.997
11649TIP3   OH234868   7.555   3.024   5.089
11649TIP3    H134869   7.484   3.025   5.021
11649TIP3    H234870   7.525   3.100   5.144
11650TIP3   OH234871   7.428   2.696   5.041
11650TIP3    H134872   7.379   2.731   4.966
11650TIP3    H234873   7.405   2.600   5.034
11651TIP3   OH234874   7.430   2.975   5.588
11651TIP3    H134875   7.436   2.879   5.578
11651TIP3    H234876   7.415   2.986   5.685
11652TIP3   OH234877   6.055   3.045   6.339
11652TIP3    H134878   6.052   3.011   6.247
11652TIP3    H234879   6.152   3.047   6.355
11653TIP3   OH234880   7.722   3.399   6.448
11653TIP3    H134881   7.792   3.331   6.436
11653TIP3    H234882   7.745   3.464   6.380
11654TIP3   OH234883   7.904   3.198   6.453
11654TIP3    H134884   7.829   3.150   6.493
11654TIP3    H234885   7.976   3.135   6.472
11655TIP3   OH234886   7.368   2.430   5.027
11655TIP3    H134887   7.439   2.396   5.085
11655TIP3    H234888   7.292   2.372   5.045
11656TIP3   OH234889   7.430   2.693   5.481
11656TIP3    H134890   7.471   2.604   5.496
11656TIP3    H234891   7.486   2.724   5.408
11657TIP3   OH234892   7.586   2.858   5.980
11657TIP3    H134893   7.672   2.883   5.937
11657TIP3    H234894   7.602   2.896   6.068
11658TIP3   OH234895   7.660   3.008   6.208
11658TIP3    H134896   7.583   3.041   6.257
11658TIP3    H234897   7.693   3.089   6.164
11659TIP3   OH234898   6.275   2.731   7.009
11659TIP3    H134899   6.373   2.726   7.016
11659TIP3    H234900   6.251   2.644   7.048
11660TIP3   OH234901   8.107   2.601   6.762
11660TIP3    H134902   8.170   2.539   6.719
11660TIP3    H234903   8.078   2.655   6.685
11661TIP3   OH234904   7.536   2.441   5.521
11661TIP3    H134905   7.584   2.424   5.605
11661TIP3    H234906   7.475   2.365   5.519
11662TIP3   OH234907   6.234   2.426   6.345
11662TIP3    H134908   6.296   2.350   6.351
11662TIP3    H234909   6.298   2.500   6.333
11663TIP3   OH234910   6.034   2.697   6.411
11663TIP3    H134911   6.086   2.695   6.328
11663TIP3    H234912   6.064   2.780   6.450
11664TIP3   OH234913   7.977   2.737   6.564
11664TIP3    H134914   7.891   2.779   6.584
11664TIP3    H234915   7.946   2.662   6.510
11665TIP3   OH234916   7.614   2.369   5.158
11665TIP3    H134917   7.652   2.301   5.099
11665TIP3    H234918   7.679   2.441   5.153
11666TIP3   OH234919   6.022   2.193   5.910
11666TIP3    H134920   5.932   2.197   5.946
11666TIP3    H234921   6.017   2.257   5.835
11667TIP3   OH234922   7.184   3.910   5.423
11667TIP3    H134923   7.233   3.895   5.339
11667TIP3    H234924   7.242   3.973   5.468
11668TIP3   OH234925   6.244   2.284   6.730
11668TIP3    H134926   6.192   2.278   6.812
11668TIP3    H234927   6.177   2.319   6.668
11669TIP3   OH234928   6.282   3.715   6.805
11669TIP3    H134929   6.189   3.689   6.790
11669TIP3    H234930   6.294   3.691   6.898
11670TIP3   OH234931   6.463   3.748   6.355
11670TIP3    H134932   6.415   3.824   6.315
11670TIP3    H234933   6.549   3.760   6.309
11671TIP3   OH234934   6.900   3.987   6.491
11671TIP3    H134935   6.943   3.985   6.579
11671TIP3    H234936   6.966   4.039   6.440
11672TIP3   OH234937   7.080   4.143   6.353
11672TIP3    H134938   7.148   4.089   6.310
11672TIP3    H234939   7.135   4.198   6.414
11673TIP3   OH234940   7.879   2.497   6.451
11673TIP3    H134941   7.788   2.484   6.416
11673TIP3    H234942   7.915   2.406   6.442
11674TIP3   OH234943   6.137   4.001   6.378
11674TIP3    H134944   6.046   4.032   6.356
11674TIP3    H234945   6.149   4.046   6.463
11675TIP3   OH234946   6.374   3.982   6.239
11675TIP3    H134947   6.286   3.992   6.281
11675TIP3    H234948   6.355   4.010   6.147
11676TIP3   OH234949   6.797   4.004   6.037
11676TIP3    H134950   6.728   4.020   5.970
11676TIP3    H234951   6.808   4.093   6.076
11677TIP3   OH234952   7.067   3.946   6.091
11677TIP3    H134953   6.973   3.960   6.068
11677TIP3    H234954   7.110   4.016   6.039
11678TIP3   OH234955   7.277   4.138   5.999
11678TIP3    H134956   7.260   4.220   5.949
11678TIP3    H234957   7.301   4.075   5.927
11679TIP3   OH234958   6.047   3.792   6.123
11679TIP3    H134959   6.074   3.763   6.212
11679TIP3    H234960   6.119   3.750   6.070
11680TIP3   OH234961   6.243   3.667   5.984
11680TIP3    H134962   6.259   3.581   6.031
11680TIP3    H234963   6.335   3.701   5.977
11681TIP3   OH234964   6.513   3.759   5.986
11681TIP3    H134965   6.540   3.667   5.971
11681TIP3    H234966   6.561   3.777   6.069
11682TIP3   OH234967   7.084   2.414   6.073
11682TIP3    H134968   7.042   2.341   6.123
11682TIP3    H234969   7.158   2.369   6.028
11683TIP3   OH234970   7.602   2.297   5.974
11683TIP3    H134971   7.638   2.348   5.898
11683TIP3    H234972   7.507   2.316   5.967
11684TIP3   OH234973   7.700   2.393   5.738
11684TIP3    H134974   7.774   2.341   5.700
11684TIP3    H234975   7.734   2.484   5.724
11685TIP3   OH234976   6.330   2.120   6.085
11685TIP3    H134977   6.238   2.087   6.089
11685TIP3    H234978   6.380   2.035   6.082
11686TIP3   OH234979   6.111   1.994   5.731
11686TIP3    H134980   6.149   2.049   5.661
11686TIP3    H234981   6.090   2.061   5.800
11687TIP3   OH234982   6.779   2.155   5.969
11687TIP3    H134983   6.833   2.201   5.903
11687TIP3    H234984   6.811   2.192   6.052
11688TIP3   OH234985   7.318   2.303   5.950
11688TIP3    H134986   7.321   2.262   5.863
11688TIP3    H234987   7.308   2.224   6.008
11689TIP3   OH234988   7.353   2.229   5.514
11689TIP3    H134989   7.268   2.273   5.531
11689TIP3    H234990   7.338   2.143   5.558
11690TIP3   OH234991   5.832   3.573   5.512
11690TIP3    H134992   5.747   3.537   5.480
11690TIP3    H234993   5.824   3.665   5.479
11691TIP3   OH234994   6.240   2.151   5.497
11691TIP3    H134995   6.289   2.089   5.439
11691TIP3    H234996   6.313   2.206   5.532
11692TIP3   OH234997   6.746   2.331   5.596
11692TIP3    H134998   6.807   2.285   5.655
11692TIP3    H234999   6.767   2.424   5.620
11693TIP3   OH235000   6.606   3.749   5.089
11693TIP3    H135001   6.695   3.770   5.056
11693TIP3    H235002   6.584   3.673   5.030
11694TIP3   OH235003   7.331   3.873   5.191
11694TIP3    H135004   7.325   3.775   5.181
11694TIP3    H235005   7.283   3.902   5.110
11695TIP3   OH235006   6.539   2.403   6.977
11695TIP3    H135007   6.504   2.332   7.034
11695TIP3    H235008   6.633   2.403   7.005
11696TIP3   OH235009   6.790   2.401   7.095
11696TIP3    H135010   6.875   2.376   7.056
11696TIP3    H235011   6.778   2.331   7.163
11697TIP3   OH235012   5.909   3.592   5.152
11697TIP3    H135013   5.916   3.600   5.248
11697TIP3    H235014   5.993   3.545   5.130
11698TIP3   OH235015   7.617   2.467   6.882
11698TIP3    H135016   7.633   2.435   6.974
11698TIP3    H235017   7.706   2.460   6.843
11699TIP3   OH235018   7.550   4.015   6.375
11699TIP3    H135019   7.472   3.984   6.325
11699TIP3    H235020   7.529   4.110   6.384
11700TIP3   OH235021   8.821   3.405   5.149
11700TIP3    H135022   8.788   3.487   5.107
11700TIP3    H235023   8.761   3.340   5.109
11701TIP3   OH235024   8.813   3.399   5.518
11701TIP3    H135025   8.818   3.355   5.605
11701TIP3    H235026   8.792   3.324   5.460
11702TIP3   OH235027   8.115   3.281   5.890
11702TIP3    H135028   8.145   3.210   5.951
11702TIP3    H235029   8.198   3.330   5.877
11703TIP3   OH235030   9.085   3.677   5.225
11703TIP3    H135031   9.014   3.632   5.273
11703TIP3    H235032   9.089   3.764   5.270
11704TIP3   OH235033   8.091   3.696   5.611
11704TIP3    H135034   8.083   3.598   5.609
11704TIP3    H235035   8.188   3.704   5.605
11705TIP3   OH235036   7.796   2.895   5.391
11705TIP3    H135037   7.747   2.976   5.411
11705TIP3    H235038   7.727   2.842   5.348
11706TIP3   OH235039   7.855   3.183   5.577
11706TIP3    H135040   7.904   3.104   5.609
11706TIP3    H235041   7.910   3.213   5.504
11707TIP3   OH235042   8.715   4.165   5.235
11707TIP3    H135043   8.752   4.097   5.175
11707TIP3    H235044   8.699   4.114   5.315
11708TIP3   OH235045   8.613   3.617   5.570
11708TIP3    H135046   8.651   3.539   5.526
11708TIP3    H235047   8.697   3.661   5.596
11709TIP3   OH235048   8.368   2.775   5.568
11709TIP3    H135049   8.352   2.847   5.503
11709TIP3    H235050   8.321   2.701   5.524
11710TIP3   OH235051   8.002   2.975   5.675
11710TIP3    H135052   8.085   2.956   5.723
11710TIP3    H235053   8.016   2.920   5.595
11711TIP3   OH235054   8.437   3.176   5.474
11711TIP3    H135055   8.531   3.154   5.494
11711TIP3    H235056   8.403   3.090   5.440
11712TIP3   OH235057   8.362   2.761   6.004
11712TIP3    H135058   8.303   2.798   5.935
11712TIP3    H235059   8.308   2.778   6.084
11713TIP3   OH235060   8.712   3.613   5.005
11713TIP3    H135061   8.667   3.590   4.923
11713TIP3    H235062   8.663   3.694   5.032
11714TIP3   OH235063   8.473   3.534   5.795
11714TIP3    H135064   8.413   3.602   5.832
11714TIP3    H235065   8.515   3.582   5.721
11715TIP3   OH235066   8.237   2.874   5.786
11715TIP3    H135067   8.301   2.946   5.809
11715TIP3    H235068   8.285   2.833   5.710
11716TIP3   OH235069   8.302   3.731   5.895
11716TIP3    H135070   8.275   3.818   5.859
11716TIP3    H235071   8.222   3.712   5.949
11717TIP3   OH235072   7.690   3.421   5.129
11717TIP3    H135073   7.649   3.445   5.044
11717TIP3    H235074   7.722   3.507   5.162
11718TIP3   OH235075   9.109   3.932   5.356
11718TIP3    H135076   9.023   3.929   5.405
11718TIP3    H235077   9.106   4.023   5.320
11719TIP3   OH235078   8.698   2.503   5.710
11719TIP3    H135079   8.729   2.417   5.745
11719TIP3    H235080   8.619   2.521   5.766
11720TIP3   OH235081   8.821   3.998   5.047
11720TIP3    H135082   8.873   3.914   5.042
11720TIP3    H235083   8.884   4.056   4.998
11721TIP3   OH235084   8.975   3.787   4.990
11721TIP3    H135085   8.961   3.735   4.909
11721TIP3    H235086   8.995   3.719   5.057
11722TIP3   OH235087   8.652   3.250   4.984
11722TIP3    H135088   8.571   3.299   4.960
11722TIP3    H235089   8.694   3.237   4.897
11723TIP3   OH235090   8.604   3.017   4.695
11723TIP3    H135091   8.683   3.068   4.721
11723TIP3    H235092   8.640   2.927   4.690
11724TIP3   OH235093   8.230   3.320   5.361
11724TIP3    H135094   8.189   3.261   5.294
11724TIP3    H235095   8.305   3.265   5.393
11725TIP3   OH235096   8.360   3.738   5.505
11725TIP3    H135097   8.338   3.700   5.418
11725TIP3    H235098   8.448   3.698   5.523
11726TIP3   OH235099   8.363   3.291   5.718
11726TIP3    H135100   8.395   3.263   5.630
11726TIP3    H235101   8.410   3.376   5.732
11727TIP3   OH235102   8.881   3.928   5.498
11727TIP3    H135103   8.868   4.009   5.551
11727TIP3    H235104   8.867   3.856   5.562
11728TIP3   OH235105   8.505   3.850   6.040
11728TIP3    H135106   8.442   3.910   6.087
11728TIP3    H235107   8.442   3.795   5.990
11729TIP3   OH235108   8.830   3.171   4.781
11729TIP3    H135109   8.911   3.205   4.822
11729TIP3    H235110   8.844   3.205   4.691
11730TIP3   OH235111   8.261   3.401   6.147
11730TIP3    H135112   8.265   3.490   6.187
11730TIP3    H235113   8.166   3.381   6.158
11731TIP3   OH235114   8.585   3.856   5.047
11731TIP3    H135115   8.662   3.916   5.055
11731TIP3    H235116   8.522   3.909   4.997
11732TIP3   OH235117   8.296   4.017   6.130
11732TIP3    H135118   8.264   4.016   6.038
11732TIP3    H235119   8.216   3.992   6.180
11733TIP3   OH235120   8.096   3.164   5.166
11733TIP3    H135121   8.027   3.206   5.111
11733TIP3    H235122   8.062   3.075   5.176
11734TIP3   OH235123   7.878   3.548   6.073
11734TIP3    H135124   7.809   3.528   6.006
11734TIP3    H235125   7.915   3.460   6.093
11735TIP3   OH235126   7.732   3.742   5.700
11735TIP3    H135127   7.828   3.733   5.694
11735TIP3    H235128   7.723   3.817   5.760
11736TIP3   OH235129   8.697   3.969   5.885
11736TIP3    H135130   8.707   4.062   5.918
11736TIP3    H235131   8.627   3.935   5.945
11737TIP3   OH235132   8.464   4.104   4.849
11737TIP3    H135133   8.416   4.081   4.767
11737TIP3    H235134   8.427   4.191   4.873
11738TIP3   OH235135   7.902   3.953   5.235
11738TIP3    H135136   7.946   3.943   5.322
11738TIP3    H235137   7.854   3.868   5.228
11739TIP3   OH235138   8.652   4.046   4.498
11739TIP3    H135139   8.689   3.962   4.461
11739TIP3    H235140   8.689   4.043   4.589
11740TIP3   OH235141   8.715   4.052   4.766
11740TIP3    H135142   8.625   4.063   4.803
11740TIP3    H235143   8.760   4.009   4.840
11741TIP3   OH235144   8.081   3.732   6.058
11741TIP3    H135145   8.131   3.713   6.140
11741TIP3    H235146   8.007   3.668   6.064
11742TIP3   OH235147   8.470   2.553   5.856
11742TIP3    H135148   8.382   2.524   5.823
11742TIP3    H235149   8.443   2.633   5.904
11743TIP3   OH235150   8.995   2.626   6.113
11743TIP3    H135151   9.016   2.635   6.207
11743TIP3    H235152   8.898   2.615   6.117
11744TIP3   OH235153   8.582   2.626   4.804
11744TIP3    H135154   8.586   2.614   4.900
11744TIP3    H235155   8.566   2.535   4.775
11745TIP3   OH235156   8.415   3.069   5.866
11745TIP3    H135157   8.363   3.088   5.946
11745TIP3    H235158   8.399   3.150   5.813
11746TIP3   OH235159   8.296   2.956   5.379
11746TIP3    H135160   8.204   2.929   5.398
11746TIP3    H235161   8.308   2.914   5.291
11747TIP3   OH235162   8.799   3.040   5.081
11747TIP3    H135163   8.738   3.115   5.064
11747TIP3    H235164   8.826   3.020   4.991
11748TIP3   OH235165   8.942   3.323   6.188
11748TIP3    H135166   8.925   3.255   6.257
11748TIP3    H235167   9.038   3.330   6.191
11749TIP3   OH235168   8.869   3.115   5.353
11749TIP3    H135169   8.849   3.090   5.261
11749TIP3    H235170   8.948   3.059   5.372
11750TIP3   OH235171   8.233   3.096   6.072
11750TIP3    H135172   8.260   3.159   6.141
11750TIP3    H235173   8.220   3.014   6.124
11751TIP3   OH235174   8.272   2.560   4.786
11751TIP3    H135175   8.268   2.569   4.883
11751TIP3    H235176   8.199   2.619   4.758
11752TIP3   OH235177   7.825   2.616   5.657
11752TIP3    H135178   7.900   2.650   5.709
11752TIP3    H235179   7.866   2.588   5.573
11753TIP3   OH235180   7.788   2.598   5.174
11753TIP3    H135181   7.833   2.635   5.095
11753TIP3    H235182   7.727   2.672   5.192
11754TIP3   OH235183   8.911   3.292   5.762
11754TIP3    H135184   8.935   3.210   5.717
11754TIP3    H235185   8.899   3.257   5.853
11755TIP3   OH235186   8.619   2.798   5.435
11755TIP3    H135187   8.545   2.784   5.498
11755TIP3    H235188   8.693   2.755   5.481
11756TIP3   OH235189   8.058   2.835   5.446
11756TIP3    H135190   7.964   2.842   5.417
11756TIP3    H235191   8.081   2.742   5.424
11757TIP3   OH235192   8.323   2.827   5.138
11757TIP3    H135193   8.417   2.844   5.116
11757TIP3    H235194   8.276   2.849   5.055
11758TIP3   OH235195   8.176   2.864   4.913
11758TIP3    H135196   8.106   2.818   4.864
11758TIP3    H235197   8.227   2.902   4.839
11759TIP3   OH235198   9.249   4.607   5.871
11759TIP3    H135199   9.232   4.608   5.776
11759TIP3    H235200   9.320   4.542   5.876
11760TIP3   OH235201   8.243   3.655   6.280
11760TIP3    H135202   8.324   3.681   6.329
11760TIP3    H235203   8.179   3.649   6.353
11761TIP3   OH235204   8.693   3.119   5.558
11761TIP3    H135205   8.757   3.104   5.485
11761TIP3    H235206   8.710   3.045   5.618
11762TIP3   OH235207   8.223   2.592   5.422
11762TIP3    H135208   8.187   2.515   5.472
11762TIP3    H235209   8.270   2.548   5.350
11763TIP3   OH235210   8.686   3.001   5.837
11763TIP3    H135211   8.596   3.039   5.839
11763TIP3    H235212   8.740   3.067   5.884
11764TIP3   OH235213   8.417   3.396   4.920
11764TIP3    H135214   8.347   3.328   4.908
11764TIP3    H235215   8.396   3.428   5.011
11765TIP3   OH235216   8.800   3.710   5.917
11765TIP3    H135217   8.850   3.693   5.997
11765TIP3    H235218   8.766   3.801   5.929
11766TIP3   OH235219   8.117   3.421   5.594
11766TIP3    H135220   8.153   3.389   5.509
11766TIP3    H235221   8.156   3.359   5.657
11767TIP3   OH235222   8.569   3.544   4.746
11767TIP3    H135223   8.518   3.628   4.752
11767TIP3    H235224   8.514   3.486   4.804
11768TIP3   OH235225   7.996   3.334   6.210
11768TIP3    H135226   8.009   3.318   6.306
11768TIP3    H235227   7.925   3.270   6.190
11769TIP3   OH235228   8.710   3.457   6.234
11769TIP3    H135229   8.649   3.394   6.192
11769TIP3    H235230   8.796   3.422   6.203
11770TIP3   OH235231   8.986   3.967   5.808
11770TIP3    H135232   8.889   3.960   5.810
11770TIP3    H235233   9.000   4.021   5.889
11771TIP3   OH235234   9.077   3.439   5.466
11771TIP3    H135235   8.983   3.447   5.493
11771TIP3    H235236   9.064   3.395   5.381
11772TIP3   OH235237   8.214   3.723   5.226
11772TIP3    H135238   8.208   3.802   5.169
11772TIP3    H235239   8.122   3.697   5.234
11773TIP3   OH235240   7.782   3.022   4.932
11773TIP3    H135241   7.824   3.107   4.953
11773TIP3    H235242   7.703   3.025   4.991
11774TIP3   OH235243   8.345   3.485   5.164
11774TIP3    H135244   8.312   3.574   5.187
11774TIP3    H235245   8.311   3.432   5.239
11775TIP3   OH235246   8.486   4.061   5.693
11775TIP3    H135247   8.532   4.135   5.650
11775TIP3    H235248   8.559   4.020   5.743
11776TIP3   OH235249   8.130   3.959   5.073
11776TIP3    H135250   8.045   3.967   5.121
11776TIP3    H235251   8.161   4.052   5.075
11777TIP3   OH235252   8.866   3.693   5.655
11777TIP3    H135253   8.842   3.701   5.751
11777TIP3    H235254   8.932   3.623   5.662
11778TIP3   OH235255   8.769   3.614   4.557
11778TIP3    H135256   8.846   3.585   4.607
11778TIP3    H235257   8.697   3.585   4.617
11779TIP3   OH235258   9.093   4.243   5.716
11779TIP3    H135259   9.033   4.169   5.696
11779TIP3    H235260   9.090   4.294   5.633
11780TIP3   OH235261   8.200   2.842   6.216
11780TIP3    H135262   8.103   2.844   6.226
11780TIP3    H235263   8.227   2.784   6.289
11781TIP3   OH235264   7.922   3.923   5.849
11781TIP3    H135265   7.976   3.848   5.880
11781TIP3    H235266   7.948   3.992   5.911
11782TIP3   OH235267   8.205   3.573   4.535
11782TIP3    H135268   8.222   3.482   4.505
11782TIP3    H235269   8.185   3.559   4.630
11783TIP3   OH235270   8.152   3.576   4.808
11783TIP3    H135271   8.229   3.547   4.859
11783TIP3    H235272   8.159   3.674   4.816
11784TIP3   OH235273   7.889   3.268   5.011
11784TIP3    H135274   7.821   3.312   5.066
11784TIP3    H235275   7.902   3.335   4.942
11785TIP3   OH235276   8.426   3.771   4.757
11785TIP3    H135277   8.338   3.798   4.792
11785TIP3    H235278   8.434   3.832   4.682
11786TIP3   OH235279   8.609   2.839   5.163
11786TIP3    H135280   8.676   2.907   5.146
11786TIP3    H235281   8.612   2.832   5.261
11787TIP3   OH235282   8.893   3.143   5.987
11787TIP3    H135283   8.897   3.209   6.060
11787TIP3    H235284   8.956   3.077   6.018
11788TIP3   OH235285   8.755   2.558   5.271
11788TIP3    H135286   8.784   2.589   5.360
11788TIP3    H235287   8.803   2.621   5.215
11789TIP3   OH235288   8.172   3.850   4.823
11789TIP3    H135289   8.139   3.919   4.762
11789TIP3    H235290   8.153   3.891   4.911
11790TIP3   OH235291   8.269   2.562   5.063
11790TIP3    H135292   8.263   2.652   5.100
11790TIP3    H235293   8.366   2.549   5.068
11791TIP3   OH235294   7.887   3.471   4.813
11791TIP3    H135295   7.961   3.534   4.822
11791TIP3    H235296   7.926   3.411   4.747
11792TIP3   OH235297   7.825   2.751   4.950
11792TIP3    H135298   7.826   2.849   4.948
11792TIP3    H235299   7.747   2.731   4.896
11793TIP3   OH235300   9.160   4.202   5.281
11793TIP3    H135301   9.113   4.246   5.206
11793TIP3    H235302   9.239   4.171   5.235
11794TIP3   OH235303   8.210   2.472   5.819
11794TIP3    H135304   8.183   2.436   5.732
11794TIP3    H235305   8.201   2.394   5.877
11795TIP3   OH235306   7.754   3.698   5.197
11795TIP3    H135307   7.689   3.722   5.264
11795TIP3    H235308   7.715   3.739   5.116
11796TIP3   OH235309   7.915   4.242   6.272
11796TIP3    H135310   8.001   4.241   6.318
11796TIP3    H235311   7.894   4.147   6.271
11797TIP3   OH235312   8.397   4.194   6.321
11797TIP3    H135313   8.489   4.162   6.323
11797TIP3    H235314   8.361   4.134   6.252
11798TIP3   OH235315   8.374   3.773   4.451
11798TIP3    H135316   8.317   3.700   4.484
11798TIP3    H235317   8.445   3.721   4.409
11799TIP3   OH235318   9.012   4.091   6.046
11799TIP3    H135319   9.005   4.025   6.120
11799TIP3    H235320   9.079   4.153   6.080
11800TIP3   OH235321   8.733   3.818   4.387
11800TIP3    H135322   8.760   3.744   4.446
11800TIP3    H235323   8.800   3.813   4.315
11801TIP3   OH235324   8.042   3.643   6.472
11801TIP3    H135325   8.058   3.547   6.480
11801TIP3    H235326   7.955   3.644   6.427
11802TIP3   OH235327   8.020   3.286   4.669
11802TIP3    H135328   8.078   3.254   4.741
11802TIP3    H235329   8.085   3.292   4.596
11803TIP3   OH235330   8.647   3.731   6.248
11803TIP3    H135331   8.608   3.751   6.161
11803TIP3    H235332   8.677   3.639   6.237
11804TIP3   OH235333   8.511   3.480   4.477
11804TIP3    H135334   8.523   3.492   4.573
11804TIP3    H235335   8.525   3.383   4.469
11805TIP3   OH235336   9.091   3.679   5.855
11805TIP3    H135337   9.164   3.695   5.794
11805TIP3    H235338   9.050   3.766   5.863
11806TIP3   OH235339   8.163   3.383   6.457
11806TIP3    H135340   8.237   3.327   6.429
11806TIP3    H235341   8.192   3.411   6.546
11807TIP3   OH235342   8.226   3.197   4.888
11807TIP3    H135343   8.198   3.154   4.970
11807TIP3    H235344   8.264   3.122   4.837
11808TIP3   OH235345   8.501   3.263   6.119
11808TIP3    H135346   8.420   3.319   6.117
11808TIP3    H235347   8.549   3.295   6.039
11809TIP3   OH235348   8.327   2.996   4.727
11809TIP3    H135349   8.300   3.001   4.633
11809TIP3    H235350   8.425   2.997   4.719
11810TIP3   OH235351   9.016   3.657   6.254
11810TIP3    H135352   9.097   3.618   6.216
11810TIP3    H235353   9.000   3.594   6.326
11811TIP3   OH235354   8.611   3.047   6.243
11811TIP3    H135355   8.615   2.970   6.183
11811TIP3    H235356   8.571   3.116   6.185
11812TIP3   OH235357   8.620   2.836   6.053
11812TIP3    H135358   8.651   2.878   5.970
11812TIP3    H235359   8.526   2.815   6.030
11813TIP3   OH235360   8.650   3.367   5.920
11813TIP3    H135361   8.732   3.381   5.871
11813TIP3    H235362   8.590   3.432   5.878
11814TIP3   OH235363   8.495   3.156   6.475
11814TIP3    H135364   8.429   3.086   6.493
11814TIP3    H235365   8.527   3.130   6.386
11815TIP3   OH235366   8.727   2.593   6.139
11815TIP3    H135367   8.681   2.674   6.110
11815TIP3    H235368   8.661   2.524   6.121
11816TIP3   OH235369   8.864   3.112   6.345
11816TIP3    H135370   8.858   3.092   6.440
11816TIP3    H235371   8.776   3.081   6.316
11817TIP3   OH235372   9.115   3.093   6.241
11817TIP3    H135373   9.029   3.095   6.287
11817TIP3    H235374   9.153   3.013   6.279
11818TIP3   OH235375   8.338   2.936   6.531
11818TIP3    H135376   8.339   2.844   6.497
11818TIP3    H235377   8.375   2.922   6.621
11819TIP3   OH235378   8.861   2.599   6.378
11819TIP3    H135379   8.910   2.516   6.379
11819TIP3    H235380   8.803   2.588   6.299
11820TIP3   OH235381   8.915   2.829   6.519
11820TIP3    H135382   8.893   2.759   6.454
11820TIP3    H235383   8.833   2.883   6.521
11821TIP3   OH235384   8.136   4.059   4.640
11821TIP3    H135385   8.230   4.044   4.619
11821TIP3    H235386   8.109   4.106   4.559
11822TIP3   OH235387   7.617   3.433   4.849
11822TIP3    H135388   7.712   3.453   4.834
11822TIP3    H235389   7.609   3.345   4.808
11823TIP3   OH235390   7.533   4.046   5.268
11823TIP3    H135391   7.468   3.984   5.228
11823TIP3    H235392   7.577   3.985   5.332
11824TIP3   OH235393   7.665   3.891   5.455
11824TIP3    H135394   7.653   3.820   5.520
11824TIP3    H235395   7.718   3.953   5.508
11825TIP3   OH235396   7.850   3.303   5.826
11825TIP3    H135397   7.847   3.267   5.734
11825TIP3    H235398   7.948   3.303   5.841
11826TIP3   OH235399   8.073   2.991   6.502
11826TIP3    H135400   8.170   2.983   6.505
11826TIP3    H235401   8.048   2.903   6.536
11827TIP3   OH235402   8.031   2.684   5.830
11827TIP3    H135403   8.091   2.606   5.836
11827TIP3    H235404   8.096   2.756   5.820
11828TIP3   OH235405   7.831   2.954   5.899
11828TIP3    H135406   7.881   2.949   5.815
11828TIP3    H235407   7.863   3.037   5.935
11829TIP3   OH235408   7.819   2.459   5.403
11829TIP3    H135409   7.726   2.452   5.431
11829TIP3    H235410   7.812   2.517   5.324
11830TIP3   OH235411   8.985   4.150   4.897
11830TIP3    H135412   9.058   4.136   4.835
11830TIP3    H235413   9.019   4.222   4.954
11831TIP3   OH235414   8.039   2.541   6.217
11831TIP3    H135415   7.986   2.534   6.298
11831TIP3    H235416   7.973   2.577   6.155
11832TIP3   OH235417   8.076   3.974   6.293
11832TIP3    H135418   7.984   3.945   6.276
11832TIP3    H235419   8.089   3.944   6.383
11833TIP3   OH235420   8.259   4.003   5.843
11833TIP3    H135421   8.211   4.078   5.803
11833TIP3    H235422   8.344   4.014   5.797
11834TIP3   OH235423   8.718   4.227   5.965
11834TIP3    H135424   8.727   4.249   6.059
11834TIP3    H235425   8.766   4.302   5.924
11835TIP3   OH235426   8.890   4.404   5.836
11835TIP3    H135427   8.927   4.341   5.772
11835TIP3    H235428   8.970   4.425   5.887
11836TIP3   OH235429   7.933   4.262   5.863
11836TIP3    H135430   7.842   4.293   5.842
11836TIP3    H235431   7.943   4.298   5.952
11837TIP3   OH235432   8.170   4.236   5.727
11837TIP3    H135433   8.082   4.248   5.769
11837TIP3    H235434   8.151   4.265   5.635
11838TIP3   OH235435   8.591   4.277   5.522
11838TIP3    H135436   8.522   4.275   5.454
11838TIP3    H235437   8.569   4.360   5.567
11839TIP3   OH235438   8.854   4.200   5.570
11839TIP3    H135439   8.763   4.227   5.548
11839TIP3    H235440   8.907   4.268   5.524
11840TIP3   OH235441   9.043   4.377   5.465
11840TIP3    H135442   9.042   4.467   5.427
11840TIP3    H235443   9.078   4.324   5.390
11841TIP3   OH235444   7.845   4.050   5.611
11841TIP3    H135445   7.872   4.020   5.700
11841TIP3    H235446   7.916   4.007   5.558
11842TIP3   OH235447   8.040   3.923   5.470
11842TIP3    H135448   8.053   3.838   5.518
11842TIP3    H235449   8.132   3.956   5.465
11843TIP3   OH235450   8.312   4.015   5.473
11843TIP3    H135451   8.337   3.922   5.461
11843TIP3    H235452   8.360   4.034   5.556
11844TIP3   OH235453   8.839   2.632   5.515
11844TIP3    H135454   8.798   2.590   5.594
11844TIP3    H235455   8.933   2.619   5.536
11845TIP3   OH235456   8.128   2.377   5.571
11845TIP3    H135457   8.035   2.345   5.575
11845TIP3    H235458   8.176   2.292   5.565
11846TIP3   OH235459   7.922   2.252   5.224
11846TIP3    H135460   7.948   2.308   5.149
11846TIP3    H235461   7.892   2.319   5.290
11847TIP3   OH235462   8.572   2.416   5.461
11847TIP3    H135463   8.629   2.463   5.399
11847TIP3    H235464   8.605   2.448   5.547
11848TIP3   OH235465   7.631   3.827   4.994
11848TIP3    H135466   7.546   3.792   4.964
11848TIP3    H235467   7.621   3.920   4.965
11849TIP3   OH235468   8.035   2.406   4.985
11849TIP3    H135469   8.082   2.346   4.924
11849TIP3    H235470   8.109   2.461   5.019
11850TIP3   OH235471   8.547   2.584   5.086
11850TIP3    H135472   8.606   2.549   5.154
11850TIP3    H235473   8.561   2.680   5.102
11851TIP3   OH235474   8.397   4.009   4.584
11851TIP3    H135475   8.483   4.039   4.548
11851TIP3    H235476   8.380   3.934   4.523
11852TIP3   OH235477   8.333   2.662   6.465
11852TIP3    H135478   8.297   2.590   6.521
11852TIP3    H235479   8.427   2.661   6.495
11853TIP3   OH235480   8.581   2.660   6.587
11853TIP3    H135481   8.668   2.632   6.556
11853TIP3    H235482   8.564   2.594   6.659
11854TIP3   OH235483   7.711   3.847   4.636
11854TIP3    H135484   7.712   3.857   4.732
11854TIP3    H235485   7.797   3.801   4.619
11855TIP3   OH235486   9.293   4.233   5.906
11855TIP3    H135487   9.216   4.219   5.848
11855TIP3    H235488   9.334   4.309   5.862
11856TIP3   OH235489   1.273   4.177   6.829
11856TIP3    H135490   1.240   4.266   6.807
11856TIP3    H235491   1.200   4.123   6.793
11857TIP3   OH235492   1.268   4.180   7.220
11857TIP3    H135493   1.307   4.154   7.306
11857TIP3    H235494   1.230   4.097   7.189
11858TIP3   OH235495   0.581   4.031   7.573
11858TIP3    H135496   0.622   3.972   7.639
11858TIP3    H235497   0.652   4.095   7.556
11859TIP3   OH235498   1.513   4.476   6.890
11859TIP3    H135499   1.502   4.408   6.957
11859TIP3    H235500   1.545   4.551   6.944
11860TIP3   OH235501   0.574   4.484   7.319
11860TIP3    H135502   0.560   4.389   7.338
11860TIP3    H235503   0.670   4.485   7.300
11861TIP3   OH235504   8.815   1.984   5.372
11861TIP3    H135505   8.781   2.073   5.382
11861TIP3    H235506   8.740   1.930   5.403
11862TIP3   OH235507   0.321   3.964   7.239
11862TIP3    H135508   0.374   3.883   7.253
11862TIP3    H235509   0.325   3.976   7.142
11863TIP3   OH235510   1.072   4.404   7.258
11863TIP3    H135511   1.115   4.325   7.219
11863TIP3    H235512   1.154   4.452   7.284
11864TIP3   OH235513   2.088   3.721   7.260
11864TIP3    H135514   2.116   3.805   7.301
11864TIP3    H235515   2.110   3.736   7.167
11865TIP3   OH235516   1.482   3.902   7.290
11865TIP3    H135517   1.526   3.817   7.310
11865TIP3    H235518   1.450   3.884   7.199
11866TIP3   OH235519   0.826   3.563   7.254
11866TIP3    H135520   0.805   3.635   7.190
11866TIP3    H235521   0.778   3.489   7.212
11867TIP3   OH235522   1.519   3.657   6.877
11867TIP3    H135523   1.591   3.642   6.942
11867TIP3    H235524   1.571   3.690   6.801
11868TIP3   OH235525   0.465   3.756   7.352
11868TIP3    H135526   0.551   3.742   7.395
11868TIP3    H235527   0.474   3.697   7.274
11869TIP3   OH235528   0.896   3.962   7.154
11869TIP3    H135529   0.990   3.937   7.165
11869TIP3    H235530   0.857   3.878   7.122
11870TIP3   OH235531   2.161   3.931   7.431
11870TIP3    H135532   2.076   3.977   7.413
11870TIP3    H235533   2.184   3.969   7.518
11871TIP3   OH235534   0.817   3.548   7.692
11871TIP3    H135535   0.763   3.587   7.620
11871TIP3    H235536   0.759   3.566   7.768
11872TIP3   OH235537   1.152   4.392   6.701
11872TIP3    H135538   1.121   4.378   6.611
11872TIP3    H235539   1.107   4.475   6.726
11873TIP3   OH235540   0.934   4.321   7.479
11873TIP3    H135541   0.874   4.392   7.513
11873TIP3    H235542   0.979   4.367   7.405
11874TIP3   OH235543   1.721   3.662   7.058
11874TIP3    H135544   1.705   3.619   7.143
11874TIP3    H235545   1.774   3.740   7.084
11875TIP3   OH235546   0.695   3.662   7.473
11875TIP3    H135547   0.755   3.736   7.496
11875TIP3    H235548   0.744   3.622   7.397
11876TIP3   OH235549   0.768   4.524   7.571
11876TIP3    H135550   0.737   4.598   7.516
11876TIP3    H235551   0.695   4.523   7.636
11877TIP3   OH235552   1.571   4.693   7.039
11877TIP3    H135553   1.491   4.700   7.096
11877TIP3    H235554   1.587   4.784   7.014
11878TIP3   OH235555   1.880   3.617   7.424
11878TIP3    H135556   1.793   3.646   7.392
11878TIP3    H235557   1.941   3.652   7.355
11879TIP3   OH235558   1.171   3.259   7.409
11879TIP3    H135559   1.154   3.165   7.427
11879TIP3    H235560   1.094   3.300   7.455
11880TIP3   OH235561   1.293   4.787   6.731
11880TIP3    H135562   1.302   4.691   6.741
11880TIP3    H235563   1.354   4.798   6.656
11881TIP3   OH235564   1.413   4.562   6.652
11881TIP3    H135565   1.401   4.481   6.599
11881TIP3    H235566   1.456   4.524   6.733
11882TIP3   OH235567   1.800   4.644   7.392
11882TIP3    H135568   1.794   4.561   7.339
11882TIP3    H235569   1.768   4.710   7.330
11883TIP3   OH235570   1.104   4.030   6.665
11883TIP3    H135571   1.024   4.081   6.641
11883TIP3    H235572   1.149   4.023   6.578
11884TIP3   OH235573   1.061   3.816   6.377
11884TIP3    H135574   1.130   3.869   6.421
11884TIP3    H235575   1.118   3.753   6.328
11885TIP3   OH235576   2.003   4.273   7.251
11885TIP3    H135577   1.920   4.325   7.255
11885TIP3    H235578   2.036   4.297   7.162
11886TIP3   OH235579   1.451   4.114   6.630
11886TIP3    H135580   1.397   4.136   6.709
11886TIP3    H235581   1.536   4.088   6.672
11887TIP3   OH235582   1.684   4.148   7.552
11887TIP3    H135583   1.682   4.231   7.602
11887TIP3    H235584   1.599   4.152   7.505
11888TIP3   OH235585   0.683   4.106   7.049
11888TIP3    H135586   0.642   4.047   6.982
11888TIP3    H235587   0.760   4.053   7.079
11889TIP3   OH235588   0.826   4.525   7.193
11889TIP3    H135589   0.804   4.485   7.107
11889TIP3    H235590   0.913   4.485   7.212
11890TIP3   OH235591   0.834   4.076   7.402
11890TIP3    H135592   0.861   4.053   7.311
11890TIP3    H235593   0.875   4.164   7.415
11891TIP3   OH235594   1.347   4.724   7.186
11891TIP3    H135595   1.336   4.801   7.244
11891TIP3    H235596   1.329   4.649   7.246
11892TIP3   OH235597   0.965   4.631   7.729
11892TIP3    H135598   0.903   4.698   7.766
11892TIP3    H235599   0.905   4.580   7.671
11893TIP3   OH235600   1.286   3.972   6.460
11893TIP3    H135601   1.347   4.031   6.509
11893TIP3    H235602   1.313   3.991   6.367
11894TIP3   OH235603   0.713   4.197   7.830
11894TIP3    H135604   0.714   4.275   7.888
11894TIP3    H235605   0.625   4.206   7.789
11895TIP3   OH235606   1.042   4.649   6.735
11895TIP3    H135607   1.110   4.716   6.751
11895TIP3    H235608   0.976   4.696   6.683
11896TIP3   OH235609   0.772   4.823   7.787
11896TIP3    H135610   0.743   4.814   7.694
11896TIP3    H235611   0.687   4.816   7.835
11897TIP3   OH235612   1.806   3.206   6.511
11897TIP3    H135613   1.725   3.231   6.559
11897TIP3    H235614   1.823   3.288   6.458
11898TIP3   OH235615   0.551   3.951   6.850
11898TIP3    H135616   0.485   3.980   6.784
11898TIP3    H235617   0.511   3.869   6.881
11899TIP3   OH235618   1.609   4.576   6.065
11899TIP3    H135619   1.617   4.671   6.042
11899TIP3    H235620   1.701   4.544   6.049
11900TIP3   OH235621   2.063   4.977   7.476
11900TIP3    H135622   2.055   4.881   7.483
11900TIP3    H235623   1.972   5.005   7.495
11901TIP3   OH235624   1.146   4.770   7.578
11901TIP3    H135625   1.143   4.860   7.618
11901TIP3    H235626   1.083   4.722   7.636
11902TIP3   OH235627   0.922   4.890   6.539
11902TIP3    H135628   0.876   4.866   6.456
11902TIP3    H235629   0.887   4.978   6.558
11903TIP3   OH235630   1.117   4.796   6.178
11903TIP3    H135631   1.173   4.725   6.138
11903TIP3    H235632   1.159   4.805   6.266
11904TIP3   OH235633   1.173   4.842   6.451
11904TIP3    H135634   1.084   4.859   6.488
11904TIP3    H235635   1.202   4.769   6.507
11905TIP3   OH235636   1.935   4.104   7.732
11905TIP3    H135637   1.853   4.115   7.680
11905TIP3    H235638   1.953   4.009   7.720
11906TIP3   OH235639   0.583   4.565   7.769
11906TIP3    H135640   0.627   4.532   7.850
11906TIP3    H235641   0.511   4.500   7.762
11907TIP3   OH235642   0.936   3.341   7.538
11907TIP3    H135643   0.849   3.308   7.508
11907TIP3    H235644   0.907   3.422   7.585
11908TIP3   OH235645   1.466   3.457   7.729
11908TIP3    H135646   1.538   3.430   7.791
11908TIP3    H235647   1.385   3.439   7.781
11909TIP3   OH235648   1.702   3.884   7.644
11909TIP3    H135649   1.653   3.881   7.729
11909TIP3    H235650   1.682   3.973   7.610
11910TIP3   OH235651   1.368   4.014   6.208
11910TIP3    H135652   1.329   3.992   6.121
11910TIP3    H235653   1.454   4.052   6.180
11911TIP3   OH235654   1.078   3.386   6.509
11911TIP3    H135655   1.041   3.383   6.600
11911TIP3    H235656   1.037   3.306   6.472
11912TIP3   OH235657   0.866   3.858   7.556
11912TIP3    H135658   0.822   3.884   7.640
11912TIP3    H235659   0.854   3.939   7.501
11913TIP3   OH235660   0.748   3.744   7.067
11913TIP3    H135661   0.656   3.714   7.085
11913TIP3    H235662   0.761   3.703   6.978
11914TIP3   OH235663   1.239   3.828   6.800
11914TIP3    H135664   1.190   3.899   6.754
11914TIP3    H235665   1.295   3.794   6.727
11915TIP3   OH235666   1.419   4.111   7.877
11915TIP3    H135667   1.394   4.036   7.935
11915TIP3    H235668   1.514   4.119   7.898
11916TIP3   OH235669   1.394   3.854   7.034
11916TIP3    H135670   1.332   3.880   6.963
11916TIP3    H235671   1.432   3.775   6.989
11917TIP3   OH235672   0.694   3.883   7.777
11917TIP3    H135673   0.740   3.938   7.842
11917TIP3    H235674   0.682   3.799   7.825
11918TIP3   OH235675   0.737   3.364   6.474
11918TIP3    H135676   0.724   3.364   6.571
11918TIP3    H235677   0.660   3.416   6.445
11919TIP3   OH235678   0.295   3.450   7.366
11919TIP3    H135679   0.366   3.460   7.434
11919TIP3    H235680   0.335   3.387   7.306
11920TIP3   OH235681   0.274   3.424   6.879
11920TIP3    H135682   0.309   3.454   6.793
11920TIP3    H235683   0.180   3.448   6.869
11921TIP3   OH235684   1.404   4.099   7.455
11921TIP3    H135685   1.439   4.028   7.395
11921TIP3    H235686   1.375   4.044   7.531
11922TIP3   OH235687   1.084   3.562   7.129
11922TIP3    H135688   1.003   3.562   7.182
11922TIP3    H235689   1.154   3.557   7.197
11923TIP3   OH235690   0.511   3.617   7.123
11923TIP3    H135691   0.418   3.624   7.092
11923TIP3    H235692   0.534   3.524   7.102
11924TIP3   OH235693   0.775   3.617   6.827
11924TIP3    H135694   0.868   3.631   6.804
11924TIP3    H235695   0.727   3.639   6.744
11925TIP3   OH235696   1.569   3.641   7.333
11925TIP3    H135697   1.537   3.655   7.425
11925TIP3    H235698   1.500   3.581   7.299
11926TIP3   OH235699   0.627   3.654   6.602
11926TIP3    H135700   0.558   3.606   6.552
11926TIP3    H235701   0.679   3.692   6.528
11927TIP3   OH235702   1.741   5.331   7.550
11927TIP3    H135703   1.737   5.353   7.455
11927TIP3    H235704   1.825   5.373   7.577
11928TIP3   OH235705   0.678   4.439   7.996
11928TIP3    H135706   0.762   4.473   8.034
11928TIP3    H235707   0.640   4.396   8.074
11929TIP3   OH235708   1.159   3.895   7.226
11929TIP3    H135709   1.232   3.857   7.176
11929TIP3    H235710   1.165   3.849   7.311
11930TIP3   OH235711   0.680   3.378   7.112
11930TIP3    H135712   0.641   3.301   7.159
11930TIP3    H235713   0.717   3.336   7.033
11931TIP3   OH235714   1.135   3.793   7.517
11931TIP3    H135715   1.045   3.830   7.531
11931TIP3    H235716   1.192   3.856   7.566
11932TIP3   OH235717   0.869   4.181   6.609
11932TIP3    H135718   0.799   4.114   6.597
11932TIP3    H235719   0.851   4.212   6.701
11933TIP3   OH235720   1.770   4.419   7.238
11933TIP3    H135721   1.795   4.468   7.157
11933TIP3    H235722   1.686   4.375   7.211
11934TIP3   OH235723   1.331   3.486   6.489
11934TIP3    H135724   1.234   3.467   6.490
11934TIP3    H235725   1.335   3.582   6.503
11935TIP3   OH235726   1.261   4.490   7.611
11935TIP3    H135727   1.307   4.478   7.695
11935TIP3    H235728   1.241   4.585   7.611
11936TIP3   OH235729   1.397   3.744   6.583
11936TIP3    H135730   1.494   3.749   6.594
11936TIP3    H235731   1.377   3.821   6.527
11937TIP3   OH235732   0.557   4.211   7.274
11937TIP3    H135733   0.599   4.173   7.193
11937TIP3    H235734   0.579   4.143   7.340
11938TIP3   OH235735   1.020   4.332   6.439
11938TIP3    H135736   0.971   4.417   6.443
11938TIP3    H235737   0.964   4.275   6.497
11939TIP3   OH235738   1.175   4.238   7.913
11939TIP3    H135739   1.118   4.186   7.855
11939TIP3    H235740   1.264   4.207   7.885
11940TIP3   OH235741   1.425   4.739   7.527
11940TIP3    H135742   1.330   4.759   7.520
11940TIP3    H235743   1.454   4.806   7.592
11941TIP3   OH235744   1.836   3.836   6.414
11941TIP3    H135745   1.775   3.792   6.351
11941TIP3    H235746   1.835   3.926   6.373
11942TIP3   OH235747   2.053   4.682   7.493
11942TIP3    H135748   1.956   4.683   7.476
11942TIP3    H235749   2.085   4.657   7.403
11943TIP3   OH235750   1.537   4.647   6.325
11943TIP3    H135751   1.520   4.567   6.375
11943TIP3    H235752   1.557   4.612   6.235
11944TIP3   OH235753   1.537   4.280   7.155
11944TIP3    H135754   1.443   4.256   7.167
11944TIP3    H235755   1.570   4.199   7.111
11945TIP3   OH235756   0.673   4.508   6.909
11945TIP3    H135757   0.668   4.586   6.851
11945TIP3    H235758   0.589   4.513   6.956
11946TIP3   OH235759   0.220   3.810   6.611
11946TIP3    H135760   0.273   3.890   6.631
11946TIP3    H235761   0.136   3.833   6.656
11947TIP3   OH235762   0.800   4.268   6.854
11947TIP3    H135763   0.764   4.357   6.873
11947TIP3    H235764   0.766   4.217   6.929
11948TIP3   OH235765   0.950   4.852   7.377
11948TIP3    H135766   0.998   4.922   7.328
11948TIP3    H235767   1.023   4.812   7.428
11949TIP3   OH235768   0.579   4.751   6.763
11949TIP3    H135769   0.500   4.769   6.816
11949TIP3    H235770   0.622   4.839   6.763
11950TIP3   OH235771   1.320   4.488   7.341
11950TIP3    H135772   1.308   4.481   7.438
11950TIP3    H235773   1.400   4.435   7.328
11951TIP3   OH235774   1.302   4.384   6.227
11951TIP3    H135775   1.354   4.360   6.306
11951TIP3    H235776   1.215   4.347   6.250
11952TIP3   OH235777   1.637   4.849   6.042
11952TIP3    H135778   1.679   4.919   5.989
11952TIP3    H235779   1.558   4.899   6.073
11953TIP3   OH235780   0.655   3.640   7.911
11953TIP3    H135781   0.561   3.638   7.932
11953TIP3    H235782   0.691   3.584   7.981
11954TIP3   OH235783   1.463   4.325   6.447
11954TIP3    H135784   1.450   4.252   6.512
11954TIP3    H235785   1.559   4.313   6.429
11955TIP3   OH235786   0.663   4.358   6.220
11955TIP3    H135787   0.675   4.264   6.194
11955TIP3    H235788   0.647   4.349   6.316
11956TIP3   OH235789   0.623   4.366   6.491
11956TIP3    H135790   0.695   4.334   6.548
11956TIP3    H235791   0.626   4.463   6.504
11957TIP3   OH235792   0.341   4.047   6.682
11957TIP3    H135793   0.333   4.101   6.761
11957TIP3    H235794   0.344   4.118   6.613
11958TIP3   OH235795   1.495   3.694   7.592
11958TIP3    H135796   1.576   3.734   7.628
11958TIP3    H235797   1.484   3.614   7.647
11959TIP3   OH235798   1.378   3.439   6.763
11959TIP3    H135799   1.362   3.458   6.669
11959TIP3    H235800   1.416   3.523   6.795
11960TIP3   OH235801   0.881   4.564   6.448
11960TIP3    H135802   0.792   4.590   6.481
11960TIP3    H235803   0.886   4.617   6.368
11961TIP3   OH235804   1.059   3.626   6.860
11961TIP3    H135805   1.123   3.698   6.842
11961TIP3    H235806   1.067   3.617   6.957
11962TIP3   OH235807   1.333   3.939   7.663
11962TIP3    H135808   1.360   3.988   7.743
11962TIP3    H235809   1.386   3.857   7.671
11963TIP3   OH235810   1.203   3.343   6.959
11963TIP3    H135811   1.193   3.423   7.014
11963TIP3    H235812   1.267   3.376   6.891
11964TIP3   OH235813   0.625   4.638   6.514
11964TIP3    H135814   0.593   4.707   6.452
11964TIP3    H235815   0.605   4.680   6.601
11965TIP3   OH235816   0.719   3.351   6.751
11965TIP3    H135817   0.715   3.441   6.788
11965TIP3    H235818   0.815   3.335   6.757
11966TIP3   OH235819   1.970   3.841   7.650
11966TIP3    H135820   1.872   3.838   7.653
11966TIP3    H235821   1.986   3.803   7.563
11967TIP3   OH235822   1.622   4.036   7.035
11967TIP3    H135823   1.547   3.976   7.046
11967TIP3    H235824   1.694   3.988   7.083
11968TIP3   OH235825   0.357   4.261   6.516
11968TIP3    H135826   0.420   4.334   6.510
11968TIP3    H235827   0.389   4.206   6.442
11969TIP3   OH235828   0.279   3.543   6.632
11969TIP3    H135829   0.285   3.641   6.630
11969TIP3    H235830   0.188   3.531   6.603
11970TIP3   OH235831   1.571   5.000   6.955
11970TIP3    H135832   1.649   5.044   6.911
11970TIP3    H235833   1.605   4.996   7.046
11971TIP3   OH235834   0.676   3.257   7.506
11971TIP3    H135835   0.641   3.224   7.420
11971TIP3    H235836   0.663   3.179   7.564
11972TIP3   OH235837   0.855   5.008   7.980
11972TIP3    H135838   0.938   4.969   8.009
11972TIP3    H235839   0.828   4.945   7.911
11973TIP3   OH235840   0.829   4.561   6.140
11973TIP3    H135841   0.773   4.485   6.169
11973TIP3    H235842   0.902   4.514   6.097
11974TIP3   OH235843   1.474   4.904   7.747
11974TIP3    H135844   1.473   4.828   7.810
11974TIP3    H235845   1.557   4.949   7.770
11975TIP3   OH235846   1.259   4.600   6.049
11975TIP3    H135847   1.302   4.534   6.108
11975TIP3    H235848   1.314   4.596   5.968
11976TIP3   OH235849   0.470   4.070   6.355
11976TIP3    H135850   0.526   4.041   6.429
11976TIP3    H235851   0.537   4.076   6.284
11977TIP3   OH235852   1.103   4.515   7.938
11977TIP3    H135853   1.066   4.538   7.850
11977TIP3    H235854   1.135   4.423   7.924
11978TIP3   OH235855   0.991   4.277   6.169
11978TIP3    H135856   0.991   4.287   6.266
11978TIP3    H235857   0.992   4.179   6.160
11979TIP3   OH235858   1.597   4.526   7.544
11979TIP3    H135859   1.672   4.569   7.497
11979TIP3    H235860   1.529   4.595   7.533
11980TIP3   OH235861   0.600   4.175   8.142
11980TIP3    H135862   0.660   4.110   8.103
11980TIP3    H235863   0.603   4.151   8.235
11981TIP3   OH235864   0.678   3.984   6.576
11981TIP3    H135865   0.655   3.939   6.659
11981TIP3    H235866   0.717   3.910   6.524
11982TIP3   OH235867   0.944   4.040   7.805
11982TIP3    H135868   0.870   4.104   7.806
11982TIP3    H235869   0.999   4.075   7.731
11983TIP3   OH235870   0.784   3.782   6.417
11983TIP3    H135871   0.759   3.787   6.323
11983TIP3    H235872   0.881   3.782   6.410
11984TIP3   OH235873   1.472   4.448   7.940
11984TIP3    H135874   1.543   4.413   7.885
11984TIP3    H235875   1.463   4.379   8.008
11985TIP3   OH235876   1.599   4.105   6.088
11985TIP3    H135877   1.582   4.061   6.002
11985TIP3    H235878   1.566   4.195   6.066
11986TIP3   OH235879   1.072   3.834   7.937
11986TIP3    H135880   1.079   3.757   7.877
11986TIP3    H235881   1.031   3.900   7.878
11987TIP3   OH235882   1.076   3.625   7.743
11987TIP3    H135883   1.105   3.666   7.659
11987TIP3    H235884   0.983   3.601   7.721
11988TIP3   OH235885   1.101   4.158   7.622
11988TIP3    H135886   1.187   4.167   7.579
11988TIP3    H235887   1.046   4.221   7.571
11989TIP3   OH235888   1.684   4.120   7.984
11989TIP3    H135889   1.728   4.043   8.023
11989TIP3    H235890   1.758   4.168   7.944
11990TIP3   OH235891   1.722   4.380   7.731
11990TIP3    H135892   1.666   4.435   7.671
11990TIP3    H235893   1.810   4.399   7.693
11991TIP3   OH235894   0.902   3.952   8.137
11991TIP3    H135895   0.888   3.856   8.135
11991TIP3    H235896   0.973   3.960   8.071
11992TIP3   OH235897   1.207   3.388   7.820
11992TIP3    H135898   1.157   3.468   7.792
11992TIP3    H235899   1.140   3.317   7.803
11993TIP3   OH235900   1.337   3.895   8.015
11993TIP3    H135901   1.356   3.884   8.110
11993TIP3    H235902   1.245   3.863   8.007
11994TIP3   OH235903   1.568   3.839   7.871
11994TIP3    H135904   1.495   3.840   7.935
11994TIP3    H235905   1.645   3.816   7.927
11995TIP3   OH235906   1.800   3.790   8.011
11995TIP3    H135907   1.813   3.694   8.028
11995TIP3    H235908   1.794   3.827   8.102
11996TIP3   OH235909   1.343   3.381   8.059
11996TIP3    H135910   1.388   3.298   8.034
11996TIP3    H235911   1.277   3.388   7.986
11997TIP3   OH235912   1.408   3.616   8.188
11997TIP3    H135913   1.399   3.536   8.132
11997TIP3    H235914   1.317   3.623   8.224
11998TIP3   OH235915   0.593   4.850   6.337
11998TIP3    H135916   0.687   4.837   6.314
11998TIP3    H235917   0.562   4.886   6.252
11999TIP3   OH235918   1.821   5.105   6.918
11999TIP3    H135919   1.822   5.101   7.016
11999TIP3    H235920   1.913   5.125   6.896
12000TIP3   OH235921   1.923   4.779   7.801
12000TIP3    H135922   1.850   4.792   7.864
12000TIP3    H235923   1.966   4.867   7.802
12001TIP3   OH235924   1.738   4.294   6.417
12001TIP3    H135925   1.805   4.357   6.384
12001TIP3    H235926   1.785   4.256   6.494
12002TIP3   OH235927   1.867   4.160   6.620
12002TIP3    H135928   1.800   4.119   6.679
12002TIP3    H235929   1.933   4.195   6.684
12003TIP3   OH235930   1.924   4.554   7.052
12003TIP3    H135931   1.977   4.485   7.007
12003TIP3    H235932   1.920   4.624   6.984
12004TIP3   OH235933   1.804   4.070   6.266
12004TIP3    H135934   1.732   4.070   6.198
12004TIP3    H235935   1.774   4.146   6.320
12005TIP3   OH235936   1.672   3.742   6.221
12005TIP3    H135937   1.632   3.775   6.140
12005TIP3    H235938   1.650   3.646   6.213
12006TIP3   OH235939   1.677   4.020   6.765
12006TIP3    H135940   1.686   3.924   6.755
12006TIP3    H235941   1.663   4.030   6.862
12007TIP3   OH235942   0.322   4.013   7.510
12007TIP3    H135943   0.321   3.996   7.413
12007TIP3    H235944   0.418   4.035   7.522
12008TIP3   OH235945   1.968   4.444   7.625
12008TIP3    H135946   2.038   4.376   7.613
12008TIP3    H235947   1.998   4.515   7.566
12009TIP3   OH235948   2.147   4.242   7.632
12009TIP3    H135949   2.075   4.190   7.674
12009TIP3    H235950   2.223   4.182   7.648
12010TIP3   OH235951   1.617   3.476   6.204
12010TIP3    H135952   1.687   3.440   6.261
12010TIP3    H235953   1.540   3.418   6.220
12011TIP3   OH235954   1.678   3.737   6.657
12011TIP3    H135955   1.719   3.648   6.671
12011TIP3    H235956   1.734   3.769   6.584
12012TIP3   OH235957   1.835   3.903   7.156
12012TIP3    H135958   1.920   3.927   7.114
12012TIP3    H235959   1.851   3.942   7.245
12013TIP3   OH235960   1.909   4.051   7.386
12013TIP3    H135961   1.832   4.086   7.434
12013TIP3    H235962   1.942   4.132   7.340
12014TIP3   OH235963   2.349   3.619   7.951
12014TIP3    H135964   2.412   3.572   7.892
12014TIP3    H235965   2.326   3.697   7.896
12015TIP3   OH235966   1.785   3.486   6.698
12015TIP3    H135967   1.832   3.468   6.782
12015TIP3    H235968   1.723   3.410   6.696
12016TIP3   OH235969   0.503   3.469   7.543
12016TIP3    H135970   0.563   3.392   7.544
12016TIP3    H235971   0.565   3.542   7.526
12017TIP3   OH235972   0.330   3.750   7.592
12017TIP3    H135973   0.381   3.720   7.514
12017TIP3    H235974   0.336   3.846   7.578
12018TIP3   OH235975   2.232   3.780   7.759
12018TIP3    H135976   2.153   3.824   7.797
12018TIP3    H235977   2.190   3.715   7.700
12019TIP3   OH235978   1.863   3.413   6.336
12019TIP3    H135979   1.901   3.346   6.276
12019TIP3    H235980   1.927   3.486   6.330
12020TIP3   OH235981   0.272   3.234   7.067
12020TIP3    H135982   0.199   3.274   7.118
12020TIP3    H235983   0.284   3.303   6.998
12021TIP3   OH235984   1.467   4.995   6.617
12021TIP3    H135985   1.477   4.955   6.528
12021TIP3    H235986   1.517   5.078   6.600
12022TIP3   OH235987   0.503   3.323   7.920
12022TIP3    H135988   0.476   3.314   8.011
12022TIP3    H235989   0.424   3.364   7.879
12023TIP3   OH235990   0.719   4.801   7.514
12023TIP3    H135991   0.673   4.876   7.474
12023TIP3    H235992   0.807   4.810   7.470
12024TIP3   OH235993   1.150   5.033   7.673
12024TIP3    H135994   1.194   5.032   7.760
12024TIP3    H235995   1.213   5.085   7.620
12025TIP3   OH235996   1.322   5.187   7.525
12025TIP3    H135997   1.382   5.129   7.476
12025TIP3    H235998   1.386   5.237   7.582
12026TIP3   OH235999   2.125   3.545   7.628
12026TIP3    H136000   2.037   3.538   7.588
12026TIP3    H236001   2.159   3.453   7.617
12027TIP3   OH236002   0.626   5.049   7.412
12027TIP3    H136003   0.548   5.066   7.468
12027TIP3    H236004   0.592   5.078   7.325
12028TIP3   OH236005   1.051   5.057   7.208
12028TIP3    H136006   0.981   5.076   7.143
12028TIP3    H236007   1.061   5.143   7.254
12029TIP3   OH236008   1.309   4.984   7.276
12029TIP3    H136009   1.220   5.008   7.244
12029TIP3    H236010   1.367   5.045   7.229
12030TIP3   OH236011   0.518   4.675   7.133
12030TIP3    H136012   0.521   4.605   7.203
12030TIP3    H236013   0.603   4.720   7.150
12031TIP3   OH236014   0.780   4.815   7.159
12031TIP3    H136015   0.806   4.723   7.140
12031TIP3    H236016   0.829   4.829   7.242
12032TIP3   OH236017   1.333   3.459   7.251
12032TIP3    H136018   1.292   3.386   7.300
12032TIP3    H236019   1.407   3.415   7.204
12033TIP3   OH236020   1.851   3.341   7.152
12033TIP3    H136021   1.888   3.392   7.077
12033TIP3    H236022   1.756   3.361   7.145
12034TIP3   OH236023   1.948   3.436   6.916
12034TIP3    H136024   2.022   3.385   6.877
12034TIP3    H236025   1.982   3.527   6.901
12035TIP3   OH236026   0.574   3.165   7.261
12035TIP3    H136027   0.482   3.130   7.263
12035TIP3    H236028   0.624   3.081   7.256
12036TIP3   OH236029   0.377   3.030   6.917
12036TIP3    H136030   0.398   3.084   6.839
12036TIP3    H236031   0.345   3.099   6.980
12037TIP3   OH236032   1.030   3.197   7.144
12037TIP3    H136033   1.083   3.245   7.079
12037TIP3    H236034   1.057   3.239   7.227
12038TIP3   OH236035   1.566   3.349   7.127
12038TIP3    H136036   1.569   3.309   7.039
12038TIP3    H236037   1.556   3.269   7.184
12039TIP3   OH236038   1.602   3.274   6.691
12039TIP3    H136039   1.516   3.318   6.707
12039TIP3    H236040   1.586   3.187   6.734
12040TIP3   OH236041   0.492   3.190   6.677
12040TIP3    H136042   0.539   3.130   6.616
12040TIP3    H236043   0.565   3.246   6.711
12041TIP3   OH236044   0.995   3.375   6.773
12041TIP3    H136045   1.056   3.329   6.832
12041TIP3    H236046   1.016   3.468   6.797
12042TIP3   OH236047   0.857   4.798   6.273
12042TIP3    H136048   0.946   4.818   6.236
12042TIP3    H236049   0.833   4.724   6.212
12043TIP3   OH236050   1.560   4.915   6.373
12043TIP3    H136051   1.557   4.817   6.358
12043TIP3    H236052   1.525   4.946   6.287
12044TIP3   OH236053   1.853   3.521   8.034
12044TIP3    H136054   1.859   3.474   8.120
12044TIP3    H236055   1.946   3.517   8.003
12045TIP3   OH236056   1.797   5.055   7.546
12045TIP3    H136057   1.773   5.035   7.453
12045TIP3    H236058   1.773   5.150   7.550
12046TIP3   OH236059   3.069   4.436   6.315
12046TIP3    H136060   3.036   4.525   6.291
12046TIP3    H236061   2.996   4.382   6.279
12047TIP3   OH236062   3.072   4.436   6.704
12047TIP3    H136063   3.105   4.408   6.791
12047TIP3    H236064   3.029   4.356   6.672
12048TIP3   OH236065   2.363   4.325   7.067
12048TIP3    H136066   2.394   4.255   7.128
12048TIP3    H236067   2.443   4.380   7.061
12049TIP3   OH236068   3.317   4.737   6.383
12049TIP3    H136069   3.294   4.669   6.448
12049TIP3    H236070   3.344   4.811   6.439
12050TIP3   OH236071   2.339   4.739   6.786
12050TIP3    H136072   2.332   4.641   6.786
12050TIP3    H236073   2.436   4.748   6.779
12051TIP3   OH236074   2.045   3.937   6.569
12051TIP3    H136075   1.997   4.020   6.587
12051TIP3    H236076   1.974   3.887   6.523
12052TIP3   OH236077   2.102   4.227   6.752
12052TIP3    H136078   2.152   4.149   6.784
12052TIP3    H236079   2.162   4.264   6.686
12053TIP3   OH236080   2.970   5.200   6.403
12053TIP3    H136081   3.007   5.130   6.346
12053TIP3    H236082   2.952   5.152   6.484
12054TIP3   OH236083   2.864   4.662   6.748
12054TIP3    H136084   2.904   4.586   6.703
12054TIP3    H236085   2.947   4.708   6.775
12055TIP3   OH236086   3.885   3.977   6.747
12055TIP3    H136087   3.913   4.063   6.785
12055TIP3    H236088   3.904   3.992   6.652
12056TIP3   OH236089   3.280   4.157   6.776
12056TIP3    H136090   3.322   4.071   6.796
12056TIP3    H236091   3.246   4.141   6.686
12057TIP3   OH236092   2.623   3.819   6.742
12057TIP3    H136093   2.601   3.892   6.680
12057TIP3    H236094   2.573   3.746   6.699
12058TIP3   OH236095   3.315   3.914   6.364
12058TIP3    H136096   3.387   3.898   6.428
12058TIP3    H236097   3.367   3.947   6.288
12059TIP3   OH236098   2.250   4.020   6.853
12059TIP3    H136099   2.334   4.002   6.900
12059TIP3    H236100   2.264   3.966   6.772
12060TIP3   OH236101   2.689   4.218   6.650
12060TIP3    H136102   2.784   4.195   6.660
12060TIP3    H236103   2.651   4.135   6.615
12061TIP3   OH236104   3.958   4.190   6.914
12061TIP3    H136105   3.873   4.234   6.892
12061TIP3    H236106   3.967   4.217   7.007
12062TIP3   OH236107   2.613   3.803   7.180
12062TIP3    H136108   2.555   3.840   7.111
12062TIP3    H236109   2.559   3.822   7.259
12063TIP3   OH236110   2.954   4.652   6.185
12063TIP3    H136111   2.917   4.640   6.096
12063TIP3    H236112   2.908   4.734   6.213
12064TIP3   OH236113   2.720   4.579   6.970
12064TIP3    H136114   2.660   4.648   7.006
12064TIP3    H236115   2.762   4.627   6.895
12065TIP3   OH236116   3.518   3.917   6.544
12065TIP3    H136117   3.497   3.876   6.629
12065TIP3    H236118   3.569   3.996   6.572
12066TIP3   OH236119   2.487   3.917   6.961
12066TIP3    H136120   2.548   3.990   6.985
12066TIP3    H236121   2.537   3.878   6.886
12067TIP3   OH236122   2.548   4.775   7.070
12067TIP3    H136123   2.524   4.863   7.034
12067TIP3    H236124   2.469   4.758   7.125
12068TIP3   OH236125   1.937   4.465   6.306
12068TIP3    H136126   1.901   4.488   6.219
12068TIP3    H236127   1.971   4.551   6.338
12069TIP3   OH236128   3.382   4.983   6.548
12069TIP3    H136129   3.292   4.973   6.588
12069TIP3    H236130   3.371   5.068   6.501
12070TIP3   OH236131   3.676   3.879   6.913
12070TIP3    H136132   3.588   3.902   6.879
12070TIP3    H236133   3.735   3.910   6.841
12071TIP3   OH236134   2.966   3.518   6.897
12071TIP3    H136135   2.948   3.424   6.913
12071TIP3    H236136   2.889   3.558   6.943
12072TIP3   OH236137   3.078   5.027   6.216
12072TIP3    H136138   3.127   4.943   6.199
12072TIP3    H236139   3.142   5.091   6.177
12073TIP3   OH236140   3.222   4.811   6.134
12073TIP3    H136141   3.193   4.730   6.090
12073TIP3    H236142   3.262   4.775   6.217
12074TIP3   OH236143   3.608   4.890   6.891
12074TIP3    H136144   3.593   4.812   6.833
12074TIP3    H236145   3.588   4.964   6.830
12075TIP3   OH236146   2.901   4.286   6.152
12075TIP3    H136147   2.820   4.338   6.132
12075TIP3    H236148   2.943   4.282   6.065
12076TIP3   OH236149   2.858   4.071   5.866
12076TIP3    H136150   2.926   4.125   5.909
12076TIP3    H236151   2.915   4.008   5.816
12077TIP3   OH236152   3.803   4.534   6.741
12077TIP3    H136153   3.717   4.583   6.743
12077TIP3    H236154   3.832   4.555   6.650
12078TIP3   OH236155   3.247   4.370   6.118
12078TIP3    H136156   3.192   4.393   6.196
12078TIP3    H236157   3.331   4.345   6.161
12079TIP3   OH236158   3.480   4.405   7.037
12079TIP3    H136159   3.475   4.490   7.085
12079TIP3    H236160   3.393   4.406   6.991
12080TIP3   OH236161   2.477   4.364   6.540
12080TIP3    H136162   2.436   4.306   6.472
12080TIP3    H236163   2.554   4.310   6.568
12081TIP3   OH236164   2.607   4.779   6.683
12081TIP3    H136165   2.587   4.746   6.594
12081TIP3    H236166   2.696   4.740   6.700
12082TIP3   OH236167   2.612   4.336   6.893
12082TIP3    H136168   2.645   4.310   6.804
12082TIP3    H236169   2.657   4.422   6.908
12083TIP3   OH236170   3.142   4.974   6.673
12083TIP3    H136171   3.129   5.053   6.728
12083TIP3    H236172   3.124   4.901   6.734
12084TIP3   OH236173   2.748   4.900   7.214
12084TIP3    H136174   2.686   4.960   7.261
12084TIP3    H236175   2.685   4.843   7.165
12085TIP3   OH236176   3.084   4.226   5.945
12085TIP3    H136177   3.144   4.288   5.994
12085TIP3    H236178   3.110   4.246   5.852
12086TIP3   OH236179   2.509   4.442   7.322
12086TIP3    H136180   2.513   4.533   7.360
12086TIP3    H236181   2.414   4.423   7.334
12087TIP3   OH236182   2.833   4.901   6.227
12087TIP3    H136183   2.915   4.954   6.228
12087TIP3    H236184   2.773   4.955   6.173
12088TIP3   OH236185   2.545   5.065   7.302
12088TIP3    H136186   2.509   5.062   7.211
12088TIP3    H236187   2.465   5.043   7.356
12089TIP3   OH236188   3.603   3.462   5.999
12089TIP3    H136189   3.521   3.486   6.046
12089TIP3    H236190   3.619   3.544   5.946
12090TIP3   OH236191   2.344   4.208   6.345
12090TIP3    H136192   2.277   4.253   6.289
12090TIP3    H236193   2.308   4.119   6.350
12091TIP3   OH236194   3.405   4.829   5.546
12091TIP3    H136195   3.413   4.925   5.529
12091TIP3    H236196   3.497   4.799   5.532
12092TIP3   OH236197   2.127   4.593   7.249
12092TIP3    H136198   2.060   4.570   7.181
12092TIP3    H236199   2.165   4.506   7.271
12093TIP3   OH236200   1.981   4.785   6.880
12093TIP3    H136201   2.077   4.777   6.868
12093TIP3    H236202   1.976   4.858   6.943
12094TIP3   OH236203   3.844   5.241   6.941
12094TIP3    H136204   3.843   5.144   6.953
12094TIP3    H236205   3.760   5.265   6.986
12095TIP3   OH236206   2.946   5.022   7.070
12095TIP3    H136207   2.943   5.114   7.105
12095TIP3    H236208   2.876   4.980   7.125
12096TIP3   OH236209   2.717   5.148   6.024
12096TIP3    H136210   2.668   5.126   5.942
12096TIP3    H236211   2.678   5.233   6.050
12097TIP3   OH236212   2.149   4.998   6.412
12097TIP3    H136213   2.196   4.989   6.498
12097TIP3    H236214   2.103   4.912   6.406
12098TIP3   OH236215   2.914   5.054   5.662
12098TIP3    H136216   2.972   4.983   5.626
12098TIP3    H236217   2.948   5.062   5.754
12099TIP3   OH236218   2.967   5.102   5.932
12099TIP3    H136219   2.877   5.111   5.970
12099TIP3    H236220   3.013   5.057   6.005
12100TIP3   OH236221   3.733   4.366   7.214
12100TIP3    H136222   3.648   4.377   7.167
12100TIP3    H236223   3.748   4.270   7.203
12101TIP3   OH236224   2.328   4.778   7.232
12101TIP3    H136225   2.379   4.758   7.314
12101TIP3    H236226   2.254   4.715   7.240
12102TIP3   OH236227   2.730   3.597   7.027
12102TIP3    H136228   2.642   3.567   6.996
12102TIP3    H236229   2.702   3.678   7.074
12103TIP3   OH236230   3.265   3.711   7.219
12103TIP3    H136231   3.333   3.684   7.283
12103TIP3    H236232   3.181   3.692   7.266
12104TIP3   OH236233   3.503   4.145   7.140
12104TIP3    H136234   3.449   4.141   7.222
12104TIP3    H236235   3.477   4.230   7.101
12105TIP3   OH236236   3.157   4.265   5.687
12105TIP3    H136237   3.129   4.246   5.595
12105TIP3    H236238   3.245   4.304   5.669
12106TIP3   OH236239   2.876   3.642   5.997
12106TIP3    H136240   2.838   3.639   6.087
12106TIP3    H236241   2.834   3.562   5.959
12107TIP3   OH236242   2.662   4.114   7.041
12107TIP3    H136243   2.612   4.135   7.123
12107TIP3    H236244   2.646   4.196   6.989
12108TIP3   OH236245   2.546   4.000   6.556
12108TIP3    H136246   2.453   3.975   6.574
12108TIP3    H236247   2.557   3.960   6.467
12109TIP3   OH236248   3.036   4.085   6.287
12109TIP3    H136249   2.986   4.156   6.241
12109TIP3    H236250   3.091   4.051   6.214
12110TIP3   OH236251   3.212   4.359   7.367
12110TIP3    H136252   3.186   4.289   7.430
12110TIP3    H236253   3.305   4.372   7.392
12111TIP3   OH236254   3.192   4.111   6.520
12111TIP3    H136255   3.128   4.138   6.451
12111TIP3    H236256   3.228   4.032   6.475
12112TIP3   OH236257   2.481   4.142   7.249
12112TIP3    H136258   2.514   4.206   7.314
12112TIP3    H236259   2.470   4.061   7.304
12113TIP3   OH236260   2.533   3.622   5.960
12113TIP3    H136261   2.520   3.622   6.057
12113TIP3    H236262   2.456   3.673   5.931
12114TIP3   OH236263   2.073   3.659   6.836
12114TIP3    H136264   2.149   3.694   6.887
12114TIP3    H236265   2.113   3.635   6.751
12115TIP3   OH236266   2.036   3.643   6.352
12115TIP3    H136267   2.080   3.679   6.272
12115TIP3    H236268   1.975   3.717   6.370
12116TIP3   OH236269   3.208   4.356   6.942
12116TIP3    H136270   3.239   4.284   6.882
12116TIP3    H236271   3.174   4.302   7.017
12117TIP3   OH236272   2.881   3.817   6.616
12117TIP3    H136273   2.798   3.818   6.668
12117TIP3    H236274   2.948   3.815   6.686
12118TIP3   OH236275   2.306   3.879   6.623
12118TIP3    H136276   2.213   3.887   6.594
12118TIP3    H236277   2.330   3.788   6.599
12119TIP3   OH236278   2.571   3.873   6.315
12119TIP3    H136279   2.664   3.888   6.291
12119TIP3    H236280   2.523   3.895   6.231
12120TIP3   OH236281   3.367   3.896   6.819
12120TIP3    H136282   3.336   3.910   6.911
12120TIP3    H236283   3.297   3.836   6.786
12121TIP3   OH236284   2.424   3.908   6.090
12121TIP3    H136285   2.355   3.861   6.038
12121TIP3    H236286   2.476   3.947   6.017
12122TIP3   OH236287   3.540   5.586   7.040
12122TIP3    H136288   3.535   5.608   6.945
12122TIP3    H236289   3.620   5.635   7.068
12123TIP3   OH236290   2.482   4.689   7.450
12123TIP3    H136291   2.565   4.695   7.504
12123TIP3    H236292   2.419   4.698   7.524
12124TIP3   OH236293   2.954   4.152   6.715
12124TIP3    H136294   3.028   4.113   6.665
12124TIP3    H236295   2.960   4.106   6.801
12125TIP3   OH236296   2.474   3.637   6.598
12125TIP3    H136297   2.438   3.560   6.646
12125TIP3    H236298   2.513   3.595   6.520
12126TIP3   OH236299   2.931   4.052   7.003
12126TIP3    H136300   2.840   4.086   7.017
12126TIP3    H236301   2.986   4.115   7.053
12127TIP3   OH236302   2.668   4.435   6.100
12127TIP3    H136303   2.595   4.371   6.086
12127TIP3    H236304   2.646   4.470   6.190
12128TIP3   OH236305   3.566   4.673   6.725
12128TIP3    H136306   3.589   4.725   6.644
12128TIP3    H236307   3.482   4.630   6.698
12129TIP3   OH236308   3.127   3.743   5.975
12129TIP3    H136309   3.030   3.724   5.977
12129TIP3    H236310   3.131   3.839   5.991
12130TIP3   OH236311   3.073   4.763   7.103
12130TIP3    H136312   3.071   4.739   7.197
12130TIP3    H236313   3.024   4.847   7.105
12131TIP3   OH236314   3.193   4.000   6.070
12131TIP3    H136315   3.290   4.006   6.080
12131TIP3    H236316   3.172   4.078   6.015
12132TIP3   OH236317   2.362   4.462   6.772
12132TIP3    H136318   2.399   4.433   6.687
12132TIP3    H236319   2.408   4.403   6.835
12133TIP3   OH236320   2.818   4.587   5.929
12133TIP3    H136321   2.769   4.673   5.931
12133TIP3    H236322   2.761   4.532   5.987
12134TIP3   OH236323   2.245   4.381   7.389
12134TIP3    H136324   2.268   4.369   7.483
12134TIP3    H236325   2.176   4.313   7.377
12135TIP3   OH236326   2.971   4.497   7.412
12135TIP3    H136327   2.906   4.440   7.368
12135TIP3    H236328   3.056   4.459   7.382
12136TIP3   OH236329   3.226   5.026   6.989
12136TIP3    H136330   3.130   5.014   7.004
12136TIP3    H236331   3.252   5.074   7.071
12137TIP3   OH236332   3.634   4.093   5.900
12137TIP3    H136333   3.569   4.050   5.839
12137TIP3    H236334   3.633   4.182   5.858
12138TIP3   OH236335   3.858   4.953   6.978
12138TIP3    H136336   3.761   4.944   6.970
12138TIP3    H236337   3.884   4.920   6.889
12139TIP3   OH236338   3.345   4.907   5.812
12139TIP3    H136339   3.310   4.837   5.869
12139TIP3    H236340   3.353   4.862   5.726
12140TIP3   OH236341   3.334   4.537   6.641
12140TIP3    H136342   3.241   4.513   6.655
12140TIP3    H236343   3.367   4.456   6.596
12141TIP3   OH236344   2.465   4.768   6.404
12141TIP3    H136345   2.462   4.847   6.347
12141TIP3    H236346   2.372   4.744   6.408
12142TIP3   OH236347   2.031   4.066   6.108
12142TIP3    H136348   2.074   4.152   6.128
12142TIP3    H236349   1.952   4.071   6.167
12143TIP3   OH236350   2.593   4.528   6.343
12143TIP3    H136351   2.562   4.618   6.362
12143TIP3    H236352   2.557   4.478   6.418
12144TIP3   OH236353   2.734   5.106   6.867
12144TIP3    H136354   2.778   5.178   6.817
12144TIP3    H236355   2.810   5.068   6.915
12145TIP3   OH236356   2.380   5.003   6.252
12145TIP3    H136357   2.294   5.014   6.297
12145TIP3    H236358   2.414   5.096   6.254
12146TIP3   OH236359   3.116   4.743   6.833
12146TIP3    H136360   3.108   4.742   6.931
12146TIP3    H236361   3.192   4.685   6.820
12147TIP3   OH236362   3.099   4.641   5.708
12147TIP3    H136363   3.146   4.614   5.790
12147TIP3    H236364   3.009   4.609   5.726
12148TIP3   OH236365   3.368   5.273   6.879
12148TIP3    H136366   3.290   5.214   6.877
12148TIP3    H236367   3.348   5.335   6.805
12149TIP3   OH236368   3.433   5.106   5.528
12149TIP3    H136369   3.465   5.178   5.472
12149TIP3    H236370   3.353   5.149   5.564
12150TIP3   OH236371   2.451   3.885   7.393
12150TIP3    H136372   2.354   3.888   7.405
12150TIP3    H236373   2.479   3.831   7.468
12151TIP3   OH236374   3.257   4.574   5.929
12151TIP3    H136375   3.246   4.505   5.997
12151TIP3    H236376   3.354   4.567   5.913
12152TIP3   OH236377   2.172   4.965   7.025
12152TIP3    H136378   2.232   4.895   7.055
12152TIP3    H236379   2.178   5.027   7.098
12153TIP3   OH236380   2.462   4.614   5.713
12153TIP3    H136381   2.468   4.522   5.682
12153TIP3    H236382   2.435   4.602   5.806
12154TIP3   OH236383   2.400   4.621   5.986
12154TIP3    H136384   2.479   4.596   6.035
12154TIP3    H236385   2.405   4.719   5.990
12155TIP3   OH236386   2.138   4.312   6.188
12155TIP3    H136387   2.070   4.358   6.243
12155TIP3    H236388   2.151   4.379   6.118
12156TIP3   OH236389   3.296   3.948   7.079
12156TIP3    H136390   3.374   3.986   7.121
12156TIP3    H236391   3.280   3.867   7.133
12157TIP3   OH236392   3.174   3.695   6.250
12157TIP3    H136393   3.157   3.715   6.155
12157TIP3    H236394   3.212   3.780   6.282
12158TIP3   OH236395   2.675   4.816   5.937
12158TIP3    H136396   2.587   4.845   5.969
12158TIP3    H236397   2.680   4.864   5.853
12159TIP3   OH236398   2.857   3.882   6.347
12159TIP3    H136399   2.920   3.955   6.328
12159TIP3    H236400   2.864   3.874   6.444
12160TIP3   OH236401   3.130   4.197   7.149
12160TIP3    H136402   3.154   4.251   7.228
12160TIP3    H236403   3.180   4.116   7.163
12161TIP3   OH236404   2.999   3.601   6.446
12161TIP3    H136405   2.985   3.682   6.499
12161TIP3    H236406   3.063   3.634   6.379
12162TIP3   OH236407   2.420   4.894   5.999
12162TIP3    H136408   2.389   4.963   5.937
12162TIP3    H236409   2.401   4.937   6.086
12163TIP3   OH236410   2.513   3.608   6.238
12163TIP3    H136411   2.511   3.699   6.274
12163TIP3    H236412   2.610   3.590   6.244
12164TIP3   OH236413   3.768   4.098   7.133
12164TIP3    H136414   3.670   4.100   7.143
12164TIP3    H236415   3.774   4.050   7.049
12165TIP3   OH236416   3.419   4.291   6.522
12165TIP3    H136417   3.342   4.233   6.532
12165TIP3    H236418   3.489   4.242   6.571
12166TIP3   OH236419   2.134   4.515   5.992
12166TIP3    H136420   2.206   4.581   5.997
12166TIP3    H236421   2.173   4.456   5.924
12167TIP3   OH236422   2.072   3.795   6.128
12167TIP3    H136423   2.076   3.893   6.125
12167TIP3    H236424   1.999   3.777   6.067
12168TIP3   OH236425   3.389   5.255   6.469
12168TIP3    H136426   3.345   5.302   6.395
12168TIP3    H236427   3.483   5.272   6.447
12169TIP3   OH236428   2.465   3.517   6.994
12169TIP3    H136429   2.435   3.484   6.907
12169TIP3    H236430   2.453   3.439   7.051
12170TIP3   OH236431   2.003   4.737   6.373
12170TIP3    H136432   1.940   4.766   6.440
12170TIP3    H236433   1.967   4.782   6.292
12171TIP3   OH236434   2.160   5.284   7.446
12171TIP3    H136435   2.247   5.271   7.489
12171TIP3    H236436   2.130   5.191   7.440
12172TIP3   OH236437   2.642   5.243   7.488
12172TIP3    H136438   2.732   5.211   7.500
12172TIP3    H236439   2.610   5.181   7.419
12173TIP3   OH236440   2.627   4.821   5.640
12173TIP3    H136441   2.574   4.741   5.663
12173TIP3    H236442   2.700   4.781   5.586
12174TIP3   OH236443   3.277   5.153   7.229
12174TIP3    H136444   3.272   5.082   7.297
12174TIP3    H236445   3.355   5.204   7.259
12175TIP3   OH236446   3.066   4.860   5.539
12175TIP3    H136447   3.098   4.789   5.597
12175TIP3    H236448   3.121   4.850   5.459
12176TIP3   OH236449   2.284   4.689   7.651
12176TIP3    H136450   2.308   4.594   7.657
12176TIP3    H236451   2.198   4.685   7.604
12177TIP3   OH236452   2.267   4.330   5.847
12177TIP3    H136453   2.326   4.302   5.918
12177TIP3    H236454   2.331   4.336   5.773
12178TIP3   OH236455   2.944   4.789   7.388
12178TIP3    H136456   2.859   4.798   7.342
12178TIP3    H236457   2.942   4.696   7.419
12179TIP3   OH236458   2.796   4.533   5.653
12179TIP3    H136459   2.789   4.543   5.750
12179TIP3    H236460   2.787   4.436   5.643
12180TIP3   OH236461   3.393   4.781   7.034
12180TIP3    H136462   3.463   4.829   6.988
12180TIP3    H236463   3.317   4.840   7.022
12181TIP3   OH236464   2.413   4.417   7.628
12181TIP3    H136465   2.500   4.399   7.590
12181TIP3    H236466   2.438   4.447   7.718
12182TIP3   OH236467   2.475   4.240   6.064
12182TIP3    H136468   2.448   4.196   6.145
12182TIP3    H236469   2.513   4.167   6.011
12183TIP3   OH236470   2.744   4.299   7.293
12183TIP3    H136471   2.668   4.361   7.297
12183TIP3    H236472   2.796   4.336   7.218
12184TIP3   OH236473   2.579   4.037   5.906
12184TIP3    H136474   2.553   4.042   5.811
12184TIP3    H236475   2.677   4.038   5.897
12185TIP3   OH236476   3.278   4.712   7.432
12185TIP3    H136477   3.338   4.665   7.372
12185TIP3    H236478   3.260   4.645   7.500
12186TIP3   OH236479   3.391   4.361   5.578
12186TIP3    H136480   3.390   4.314   5.493
12186TIP3    H236481   3.356   4.448   5.549
12187TIP3   OH236482   2.874   4.094   7.415
12187TIP3    H136483   2.871   4.016   7.356
12187TIP3    H236484   2.827   4.162   7.361
12188TIP3   OH236485   2.873   3.879   7.226
12188TIP3    H136486   2.900   3.922   7.142
12188TIP3    H236487   2.779   3.857   7.207
12189TIP3   OH236488   2.892   4.412   7.100
12189TIP3    H136489   2.979   4.429   7.060
12189TIP3    H236490   2.835   4.477   7.055
12190TIP3   OH236491   3.479   4.377   7.478
12190TIP3    H136492   3.528   4.294   7.484
12190TIP3    H236493   3.544   4.436   7.438
12191TIP3   OH236494   3.520   4.635   7.221
12191TIP3    H136495   3.462   4.689   7.163
12191TIP3    H236496   3.608   4.656   7.181
12192TIP3   OH236497   2.750   4.194   7.654
12192TIP3    H136498   2.680   4.126   7.665
12192TIP3    H236499   2.781   4.175   7.563
12193TIP3   OH236500   3.003   3.642   7.300
12193TIP3    H136501   2.954   3.723   7.274
12193TIP3    H236502   2.935   3.573   7.287
12194TIP3   OH236503   3.130   4.142   7.511
12194TIP3    H136504   3.110   4.138   7.606
12194TIP3    H236505   3.042   4.120   7.475
12195TIP3   OH236506   3.367   4.093   7.367
12195TIP3    H136507   3.291   4.097   7.428
12195TIP3    H236508   3.440   4.064   7.426
12196TIP3   OH236509   3.604   4.041   7.517
12196TIP3    H136510   3.614   3.944   7.531
12196TIP3    H236511   3.597   4.075   7.609
12197TIP3   OH236512   2.582   3.977   7.707
12197TIP3    H136513   2.587   3.885   7.676
12197TIP3    H236514   2.614   3.969   7.799
12198TIP3   OH236515   3.094   3.649   7.558
12198TIP3    H136516   3.160   3.578   7.549
12198TIP3    H236517   3.055   3.648   7.469
12199TIP3   OH236518   3.162   3.865   7.716
12199TIP3    H136519   3.140   3.795   7.650
12199TIP3    H236520   3.085   3.926   7.708
12200TIP3   OH236521   2.386   5.100   5.813
12200TIP3    H136522   2.479   5.094   5.785
12200TIP3    H236523   2.348   5.151   5.739
12201TIP3   OH236524   1.865   4.475   6.030
12201TIP3    H136525   1.959   4.498   6.011
12201TIP3    H236526   1.858   4.388   5.985
12202TIP3   OH236527   1.778   5.084   6.446
12202TIP3    H136528   1.716   5.021   6.404
12202TIP3    H236529   1.825   5.025   6.509
12203TIP3   OH236530   1.912   4.934   6.633
12203TIP3    H136531   1.909   4.862   6.700
12203TIP3    H236532   1.959   5.002   6.685
12204TIP3   OH236533   3.646   5.338   6.431
12204TIP3    H136534   3.673   5.370   6.519
12204TIP3    H236535   3.712   5.377   6.372
12205TIP3   OH236536   3.672   5.360   6.714
12205TIP3    H136537   3.624   5.275   6.708
12205TIP3    H236538   3.746   5.331   6.770
12206TIP3   OH236539   3.721   5.037   7.287
12206TIP3    H136540   3.647   5.046   7.351
12206TIP3    H236541   3.762   5.126   7.290
12207TIP3   OH236542   3.535   4.549   5.904
12207TIP3    H136543   3.601   4.613   5.872
12207TIP3    H236544   3.582   4.510   5.981
12208TIP3   OH236545   3.665   4.416   6.109
12208TIP3    H136546   3.596   4.375   6.165
12208TIP3    H236547   3.726   4.453   6.175
12209TIP3   OH236548   3.723   4.813   6.542
12209TIP3    H136549   3.772   4.743   6.494
12209TIP3    H236550   3.716   4.883   6.474
12210TIP3   OH236551   3.546   5.111   6.733
12210TIP3    H136552   3.473   5.151   6.784
12210TIP3    H236553   3.498   5.065   6.661
12211TIP3   OH236554   3.600   4.325   5.752
12211TIP3    H136555   3.528   4.324   5.684
12211TIP3    H236556   3.569   4.401   5.805
12212TIP3   OH236557   3.466   4.001   5.711
12212TIP3    H136558   3.461   4.035   5.620
12212TIP3    H236559   3.439   3.907   5.698
12213TIP3   OH236560   3.475   4.277   6.252
12213TIP3    H136561   3.481   4.180   6.241
12213TIP3    H236562   3.460   4.286   6.348
12214TIP3   OH236563   2.099   4.347   7.002
12214TIP3    H136564   2.096   4.312   6.911
12214TIP3    H236565   2.197   4.348   7.018
12215TIP3   OH236566   3.767   4.700   7.113
12215TIP3    H136567   3.837   4.633   7.099
12215TIP3    H236568   3.785   4.764   7.043
12216TIP3   OH236569   3.949   4.499   7.116
12216TIP3    H136570   3.873   4.452   7.157
12216TIP3    H236571   4.021   4.435   7.137
12217TIP3   OH236572   3.412   3.734   5.692
12217TIP3    H136573   3.482   3.697   5.750
12217TIP3    H236574   3.336   3.675   5.706
12218TIP3   OH236575   3.475   3.994   6.144
12218TIP3    H136576   3.516   3.905   6.158
12218TIP3    H236577   3.530   4.026   6.070
12219TIP3   OH236578   3.632   4.158   6.644
12219TIP3    H136579   3.717   4.183   6.601
12219TIP3    H236580   3.647   4.198   6.732
12220TIP3   OH236581   3.706   4.309   6.872
12220TIP3    H136582   3.628   4.342   6.921
12220TIP3    H236583   3.737   4.391   6.828
12221TIP3   OH236584   2.315   4.029   7.668
12221TIP3    H136585   2.413   4.027   7.674
12221TIP3    H236586   2.294   3.944   7.712
12222TIP3   OH236587   4.156   3.905   7.428
12222TIP3    H136588   4.216   3.840   7.385
12222TIP3    H236589   4.123   3.955   7.350
12223TIP3   OH236590   3.582   3.743   6.185
12223TIP3    H136591   3.628   3.724   6.269
12223TIP3    H236592   3.519   3.667   6.182
12224TIP3   OH236593   2.281   3.727   7.008
12224TIP3    H136594   2.343   3.651   7.014
12224TIP3    H236595   2.344   3.801   6.997
12225TIP3   OH236596   2.080   3.998   7.076
12225TIP3    H136597   2.130   3.995   6.993
12225TIP3    H236598   2.109   4.082   7.113
12226TIP3   OH236599   4.021   4.036   7.231
12226TIP3    H136600   3.936   4.080   7.248
12226TIP3    H236601   3.990   3.962   7.175
12227TIP3   OH236602   3.661   3.669   5.825
12227TIP3    H136603   3.698   3.603   5.763
12227TIP3    H236604   3.723   3.744   5.814
12228TIP3   OH236605   2.068   3.503   6.580
12228TIP3    H136606   1.975   3.496   6.607
12228TIP3    H236607   2.062   3.561   6.501
12229TIP3   OH236608   3.230   5.210   6.087
12229TIP3    H136609   3.276   5.195   6.003
12229TIP3    H236610   3.286   5.276   6.130
12230TIP3   OH236611   2.286   3.577   7.392
12230TIP3    H136612   2.237   3.581   7.475
12230TIP3    H236613   2.223   3.618   7.330
12231TIP3   OH236614   2.331   5.026   7.469
12231TIP3    H136615   2.237   5.000   7.464
12231TIP3    H236616   2.357   4.987   7.553
12232TIP3   OH236617   2.508   5.047   7.018
12232TIP3    H136618   2.459   5.122   6.979
12232TIP3    H236619   2.594   5.061   6.973
12233TIP3   OH236620   2.945   5.289   7.158
12233TIP3    H136621   2.989   5.285   7.246
12233TIP3    H236622   3.011   5.340   7.106
12234TIP3   OH236623   3.124   5.444   7.018
12234TIP3    H136624   3.190   5.391   6.971
12234TIP3    H236625   3.181   5.498   7.076
12235TIP3   OH236626   3.923   3.799   7.114
12235TIP3    H136627   3.833   3.790   7.077
12235TIP3    H236628   3.957   3.707   7.104
12236TIP3   OH236629   2.182   5.310   7.035
12236TIP3    H136630   2.092   5.347   7.017
12236TIP3    H236631   2.184   5.319   7.131
12237TIP3   OH236632   2.420   5.283   6.902
12237TIP3    H136633   2.332   5.296   6.944
12237TIP3    H236634   2.401   5.310   6.810
12238TIP3   OH236635   2.843   5.306   6.700
12238TIP3    H136636   2.773   5.320   6.634
12238TIP3    H236637   2.853   5.395   6.738
12239TIP3   OH236638   3.112   5.248   6.754
12239TIP3    H136639   3.018   5.262   6.732
12239TIP3    H236640   3.155   5.317   6.701
12240TIP3   OH236641   3.320   5.438   6.662
12240TIP3    H136642   3.304   5.521   6.613
12240TIP3    H236643   3.346   5.376   6.590
12241TIP3   OH236644   2.093   5.093   6.790
12241TIP3    H136645   2.125   5.064   6.878
12241TIP3    H236646   2.162   5.052   6.734
12242TIP3   OH236647   2.287   4.968   6.647
12242TIP3    H136648   2.302   4.883   6.695
12242TIP3    H236649   2.379   5.002   6.641
12243TIP3   OH236650   2.557   5.059   6.651
12243TIP3    H136651   2.584   4.966   6.638
12243TIP3    H236652   2.606   5.079   6.733
12244TIP3   OH236653   3.133   3.717   6.742
12244TIP3    H136654   3.088   3.645   6.788
12244TIP3    H236655   3.203   3.671   6.692
12245TIP3   OH236656   3.648   3.600   6.641
12245TIP3    H136657   3.683   3.650   6.564
12245TIP3    H236658   3.552   3.617   6.632
12246TIP3   OH236659   3.745   3.692   6.403
12246TIP3    H136660   3.819   3.641   6.363
12246TIP3    H236661   3.777   3.784   6.389
12247TIP3   OH236662   2.376   3.423   6.748
12247TIP3    H136663   2.283   3.392   6.751
12247TIP3    H236664   2.423   3.337   6.743
12248TIP3   OH236665   2.172   3.296   6.401
12248TIP3    H136666   2.198   3.351   6.325
12248TIP3    H236667   2.141   3.363   6.465
12249TIP3   OH236668   2.826   3.454   6.631
12249TIP3    H136669   2.879   3.501   6.565
12249TIP3    H236670   2.852   3.498   6.713
12250TIP3   OH236671   3.365   3.605   6.612
12250TIP3    H136672   3.364   3.565   6.524
12250TIP3    H236673   3.355   3.525   6.670
12251TIP3   OH236674   3.398   3.531   6.178
12251TIP3    H136675   3.313   3.575   6.194
12251TIP3    H236676   3.382   3.444   6.221
12252TIP3   OH236677   1.875   4.875   6.181
12252TIP3    H136678   1.793   4.838   6.145
12252TIP3    H236679   1.871   4.965   6.142
12253TIP3   OH236680   2.284   3.449   6.162
12253TIP3    H136681   2.331   3.388   6.102
12253TIP3    H236682   2.358   3.504   6.195
12254TIP3   OH236683   2.790   3.632   6.260
12254TIP3    H136684   2.851   3.584   6.318
12254TIP3    H236685   2.812   3.725   6.284
12255TIP3   OH236686   2.653   5.062   5.755
12255TIP3    H136687   2.743   5.079   5.720
12255TIP3    H236688   2.631   4.981   5.703
12256TIP3   OH236689   3.374   5.174   5.855
12256TIP3    H136690   3.368   5.076   5.844
12256TIP3    H236691   3.327   5.204   5.774
12257TIP3   OH236692   2.585   3.703   7.636
12257TIP3    H136693   2.547   3.634   7.694
12257TIP3    H236694   2.678   3.702   7.666
12258TIP3   OH236695   2.835   3.701   7.757
12258TIP3    H136696   2.920   3.680   7.714
12258TIP3    H236697   2.827   3.627   7.821
12259TIP3   OH236698   1.956   4.881   5.814
12259TIP3    H136699   1.973   4.924   5.898
12259TIP3    H236700   2.042   4.838   5.794
12260TIP3   OH236701   3.662   3.768   7.546
12260TIP3    H136702   3.679   3.737   7.637
12260TIP3    H236703   3.751   3.762   7.506
12261TIP3   OH236704   3.595   5.315   7.041
12261TIP3    H136705   3.517   5.285   6.989
12261TIP3    H236706   3.575   5.411   7.046
12262TIP3   OH236707   4.864   4.691   5.805
12262TIP3    H136708   4.829   4.780   5.782
12262TIP3    H236709   4.792   4.637   5.766
12263TIP3   OH236710   4.869   4.693   6.190
12263TIP3    H136711   4.900   4.662   6.277
12263TIP3    H236712   4.825   4.614   6.155
12264TIP3   OH236713   4.161   4.582   6.552
12264TIP3    H136714   4.192   4.513   6.613
12264TIP3    H236715   4.243   4.633   6.539
12265TIP3   OH236716   5.117   4.993   5.870
12265TIP3    H136717   5.088   4.926   5.933
12265TIP3    H236718   5.141   5.068   5.926
12266TIP3   OH236719   4.139   4.998   6.276
12266TIP3    H136720   4.130   4.900   6.276
12266TIP3    H236721   4.235   5.006   6.263
12267TIP3   OH236722   3.840   4.194   6.057
12267TIP3    H136723   3.791   4.277   6.074
12267TIP3    H236724   3.772   4.144   6.010
12268TIP3   OH236725   3.900   4.485   6.240
12268TIP3    H136726   3.950   4.406   6.270
12268TIP3    H236727   3.951   4.513   6.163
12269TIP3   OH236728   4.764   5.458   5.891
12269TIP3    H136729   4.801   5.387   5.834
12269TIP3    H236730   4.746   5.409   5.972
12270TIP3   OH236731   4.660   4.918   6.236
12270TIP3    H136732   4.699   4.843   6.188
12270TIP3    H236733   4.743   4.964   6.261
12271TIP3   OH236734   5.680   4.234   6.234
12271TIP3    H136735   5.709   4.319   6.272
12271TIP3    H236736   5.699   4.247   6.140
12272TIP3   OH236737   5.076   4.414   6.263
12272TIP3    H136738   5.118   4.328   6.282
12272TIP3    H236739   5.042   4.398   6.173
12273TIP3   OH236740   4.420   4.075   6.228
12273TIP3    H136741   4.397   4.148   6.166
12273TIP3    H236742   4.370   4.001   6.186
12274TIP3   OH236743   5.110   4.170   5.851
12274TIP3    H136744   5.183   4.156   5.916
12274TIP3    H236745   5.162   4.204   5.775
12275TIP3   OH236746   4.046   4.276   6.340
12275TIP3    H136747   4.130   4.256   6.386
12275TIP3    H236748   4.059   4.221   6.259
12276TIP3   OH236749   4.484   4.474   6.138
12276TIP3    H136750   4.579   4.450   6.147
12276TIP3    H236751   4.446   4.391   6.103
12277TIP3   OH236752   5.754   4.447   6.401
12277TIP3    H136753   5.668   4.491   6.381
12277TIP3    H236754   5.766   4.475   6.493
12278TIP3   OH236755   4.410   4.060   6.667
12278TIP3    H136756   4.352   4.097   6.598
12278TIP3    H236757   4.355   4.078   6.746
12279TIP3   OH236758   4.736   4.904   5.685
12279TIP3    H136759   4.719   4.905   5.590
12279TIP3    H236760   4.696   4.989   5.711
12280TIP3   OH236761   4.517   4.837   6.457
12280TIP3    H136762   4.457   4.906   6.492
12280TIP3    H236763   4.559   4.883   6.381
12281TIP3   OH236764   5.314   4.174   6.031
12281TIP3    H136765   5.296   4.130   6.115
12281TIP3    H236766   5.365   4.253   6.059
12282TIP3   OH236767   4.284   4.173   6.448
12282TIP3    H136768   4.346   4.246   6.471
12282TIP3    H236769   4.333   4.134   6.372
12283TIP3   OH236770   4.348   5.034   6.559
12283TIP3    H136771   4.321   5.120   6.520
12283TIP3    H236772   4.268   5.015   6.612
12284TIP3   OH236773   3.735   4.720   5.793
12284TIP3    H136774   3.693   4.743   5.708
12284TIP3    H236775   3.765   4.807   5.825
12285TIP3   OH236776   5.179   5.239   6.035
12285TIP3    H136777   5.089   5.229   6.074
12285TIP3    H236778   5.168   5.325   5.988
12286TIP3   OH236779   5.471   4.134   6.400
12286TIP3    H136780   5.384   4.158   6.365
12286TIP3    H236781   5.531   4.166   6.329
12287TIP3   OH236782   4.764   3.775   6.386
12287TIP3    H136783   4.744   3.680   6.399
12287TIP3    H236784   4.686   3.815   6.431
12288TIP3   OH236785   4.871   5.285   5.704
12288TIP3    H136786   4.919   5.200   5.687
12288TIP3    H236787   4.937   5.347   5.664
12289TIP3   OH236788   5.015   5.071   5.624
12289TIP3    H136789   5.031   4.999   5.560
12289TIP3    H236790   5.053   5.032   5.706
12290TIP3   OH236791   5.404   5.145   6.378
12290TIP3    H136792   5.389   5.068   6.319
12290TIP3    H236793   5.383   5.220   6.319
12291TIP3   OH236794   4.700   4.546   5.632
12291TIP3    H136795   4.612   4.588   5.620
12291TIP3    H236796   4.742   4.567   5.547
12292TIP3   OH236797   4.658   4.333   5.364
12292TIP3    H136798   4.732   4.381   5.407
12292TIP3    H236799   4.710   4.267   5.314
12293TIP3   OH236800   5.599   4.792   6.229
12293TIP3    H136801   5.513   4.839   6.231
12293TIP3    H236802   5.627   4.812   6.137
12294TIP3   OH236803   5.041   4.613   5.609
12294TIP3    H136804   4.988   4.647   5.685
12294TIP3    H236805   5.128   4.601   5.652
12295TIP3   OH236806   5.277   4.661   6.524
12295TIP3    H136807   5.272   4.745   6.572
12295TIP3    H236808   5.190   4.662   6.478
12296TIP3   OH236809   4.275   4.625   6.028
12296TIP3    H136810   4.226   4.567   5.965
12296TIP3    H236811   4.350   4.568   6.055
12297TIP3   OH236812   4.402   5.034   6.171
12297TIP3    H136813   4.382   5.003   6.081
12297TIP3    H236814   4.491   4.995   6.186
12298TIP3   OH236815   4.411   4.591   6.383
12298TIP3    H136816   4.440   4.566   6.292
12298TIP3    H236817   4.453   4.679   6.395
12299TIP3   OH236818   4.940   5.232   6.158
12299TIP3    H136819   4.923   5.311   6.211
12299TIP3    H236820   4.921   5.158   6.220
12300TIP3   OH236821   4.550   5.149   6.706
12300TIP3    H136822   4.487   5.210   6.749
12300TIP3    H236823   4.487   5.096   6.652
12301TIP3   OH236824   4.893   4.472   5.430
12301TIP3    H136825   4.952   4.528   5.486
12301TIP3    H236826   4.873   4.538   5.358
12302TIP3   OH236827   4.306   4.699   6.813
12302TIP3    H136828   4.309   4.790   6.850
12302TIP3    H236829   4.210   4.681   6.822
12303TIP3   OH236830   4.628   5.160   5.722
12303TIP3    H136831   4.710   5.213   5.718
12303TIP3    H236832   4.570   5.206   5.660
12304TIP3   OH236833   4.343   5.315   6.791
12304TIP3    H136834   4.310   5.318   6.699
12304TIP3    H236835   4.262   5.293   6.842
12305TIP3   OH236836   5.399   3.720   5.485
12305TIP3    H136837   5.317   3.744   5.533
12305TIP3    H236838   5.414   3.802   5.433
12306TIP3   OH236839   4.128   4.471   5.849
12306TIP3    H136840   4.069   4.515   5.784
12306TIP3    H236841   4.107   4.379   5.835
12307TIP3   OH236842   5.199   5.088   5.026
12307TIP3    H136843   5.208   5.185   5.019
12307TIP3    H236844   5.293   5.060   5.019
12308TIP3   OH236845   3.922   4.850   6.737
12308TIP3    H136846   3.853   4.832   6.669
12308TIP3    H236847   3.959   4.760   6.754
12309TIP3   OH236848   3.777   5.041   6.367
12309TIP3    H136849   3.873   5.036   6.358
12309TIP3    H236850   3.766   5.120   6.423
12310TIP3   OH236851   5.642   5.497   6.430
12310TIP3    H136852   5.640   5.400   6.444
12310TIP3    H236853   5.558   5.523   6.474
12311TIP3   OH236854   4.747   5.276   6.563
12311TIP3    H136855   4.742   5.369   6.593
12311TIP3    H236856   4.674   5.236   6.615
12312TIP3   OH236857   4.514   5.408   5.510
12312TIP3    H136858   4.462   5.385   5.431
12312TIP3    H236859   4.475   5.493   5.538
12313TIP3   OH236860   3.947   5.254   5.898
12313TIP3    H136861   3.991   5.244   5.985
12313TIP3    H236862   3.898   5.170   5.892
12314TIP3   OH236863   4.707   5.314   5.154
12314TIP3    H136864   4.775   5.254   5.117
12314TIP3    H236865   4.739   5.325   5.246
12315TIP3   OH236866   4.763   5.358   5.419
12315TIP3    H136867   4.674   5.369   5.460
12315TIP3    H236868   4.811   5.313   5.490
12316TIP3   OH236869   5.529   4.623   6.700
12316TIP3    H136870   5.445   4.633   6.653
12316TIP3    H236871   5.545   4.527   6.690
12317TIP3   OH236872   4.126   5.032   6.721
12317TIP3    H136873   4.175   5.014   6.804
12317TIP3    H236874   4.052   4.969   6.727
12318TIP3   OH236875   4.526   3.854   6.513
12318TIP3    H136876   4.438   3.823   6.482
12318TIP3    H236877   4.498   3.935   6.561
12319TIP3   OH236878   5.059   3.969   6.706
12319TIP3    H136879   5.126   3.941   6.771
12319TIP3    H236880   4.974   3.950   6.750
12320TIP3   OH236881   5.297   4.399   6.625
12320TIP3    H136882   5.244   4.397   6.708
12320TIP3    H236883   5.273   4.486   6.587
12321TIP3   OH236884   4.672   3.899   5.484
12321TIP3    H136885   4.634   3.896   5.574
12321TIP3    H236886   4.630   3.820   5.445
12322TIP3   OH236887   4.460   4.370   6.530
12322TIP3    H136888   4.407   4.389   6.610
12322TIP3    H236889   4.444   4.451   6.477
12323TIP3   OH236890   4.342   4.256   6.042
12323TIP3    H136891   4.248   4.233   6.061
12323TIP3    H236892   4.351   4.216   5.953
12324TIP3   OH236893   4.830   4.343   5.770
12324TIP3    H136894   4.784   4.415   5.722
12324TIP3    H236895   4.888   4.308   5.700
12325TIP3   OH236896   5.007   4.616   6.855
12325TIP3    H136897   4.984   4.544   6.917
12325TIP3    H236898   5.101   4.629   6.877
12326TIP3   OH236899   4.987   4.369   6.007
12326TIP3    H136900   4.924   4.397   5.937
12326TIP3    H236901   5.023   4.290   5.961
12327TIP3   OH236902   4.280   4.398   6.736
12327TIP3    H136903   4.300   4.463   6.804
12327TIP3    H236904   4.265   4.316   6.788
12328TIP3   OH236905   4.336   3.877   5.449
12328TIP3    H136906   4.318   3.877   5.545
12328TIP3    H236907   4.255   3.920   5.415
12329TIP3   OH236908   3.869   3.916   6.323
12329TIP3    H136909   3.946   3.950   6.372
12329TIP3    H236910   3.905   3.891   6.237
12330TIP3   OH236911   3.833   3.904   5.835
12330TIP3    H136912   3.876   3.942   5.755
12330TIP3    H236913   3.769   3.976   5.855
12331TIP3   OH236914   5.004   4.612   6.430
12331TIP3    H136915   5.035   4.541   6.370
12331TIP3    H236916   4.969   4.558   6.504
12332TIP3   OH236917   4.677   4.073   6.102
12332TIP3    H136918   4.593   4.075   6.153
12332TIP3    H236919   4.743   4.073   6.173
12333TIP3   OH236920   4.102   4.136   6.110
12333TIP3    H136921   4.008   4.146   6.081
12333TIP3    H236922   4.122   4.044   6.086
12334TIP3   OH236923   4.366   4.131   5.798
12334TIP3    H136924   4.461   4.145   5.781
12334TIP3    H236925   4.325   4.157   5.713
12335TIP3   OH236926   5.163   4.152   6.307
12335TIP3    H136927   5.129   4.168   6.399
12335TIP3    H236928   5.093   4.093   6.273
12336TIP3   OH236929   4.223   4.167   5.567
12336TIP3    H136930   4.131   4.144   5.590
12336TIP3    H236931   4.223   4.136   5.475
12337TIP3   OH236932   5.336   5.844   6.525
12337TIP3    H136933   5.332   5.868   6.431
12337TIP3    H236934   5.414   5.894   6.555
12338TIP3   OH236935   4.288   4.953   6.944
12338TIP3    H136936   4.368   4.982   6.993
12338TIP3    H236937   4.223   4.950   7.016
12339TIP3   OH236938   4.750   4.407   6.201
12339TIP3    H136939   4.825   4.370   6.151
12339TIP3    H236940   4.757   4.361   6.287
12340TIP3   OH236941   4.273   3.891   6.085
12340TIP3    H136942   4.234   3.816   6.134
12340TIP3    H236943   4.306   3.848   6.005
12341TIP3   OH236944   4.728   4.306   6.490
12341TIP3    H136945   4.637   4.340   6.503
12341TIP3    H236946   4.783   4.370   6.539
12342TIP3   OH236947   4.450   4.660   5.604
12342TIP3    H136948   4.358   4.637   5.618
12342TIP3    H236949   4.461   4.722   5.680
12343TIP3   OH236950   5.362   4.929   6.211
12343TIP3    H136951   5.383   4.981   6.131
12343TIP3    H236952   5.277   4.886   6.186
12344TIP3   OH236953   4.924   3.998   5.457
12344TIP3    H136954   4.827   3.980   5.463
12344TIP3    H236955   4.930   4.094   5.479
12345TIP3   OH236956   4.864   5.014   6.583
12345TIP3    H136957   4.891   4.997   6.674
12345TIP3    H236958   4.825   5.103   6.587
12346TIP3   OH236959   4.991   4.250   5.558
12346TIP3    H136960   5.087   4.261   5.570
12346TIP3    H236961   4.968   4.328   5.502
12347TIP3   OH236962   4.162   4.724   6.260
12347TIP3    H136963   4.197   4.694   6.174
12347TIP3    H236964   4.198   4.657   6.320
12348TIP3   OH236965   4.041   4.632   6.873
12348TIP3    H136966   4.050   4.616   6.969
12348TIP3    H236967   3.968   4.572   6.850
12349TIP3   OH236968   4.766   4.754   6.894
12349TIP3    H136969   4.702   4.695   6.850
12349TIP3    H236970   4.851   4.716   6.863
12350TIP3   OH236971   5.024   5.273   6.482
12350TIP3    H136972   4.927   5.271   6.493
12350TIP3    H236973   5.050   5.327   6.560
12351TIP3   OH236974   5.432   4.348   5.387
12351TIP3    H136975   5.371   4.303   5.324
12351TIP3    H236976   5.427   4.438   5.348
12352TIP3   OH236977   5.654   5.207   6.465
12352TIP3    H136978   5.556   5.199   6.457
12352TIP3    H236979   5.680   5.175   6.376
12353TIP3   OH236980   5.140   5.158   5.301
12353TIP3    H136981   5.108   5.089   5.360
12353TIP3    H236982   5.145   5.112   5.216
12354TIP3   OH236983   5.131   4.792   6.131
12354TIP3    H136984   5.036   4.769   6.143
12354TIP3    H236985   5.162   4.713   6.084
12355TIP3   OH236986   4.260   5.027   5.894
12355TIP3    H136987   4.258   5.104   5.834
12355TIP3    H236988   4.167   5.002   5.896
12356TIP3   OH236989   3.845   4.323   5.615
12356TIP3    H136990   3.872   4.416   5.622
12356TIP3    H236991   3.754   4.327   5.652
12357TIP3   OH236992   4.393   4.790   5.833
12357TIP3    H136993   4.359   4.880   5.852
12357TIP3    H236994   4.355   4.739   5.907
12358TIP3   OH236995   4.530   5.363   6.354
12358TIP3    H136996   4.571   5.436   6.303
12358TIP3    H236997   4.608   5.326   6.398
12359TIP3   OH236998   4.176   5.260   5.737
12359TIP3    H136999   4.091   5.269   5.784
12359TIP3    H237000   4.209   5.353   5.740
12360TIP3   OH237001   4.912   4.999   6.314
12360TIP3    H137002   4.903   4.997   6.412
12360TIP3    H237003   4.989   4.941   6.301
12361TIP3   OH237004   5.164   5.529   6.362
12361TIP3    H137005   5.083   5.475   6.356
12361TIP3    H237006   5.148   5.594   6.290
12362TIP3   OH237007   5.232   5.366   5.019
12362TIP3    H137008   5.268   5.444   4.972
12362TIP3    H237009   5.148   5.405   5.052
12363TIP3   OH237010   4.244   4.143   6.878
12363TIP3    H137011   4.147   4.147   6.888
12363TIP3    H237012   4.269   4.085   6.952
12364TIP3   OH237013   5.079   4.874   5.447
12364TIP3    H137014   5.027   4.793   5.461
12364TIP3    H237015   5.165   4.837   5.420
12365TIP3   OH237016   3.967   5.225   6.511
12365TIP3    H137017   4.020   5.152   6.545
12365TIP3    H237018   3.996   5.298   6.568
12366TIP3   OH237019   4.253   4.890   5.198
12366TIP3    H137020   4.221   4.813   5.149
12366TIP3    H237021   4.236   4.865   5.291
12367TIP3   OH237022   4.210   4.880   5.476
12367TIP3    H137023   4.298   4.869   5.514
12367TIP3    H237024   4.201   4.978   5.478
12368TIP3   OH237025   3.942   4.581   5.673
12368TIP3    H137026   3.872   4.619   5.730
12368TIP3    H237027   3.947   4.650   5.604
12369TIP3   OH237028   5.089   4.207   6.567
12369TIP3    H137029   5.171   4.244   6.605
12369TIP3    H237030   5.076   4.126   6.621
12370TIP3   OH237031   4.970   3.952   5.736
12370TIP3    H137032   4.954   3.972   5.642
12370TIP3    H237033   5.008   4.036   5.768
12371TIP3   OH237034   4.465   5.079   5.435
12371TIP3    H137035   4.374   5.107   5.457
12371TIP3    H237036   4.482   5.130   5.355
12372TIP3   OH237037   4.651   4.140   5.833
12372TIP3    H137038   4.714   4.213   5.814
12372TIP3    H237039   4.660   4.132   5.930
12373TIP3   OH237040   4.925   4.453   6.636
12373TIP3    H137041   4.950   4.504   6.716
12373TIP3    H237042   4.977   4.371   6.646
12374TIP3   OH237043   4.796   3.858   5.933
12374TIP3    H137044   4.780   3.939   5.986
12374TIP3    H237045   4.860   3.891   5.866
12375TIP3   OH237046   4.204   5.152   5.484
12375TIP3    H137047   4.175   5.223   5.423
12375TIP3    H237048   4.190   5.194   5.572
12376TIP3   OH237049   4.310   3.865   5.726
12376TIP3    H137050   4.310   3.956   5.762
12376TIP3    H237051   4.406   3.846   5.731
12377TIP3   OH237052   5.563   4.355   6.620
12377TIP3    H137053   5.465   4.356   6.629
12377TIP3    H237054   5.572   4.309   6.536
12378TIP3   OH237055   5.215   4.548   6.009
12378TIP3    H137056   5.137   4.490   6.018
12378TIP3    H237057   5.284   4.499   6.058
12379TIP3   OH237058   3.934   4.776   5.474
12379TIP3    H137059   3.996   4.849   5.490
12379TIP3    H237060   3.988   4.724   5.411
12380TIP3   OH237061   3.883   4.056   5.609
12380TIP3    H137062   3.875   4.154   5.611
12380TIP3    H237063   3.818   4.034   5.541
12381TIP3   OH237064   5.186   5.509   5.955
12381TIP3    H137065   5.142   5.556   5.880
12381TIP3    H237066   5.280   5.526   5.934
12382TIP3   OH237067   4.263   3.774   6.481
12382TIP3    H137068   4.231   3.741   6.394
12382TIP3    H237069   4.250   3.696   6.538
12383TIP3   OH237070   3.797   4.997   5.860
12383TIP3    H137071   3.732   5.022   5.927
12383TIP3    H237072   3.760   5.039   5.779
12384TIP3   OH237073   3.959   5.541   6.937
12384TIP3    H137074   4.046   5.539   6.982
12384TIP3    H237075   3.937   5.446   6.934
12385TIP3   OH237076   4.435   5.491   6.984
12385TIP3    H137077   4.530   5.475   6.984
12385TIP3    H237078   4.407   5.432   6.911
12386TIP3   OH237079   4.433   5.075   5.112
12386TIP3    H137080   4.366   5.012   5.146
12386TIP3    H237081   4.510   5.016   5.104
12387TIP3   OH237082   5.072   5.409   6.718
12387TIP3    H137083   5.069   5.338   6.786
12387TIP3    H237084   5.151   5.460   6.746
12388TIP3   OH237085   4.873   5.131   5.033
12388TIP3    H137086   4.861   5.057   5.094
12388TIP3    H237087   4.914   5.088   4.957
12389TIP3   OH237088   4.086   4.944   7.137
12389TIP3    H137089   4.102   4.848   7.142
12389TIP3    H237090   4.000   4.947   7.090
12390TIP3   OH237091   4.073   4.595   5.321
12390TIP3    H137092   4.076   4.508   5.363
12390TIP3    H237093   4.084   4.574   5.227
12391TIP3   OH237094   4.692   5.030   6.911
12391TIP3    H137095   4.650   5.052   6.825
12391TIP3    H237096   4.722   4.938   6.898
12392TIP3   OH237097   5.188   5.042   6.521
12392TIP3    H137098   5.262   5.084   6.475
12392TIP3    H237099   5.117   5.107   6.504
12393TIP3   OH237100   4.206   4.685   7.123
12393TIP3    H137101   4.281   4.632   7.091
12393TIP3    H237102   4.238   4.713   7.211
12394TIP3   OH237103   4.546   4.564   6.785
12394TIP3    H137104   4.465   4.618   6.784
12394TIP3    H237105   4.594   4.597   6.706
12395TIP3   OH237106   5.061   4.963   6.915
12395TIP3    H137107   5.133   4.927   6.861
12395TIP3    H237108   5.053   4.897   6.986
12396TIP3   OH237109   5.218   4.627   5.045
12396TIP3    H137110   5.171   4.569   4.982
12396TIP3    H237111   5.170   4.711   5.029
12397TIP3   OH237112   4.668   4.351   6.903
12397TIP3    H137113   4.666   4.273   6.844
12397TIP3    H237114   4.624   4.420   6.848
12398TIP3   OH237115   4.669   4.137   6.714
12398TIP3    H137116   4.696   4.179   6.630
12398TIP3    H237117   4.575   4.114   6.696
12399TIP3   OH237118   4.691   4.673   6.589
12399TIP3    H137119   4.776   4.686   6.544
12399TIP3    H237120   4.633   4.736   6.541
12400TIP3   OH237121   5.273   4.637   6.964
12400TIP3    H137122   5.323   4.554   6.975
12400TIP3    H237123   5.341   4.695   6.926
12401TIP3   OH237124   5.315   4.892   6.706
12401TIP3    H137125   5.258   4.947   6.647
12401TIP3    H237126   5.403   4.913   6.667
12402TIP3   OH237127   4.548   4.453   7.142
12402TIP3    H137128   4.479   4.386   7.156
12402TIP3    H237129   4.577   4.432   7.051
12403TIP3   OH237130   4.799   3.899   6.785
12403TIP3    H137131   4.749   3.980   6.760
12403TIP3    H237132   4.730   3.830   6.773
12404TIP3   OH237133   4.925   4.398   6.998
12404TIP3    H137134   4.905   4.384   7.093
12404TIP3    H237135   4.837   4.377   6.960
12405TIP3   OH237136   5.163   4.352   6.854
12405TIP3    H137137   5.088   4.354   6.917
12405TIP3    H237138   5.237   4.323   6.911
12406TIP3   OH237139   5.395   4.294   7.003
12406TIP3    H137140   5.406   4.199   7.022
12406TIP3    H237141   5.390   4.333   7.092
12407TIP3   OH237142   4.383   4.236   7.194
12407TIP3    H137143   4.385   4.144   7.161
12407TIP3    H237144   4.420   4.223   7.284
12408TIP3   OH237145   4.892   3.907   7.042
12408TIP3    H137146   4.955   3.834   7.033
12408TIP3    H237147   4.850   3.907   6.954
12409TIP3   OH237148   4.960   4.122   7.201
12409TIP3    H137149   4.938   4.051   7.136
12409TIP3    H237150   4.883   4.181   7.194
12410TIP3   OH237151   4.182   5.359   5.301
12410TIP3    H137152   4.277   5.348   5.281
12410TIP3    H237153   4.153   5.407   5.221
12411TIP3   OH237154   3.662   4.724   5.511
12411TIP3    H137155   3.755   4.748   5.492
12411TIP3    H237156   3.655   4.635   5.472
12412TIP3   OH237157   3.577   5.346   5.932
12412TIP3    H137158   3.512   5.285   5.891
12412TIP3    H237159   3.622   5.286   5.995
12413TIP3   OH237160   3.710   5.191   6.117
12413TIP3    H137161   3.697   5.121   6.183
12413TIP3    H237162   3.764   5.254   6.169
12414TIP3   OH237163   5.446   5.586   5.920
12414TIP3    H137164   5.462   5.627   6.007
12414TIP3    H237165   5.497   5.644   5.862
12415TIP3   OH237166   5.466   5.615   6.200
12415TIP3    H137167   5.421   5.527   6.195
12415TIP3    H237168   5.539   5.593   6.259
12416TIP3   OH237169   5.516   5.293   6.773
12416TIP3    H137170   5.444   5.303   6.838
12416TIP3    H237171   5.558   5.382   6.776
12417TIP3   OH237172   5.341   4.801   5.386
12417TIP3    H137173   5.407   4.868   5.358
12417TIP3    H237174   5.384   4.765   5.467
12418TIP3   OH237175   5.464   4.673   5.598
12418TIP3    H137176   5.392   4.630   5.650
12418TIP3    H237177   5.519   4.713   5.667
12419TIP3   OH237178   5.520   5.071   6.030
12419TIP3    H137179   5.567   5.000   5.981
12419TIP3    H237180   5.511   5.141   5.963
12420TIP3   OH237181   5.342   5.365   6.222
12420TIP3    H137182   5.270   5.409   6.271
12420TIP3    H237183   5.293   5.321   6.149
12421TIP3   OH237184   5.398   4.578   5.239
12421TIP3    H137185   5.331   4.583   5.167
12421TIP3    H237186   5.367   4.654   5.293
12422TIP3   OH237187   5.273   4.251   5.192
12422TIP3    H137188   5.229   4.290   5.115
12422TIP3    H237189   5.246   4.157   5.182
12423TIP3   OH237190   5.277   4.533   5.740
12423TIP3    H137191   5.277   4.437   5.729
12423TIP3    H237192   5.258   4.543   5.836
12424TIP3   OH237193   3.896   4.600   6.491
12424TIP3    H137194   3.892   4.568   6.398
12424TIP3    H237195   3.993   4.603   6.505
12425TIP3   OH237196   5.562   4.956   6.600
12425TIP3    H137197   5.633   4.889   6.586
12425TIP3    H237198   5.582   5.022   6.531
12426TIP3   OH237199   5.745   4.756   6.602
12426TIP3    H137200   5.670   4.708   6.643
12426TIP3    H237201   5.818   4.693   6.622
12427TIP3   OH237202   5.211   3.985   5.174
12427TIP3    H137203   5.279   3.952   5.236
12427TIP3    H237204   5.132   3.930   5.194
12428TIP3   OH237205   5.272   4.251   5.633
12428TIP3    H137206   5.313   4.162   5.647
12428TIP3    H237207   5.327   4.283   5.559
12429TIP3   OH237208   5.428   4.415   6.131
12429TIP3    H137209   5.513   4.439   6.088
12429TIP3    H237210   5.443   4.455   6.219
12430TIP3   OH237211   5.502   4.566   6.359
12430TIP3    H137212   5.424   4.599   6.407
12430TIP3    H237213   5.534   4.648   6.315
12431TIP3   OH237214   4.117   4.290   7.167
12431TIP3    H137215   4.215   4.283   7.169
12431TIP3    H237216   4.092   4.202   7.202
12432TIP3   OH237217   5.947   4.157   6.914
12432TIP3    H137218   6.010   4.094   6.873
12432TIP3    H237219   5.918   4.210   6.836
12433TIP3   OH237220   5.378   3.999   5.671
12433TIP3    H137221   5.424   3.981   5.756
12433TIP3    H237222   5.316   3.924   5.668
12434TIP3   OH237223   4.079   3.983   6.494
12434TIP3    H137224   4.140   3.908   6.499
12434TIP3    H237225   4.141   4.057   6.483
12435TIP3   OH237226   3.878   4.254   6.565
12435TIP3    H137227   3.926   4.249   6.480
12435TIP3    H237228   3.903   4.342   6.596
12436TIP3   OH237229   5.818   4.294   6.716
12436TIP3    H137230   5.732   4.337   6.735
12436TIP3    H237231   5.787   4.219   6.662
12437TIP3   OH237232   5.455   3.927   5.310
12437TIP3    H137233   5.492   3.858   5.250
12437TIP3    H237234   5.521   3.998   5.302
12438TIP3   OH237235   3.864   3.764   6.067
12438TIP3    H137236   3.771   3.754   6.092
12438TIP3    H237237   3.857   3.821   5.987
12439TIP3   OH237238   5.025   5.465   5.572
12439TIP3    H137239   5.077   5.454   5.490
12439TIP3    H237240   5.075   5.532   5.620
12440TIP3   OH237241   4.085   3.838   6.879
12440TIP3    H137242   4.032   3.835   6.961
12440TIP3    H237243   4.021   3.878   6.817
12441TIP3   OH237244   4.122   5.272   6.955
12441TIP3    H137245   4.029   5.247   6.937
12441TIP3    H237246   4.131   5.247   7.047
12442TIP3   OH237247   4.305   5.306   6.506
12442TIP3    H137248   4.256   5.381   6.466
12442TIP3    H237249   4.390   5.319   6.459
12443TIP3   OH237250   4.742   5.543   6.642
12443TIP3    H137251   4.785   5.544   6.730
12443TIP3    H237252   4.806   5.596   6.590
12444TIP3   OH237253   4.920   5.699   6.506
12444TIP3    H137254   4.989   5.651   6.458
12444TIP3    H237255   4.975   5.756   6.564
12445TIP3   OH237256   5.719   4.055   6.604
12445TIP3    H137257   5.631   4.045   6.564
12445TIP3    H237258   5.755   3.963   6.593
12446TIP3   OH237259   3.977   5.559   6.529
12446TIP3    H137260   3.887   5.590   6.505
12446TIP3    H237261   3.988   5.603   6.614
12447TIP3   OH237262   4.214   5.538   6.389
12447TIP3    H137263   4.126   5.550   6.431
12447TIP3    H237264   4.196   5.568   6.297
12448TIP3   OH237265   4.638   5.561   6.187
12448TIP3    H137266   4.570   5.578   6.120
12448TIP3    H237267   4.650   5.650   6.226
12449TIP3   OH237268   4.908   5.502   6.241
12449TIP3    H137269   4.814   5.519   6.219
12449TIP3    H237270   4.953   5.573   6.191
12450TIP3   OH237271   5.113   5.692   6.148
12450TIP3    H137272   5.100   5.776   6.098
12450TIP3    H237273   5.140   5.631   6.075
12451TIP3   OH237274   3.888   5.350   6.273
12451TIP3    H137275   3.915   5.321   6.362
12451TIP3    H237276   3.960   5.308   6.220
12452TIP3   OH237277   4.084   5.225   6.134
12452TIP3    H137278   4.099   5.140   6.183
12452TIP3    H237279   4.175   5.259   6.128
12453TIP3   OH237280   4.352   5.316   6.137
12453TIP3    H137281   4.381   5.224   6.123
12453TIP3    H237282   4.401   5.336   6.219
12454TIP3   OH237283   4.931   3.974   6.230
12454TIP3    H137284   4.885   3.902   6.276
12454TIP3    H237285   4.999   3.928   6.179
12455TIP3   OH237286   5.444   3.857   6.128
12455TIP3    H137287   5.480   3.907   6.051
12455TIP3    H237288   5.348   3.874   6.118
12456TIP3   OH237289   5.540   3.950   5.890
12456TIP3    H137290   5.614   3.899   5.851
12456TIP3    H237291   5.574   4.041   5.875
12457TIP3   OH237292   4.172   3.680   6.235
12457TIP3    H137293   4.079   3.649   6.237
12457TIP3    H237294   4.219   3.594   6.230
12458TIP3   OH237295   3.974   3.553   5.889
12458TIP3    H137296   3.995   3.608   5.811
12458TIP3    H237297   3.938   3.620   5.951
12459TIP3   OH237298   4.624   3.708   6.117
12459TIP3    H137299   4.677   3.757   6.052
12459TIP3    H237300   4.642   3.756   6.199
12460TIP3   OH237301   5.161   3.862   6.099
12460TIP3    H137302   5.160   3.822   6.011
12460TIP3    H237303   5.150   3.782   6.156
12461TIP3   OH237304   5.194   3.788   5.664
12461TIP3    H137305   5.108   3.832   5.681
12461TIP3    H237306   5.179   3.701   5.707
12462TIP3   OH237307   3.676   5.129   5.658
12462TIP3    H137308   3.590   5.094   5.628
12462TIP3    H237309   3.667   5.221   5.628
12463TIP3   OH237310   4.079   3.704   5.651
12463TIP3    H137311   4.125   3.644   5.589
12463TIP3    H237312   4.153   3.759   5.684
12464TIP3   OH237313   4.587   3.888   5.747
12464TIP3    H137314   4.648   3.841   5.806
12464TIP3    H237315   4.609   3.981   5.770
12465TIP3   OH237316   4.446   5.314   5.243
12465TIP3    H137317   4.537   5.335   5.213
12465TIP3    H237318   4.427   5.238   5.185
12466TIP3   OH237319   5.173   5.428   5.340
12466TIP3    H137320   5.165   5.330   5.331
12466TIP3    H237321   5.123   5.458   5.261
12467TIP3   OH237322   4.379   3.962   7.129
12467TIP3    H137323   4.343   3.890   7.185
12467TIP3    H237324   4.473   3.961   7.158
12468TIP3   OH237325   4.631   3.960   7.248
12468TIP3    H137326   4.715   3.932   7.208
12468TIP3    H237327   4.616   3.889   7.314
12469TIP3   OH237328   3.754   5.149   5.299
12469TIP3    H137329   3.756   5.163   5.395
12469TIP3    H237330   3.841   5.104   5.283
12470TIP3   OH237331   5.461   4.018   7.041
12470TIP3    H137332   5.487   3.972   7.123
12470TIP3    H237333   5.547   4.023   6.993
12471TIP3   OH237334   5.392   5.573   6.525
12471TIP3    H137335   5.314   5.543   6.474
12471TIP3    H237336   5.373   5.669   6.530
12472TIP3   OH237337   6.661   4.951   5.288
12472TIP3    H137338   6.624   5.038   5.262
12472TIP3    H237339   6.591   4.893   5.254
12473TIP3   OH237340   6.648   4.952   5.683
12473TIP3    H137341   6.691   4.926   5.767
12473TIP3    H237342   6.614   4.866   5.652
12474TIP3   OH237343   5.958   4.837   6.035
12474TIP3    H137344   5.984   4.766   6.098
12474TIP3    H237345   6.038   4.891   6.036
12475TIP3   OH237346   6.897   5.253   5.365
12475TIP3    H137347   6.895   5.176   5.424
12475TIP3    H237348   6.944   5.319   5.417
12476TIP3   OH237349   5.941   5.254   5.751
12476TIP3    H137350   5.922   5.158   5.745
12476TIP3    H237351   6.014   5.254   5.813
12477TIP3   OH237352   5.638   4.455   5.542
12477TIP3    H137353   5.585   4.534   5.562
12477TIP3    H237354   5.570   4.401   5.498
12478TIP3   OH237355   5.702   4.744   5.728
12478TIP3    H137356   5.748   4.664   5.759
12478TIP3    H237357   5.742   4.759   5.642
12479TIP3   OH237358   6.543   5.692   5.386
12479TIP3    H137359   6.602   5.634   5.334
12479TIP3    H237360   6.597   5.716   5.463
12480TIP3   OH237361   6.489   5.196   5.664
12480TIP3    H137362   6.512   5.100   5.659
12480TIP3    H237363   6.566   5.223   5.720
12481TIP3   OH237364   7.475   4.492   5.719
12481TIP3    H137365   7.506   4.576   5.758
12481TIP3    H237366   7.498   4.505   5.625
12482TIP3   OH237367   6.875   4.673   5.748
12482TIP3    H137368   6.915   4.587   5.770
12482TIP3    H237369   6.839   4.654   5.659
12483TIP3   OH237370   6.215   4.333   5.714
12483TIP3    H137371   6.192   4.404   5.651
12483TIP3    H237372   6.167   4.258   5.673
12484TIP3   OH237373   6.907   4.427   5.336
12484TIP3    H137374   6.977   4.411   5.402
12484TIP3    H237375   6.961   4.460   5.261
12485TIP3   OH237376   5.843   4.532   5.826
12485TIP3    H137377   5.926   4.511   5.873
12485TIP3    H237378   5.855   4.477   5.746
12486TIP3   OH237379   6.281   4.732   5.624
12486TIP3    H137380   6.375   4.708   5.635
12486TIP3    H237381   6.242   4.649   5.590
12487TIP3   OH237382   7.551   4.705   5.885
12487TIP3    H137383   7.465   4.747   5.865
12487TIP3    H237384   7.552   4.715   5.982
12488TIP3   OH237385   6.207   4.317   6.154
12488TIP3    H137386   6.147   4.352   6.085
12488TIP3    H237387   6.152   4.333   6.234
12489TIP3   OH237388   6.537   5.166   5.168
12489TIP3    H137389   6.509   5.147   5.076
12489TIP3    H237390   6.496   5.252   5.184
12490TIP3   OH237391   6.316   5.101   5.935
12490TIP3    H137392   6.245   5.150   5.983
12490TIP3    H237393   6.369   5.175   5.902
12491TIP3   OH237394   7.109   4.432   5.516
12491TIP3    H137395   7.098   4.380   5.596
12491TIP3    H237396   7.161   4.509   5.547
12492TIP3   OH237397   6.080   4.430   5.934
12492TIP3    H137398   6.143   4.501   5.959
12492TIP3    H237399   6.129   4.389   5.859
12493TIP3   OH237400   6.138   5.288   6.036
12493TIP3    H137401   6.117   5.381   6.014
12493TIP3    H237402   6.061   5.269   6.096
12494TIP3   OH237403   5.536   4.980   5.279
12494TIP3    H137404   5.491   5.003   5.196
12494TIP3    H237405   5.564   5.067   5.312
12495TIP3   OH237406   6.967   5.499   5.535
12495TIP3    H137407   6.880   5.498   5.576
12495TIP3    H237408   6.965   5.582   5.483
12496TIP3   OH237409   7.267   4.397   5.888
12496TIP3    H137410   7.179   4.417   5.852
12496TIP3    H237411   7.326   4.425   5.815
12497TIP3   OH237412   6.557   4.031   5.869
12497TIP3    H137413   6.542   3.936   5.888
12497TIP3    H237414   6.480   4.070   5.916
12498TIP3   OH237415   6.678   5.539   5.203
12498TIP3    H137416   6.725   5.456   5.177
12498TIP3    H237417   6.738   5.604   5.158
12499TIP3   OH237418   6.807   5.320   5.110
12499TIP3    H137419   6.799   5.241   5.055
12499TIP3    H237420   6.844   5.283   5.193
12500TIP3   OH237421   7.205   5.402   5.867
12500TIP3    H137422   7.188   5.325   5.808
12500TIP3    H237423   7.181   5.476   5.808
12501TIP3   OH237424   6.494   4.802   5.126
12501TIP3    H137425   6.412   4.852   5.105
12501TIP3    H237426   6.534   4.791   5.038
12502TIP3   OH237427   6.450   4.583   4.844
12502TIP3    H137428   6.521   4.637   4.882
12502TIP3    H237429   6.502   4.518   4.792
12503TIP3   OH237430   7.395   5.049   5.715
12503TIP3    H137431   7.309   5.097   5.716
12503TIP3    H237432   7.424   5.068   5.623
12504TIP3   OH237433   6.840   4.885   5.092
12504TIP3    H137434   6.786   4.906   5.171
12504TIP3    H237435   6.924   4.857   5.135
12505TIP3   OH237436   7.072   4.919   6.010
12505TIP3    H137437   7.066   5.001   6.062
12505TIP3    H237438   6.985   4.919   5.964
12506TIP3   OH237439   6.073   4.879   5.509
12506TIP3    H137440   6.026   4.820   5.444
12506TIP3    H237441   6.146   4.821   5.540
12507TIP3   OH237442   6.233   5.307   5.610
12507TIP3    H137443   6.155   5.271   5.563
12507TIP3    H237444   6.263   5.231   5.663
12508TIP3   OH237445   6.215   4.846   5.870
12508TIP3    H137446   6.239   4.817   5.779
12508TIP3    H237447   6.254   4.935   5.876
12509TIP3   OH237448   6.344   5.404   6.189
12509TIP3    H137449   6.285   5.466   6.237
12509TIP3    H237450   6.278   5.352   6.139
12510TIP3   OH237451   6.677   4.738   4.921
12510TIP3    H137452   6.736   4.800   4.970
12510TIP3    H237453   6.703   4.759   4.828
12511TIP3   OH237454   6.101   4.962   6.292
12511TIP3    H137455   6.104   5.049   6.337
12511TIP3    H237456   6.007   4.939   6.307
12512TIP3   OH237457   6.426   5.424   5.250
12512TIP3    H137458   6.503   5.479   5.222
12512TIP3    H237459   6.361   5.450   5.183
12513TIP3   OH237460   6.140   5.568   6.279
12513TIP3    H137461   6.101   5.576   6.190
12513TIP3    H237462   6.060   5.547   6.334
12514TIP3   OH237463   7.195   3.977   4.971
12514TIP3    H137464   7.113   3.997   5.020
12514TIP3    H237465   7.208   4.059   4.920
12515TIP3   OH237466   5.935   4.723   5.320
12515TIP3    H137467   5.866   4.766   5.264
12515TIP3    H237468   5.901   4.633   5.326
12516TIP3   OH237469   6.996   5.345   4.520
12516TIP3    H137470   7.003   5.441   4.503
12516TIP3    H237471   7.089   5.316   4.507
12517TIP3   OH237472   5.719   5.106   6.223
12517TIP3    H137473   5.648   5.089   6.157
12517TIP3    H237474   5.754   5.016   6.241
12518TIP3   OH237475   5.569   5.301   5.856
12518TIP3    H137476   5.666   5.308   5.855
12518TIP3    H237477   5.544   5.381   5.904
12519TIP3   OH237478   6.536   5.536   6.043
12519TIP3    H137479   6.536   5.628   6.078
12519TIP3    H237480   6.467   5.495   6.099
12520TIP3   OH237481   6.313   5.662   4.999
12520TIP3    H137482   6.262   5.640   4.919
12520TIP3    H237483   6.273   5.747   5.027
12521TIP3   OH237484   5.743   5.510   5.381
12521TIP3    H137485   5.784   5.503   5.470
12521TIP3    H237486   5.690   5.428   5.379
12522TIP3   OH237487   6.505   5.567   4.635
12522TIP3    H137488   6.563   5.496   4.599
12522TIP3    H237489   6.540   5.577   4.725
12523TIP3   OH237490   6.561   5.615   4.902
12523TIP3    H137491   6.472   5.626   4.943
12523TIP3    H237492   6.611   5.574   4.974
12524TIP3   OH237493   7.326   4.880   6.185
12524TIP3    H137494   7.240   4.886   6.139
12524TIP3    H237495   7.344   4.784   6.178
12525TIP3   OH237496   5.925   5.286   6.204
12525TIP3    H137497   5.970   5.273   6.290
12525TIP3    H237498   5.849   5.224   6.213
12526TIP3   OH237499   6.322   4.111   5.999
12526TIP3    H137500   6.234   4.079   5.968
12526TIP3    H237501   6.293   4.190   6.049
12527TIP3   OH237502   6.857   4.227   6.192
12527TIP3    H137503   6.927   4.196   6.255
12527TIP3    H237504   6.775   4.205   6.240
12528TIP3   OH237505   7.096   4.658   6.115
12528TIP3    H137506   7.042   4.653   6.197
12528TIP3    H237507   7.067   4.742   6.075
12529TIP3   OH237508   6.761   4.782   4.670
12529TIP3    H137509   6.717   4.762   4.585
12529TIP3    H237510   6.844   4.824   4.639
12530TIP3   OH237511   6.468   4.157   4.969
12530TIP3    H137512   6.431   4.154   5.059
12530TIP3    H237513   6.428   4.075   4.932
12531TIP3   OH237514   6.257   4.624   6.020
12531TIP3    H137515   6.203   4.643   6.099
12531TIP3    H237516   6.242   4.706   5.967
12532TIP3   OH237517   6.136   4.516   5.530
12532TIP3    H137518   6.044   4.488   5.549
12532TIP3    H237519   6.149   4.475   5.441
12533TIP3   OH237520   6.630   4.602   5.262
12533TIP3    H137521   6.578   4.671   5.215
12533TIP3    H237522   6.683   4.564   5.190
12534TIP3   OH237523   6.803   4.873   6.342
12534TIP3    H137524   6.779   4.801   6.404
12534TIP3    H237525   6.897   4.885   6.365
12535TIP3   OH237526   6.786   4.625   5.492
12535TIP3    H137527   6.721   4.647   5.423
12535TIP3    H237528   6.824   4.545   5.449
12536TIP3   OH237529   6.074   4.653   6.223
12536TIP3    H137530   6.095   4.716   6.294
12536TIP3    H237531   6.060   4.570   6.273
12537TIP3   OH237532   6.126   4.136   4.933
12537TIP3    H137533   6.115   4.131   5.030
12537TIP3    H237534   6.047   4.188   4.908
12538TIP3   OH237535   5.665   4.174   5.809
12538TIP3    H137536   5.743   4.206   5.859
12538TIP3    H237537   5.702   4.144   5.724
12539TIP3   OH237538   5.630   4.157   5.323
12539TIP3    H137539   5.676   4.193   5.244
12539TIP3    H237540   5.568   4.230   5.341
12540TIP3   OH237541   6.798   4.871   5.913
12540TIP3    H137542   6.830   4.799   5.853
12540TIP3    H237543   6.767   4.816   5.989
12541TIP3   OH237544   6.474   4.339   5.591
12541TIP3    H137545   6.391   4.334   5.643
12541TIP3    H237546   6.542   4.324   5.660
12542TIP3   OH237547   5.899   4.393   5.596
12542TIP3    H137548   5.805   4.401   5.567
12542TIP3    H237549   5.921   4.300   5.574
12543TIP3   OH237550   6.164   4.389   5.290
12543TIP3    H137551   6.257   4.399   5.264
12543TIP3    H237552   6.115   4.408   5.206
12544TIP3   OH237553   6.957   4.412   5.796
12544TIP3    H137554   6.923   4.424   5.887
12544TIP3    H237555   6.891   4.350   5.761
12545TIP3   OH237556   6.015   4.424   5.065
12545TIP3    H137557   5.942   4.379   5.019
12545TIP3    H237558   6.066   4.458   4.989
12546TIP3   OH237559   7.133   6.095   6.022
12546TIP3    H137560   7.125   6.103   5.925
12546TIP3    H237561   7.188   6.171   6.045
12547TIP3   OH237562   6.086   5.211   6.431
12547TIP3    H137563   6.165   5.239   6.482
12547TIP3    H237564   6.020   5.208   6.502
12548TIP3   OH237565   6.547   4.668   5.691
12548TIP3    H137566   6.614   4.619   5.642
12548TIP3    H237567   6.547   4.622   5.777
12549TIP3   OH237568   6.068   4.148   5.572
12549TIP3    H137569   6.030   4.073   5.622
12549TIP3    H237570   6.108   4.103   5.497
12550TIP3   OH237571   6.524   4.569   5.967
12550TIP3    H137572   6.433   4.597   5.989
12550TIP3    H237573   6.579   4.627   6.023
12551TIP3   OH237574   6.259   4.953   5.077
12551TIP3    H137575   6.190   4.884   5.065
12551TIP3    H237576   6.239   4.985   5.168
12552TIP3   OH237577   7.158   5.189   5.699
12552TIP3    H137578   7.183   5.239   5.618
12552TIP3    H237579   7.075   5.144   5.670
12553TIP3   OH237580   6.717   4.260   4.942
12553TIP3    H137581   6.621   4.236   4.950
12553TIP3    H237582   6.719   4.354   4.968
12554TIP3   OH237583   6.655   5.272   6.062
12554TIP3    H137584   6.688   5.247   6.149
12554TIP3    H237585   6.621   5.362   6.077
12555TIP3   OH237586   6.785   4.512   5.046
12555TIP3    H137587   6.881   4.517   5.057
12555TIP3    H237588   6.764   4.591   4.992
12556TIP3   OH237589   5.968   4.984   5.747
12556TIP3    H137590   5.997   4.945   5.662
12556TIP3    H237591   5.985   4.912   5.809
12557TIP3   OH237592   6.412   5.104   4.910
12557TIP3    H137593   6.361   5.188   4.908
12557TIP3    H237594   6.352   5.047   4.963
12558TIP3   OH237595   5.839   4.888   6.359
12558TIP3    H137596   5.849   4.873   6.455
12558TIP3    H237597   5.765   4.828   6.337
12559TIP3   OH237598   6.562   5.011   6.380
12559TIP3    H137599   6.498   4.949   6.342
12559TIP3    H237600   6.647   4.972   6.350
12560TIP3   OH237601   6.824   5.523   5.966
12560TIP3    H137602   6.727   5.526   5.969
12560TIP3    H237603   6.846   5.580   6.043
12561TIP3   OH237604   7.227   4.605   4.874
12561TIP3    H137605   7.166   4.561   4.811
12561TIP3    H237606   7.224   4.695   4.834
12562TIP3   OH237607   7.448   5.481   5.952
12562TIP3    H137608   7.354   5.455   5.942
12562TIP3    H237609   7.482   5.443   5.867
12563TIP3   OH237610   6.936   5.418   4.785
12563TIP3    H137611   6.902   5.346   4.839
12563TIP3    H237612   6.946   5.377   4.697
12564TIP3   OH237613   6.927   5.053   5.608
12564TIP3    H137614   6.835   5.029   5.628
12564TIP3    H237615   6.959   4.969   5.568
12565TIP3   OH237616   6.054   5.283   5.381
12565TIP3    H137617   6.044   5.362   5.324
12565TIP3    H237618   5.962   5.255   5.388
12566TIP3   OH237619   5.622   4.579   5.082
12566TIP3    H137620   5.663   4.665   5.103
12566TIP3    H237621   5.542   4.581   5.139
12567TIP3   OH237622   6.195   5.050   5.324
12567TIP3    H137623   6.148   5.134   5.341
12567TIP3    H237624   6.154   4.991   5.391
12568TIP3   OH237625   6.333   5.613   5.837
12568TIP3    H137626   6.371   5.691   5.791
12568TIP3    H237627   6.407   5.586   5.893
12569TIP3   OH237628   5.976   5.514   5.229
12569TIP3    H137629   5.888   5.524   5.272
12569TIP3    H237630   6.007   5.607   5.229
12570TIP3   OH237631   6.714   5.252   5.797
12570TIP3    H137632   6.701   5.260   5.894
12570TIP3    H237633   6.801   5.210   5.792
12571TIP3   OH237634   6.692   5.152   4.682
12571TIP3    H137635   6.737   5.127   4.765
12571TIP3    H237636   6.603   5.116   4.697
12572TIP3   OH237637   6.950   5.780   5.841
12572TIP3    H137638   6.871   5.725   5.831
12572TIP3    H237639   6.937   5.848   5.771
12573TIP3   OH237640   7.025   5.620   4.501
12573TIP3    H137641   7.058   5.693   4.446
12573TIP3    H237642   6.945   5.664   4.538
12574TIP3   OH237643   6.041   4.400   6.365
12574TIP3    H137644   5.944   4.402   6.376
12574TIP3    H237645   6.068   4.343   6.438
12575TIP3   OH237646   6.851   5.094   4.909
12575TIP3    H137647   6.838   5.020   4.972
12575TIP3    H237648   6.946   5.083   4.890
12576TIP3   OH237649   5.770   5.479   5.998
12576TIP3    H137650   5.817   5.413   6.052
12576TIP3    H237651   5.779   5.559   6.052
12577TIP3   OH237652   6.052   5.128   4.688
12577TIP3    H137653   6.062   5.037   4.655
12577TIP3    H237654   6.023   5.112   4.780
12578TIP3   OH237655   5.990   5.138   4.961
12578TIP3    H137656   6.068   5.107   5.010
12578TIP3    H237657   5.999   5.235   4.967
12579TIP3   OH237658   5.732   4.827   5.161
12579TIP3    H137659   5.664   4.872   5.215
12579TIP3    H237660   5.743   4.891   5.089
12580TIP3   OH237661   6.884   4.465   6.057
12580TIP3    H137662   6.967   4.498   6.095
12580TIP3    H237663   6.869   4.382   6.108
12581TIP3   OH237664   6.764   4.210   5.223
12581TIP3    H137665   6.750   4.230   5.128
12581TIP3    H237666   6.804   4.293   5.256
12582TIP3   OH237667   6.272   5.336   4.917
12582TIP3    H137668   6.182   5.361   4.945
12582TIP3    H237669   6.279   5.389   4.836
12583TIP3   OH237670   6.451   4.397   5.322
12583TIP3    H137671   6.514   4.470   5.306
12583TIP3    H237672   6.456   4.388   5.419
12584TIP3   OH237673   6.724   4.711   6.121
12584TIP3    H137674   6.748   4.758   6.203
12584TIP3    H237675   6.773   4.628   6.129
12585TIP3   OH237676   6.591   4.116   5.421
12585TIP3    H137677   6.582   4.197   5.474
12585TIP3    H237678   6.654   4.146   5.352
12586TIP3   OH237679   6.016   5.410   4.975
12586TIP3    H137680   5.983   5.478   4.913
12586TIP3    H237681   5.994   5.451   5.062
12587TIP3   OH237682   6.106   4.121   5.209
12587TIP3    H137683   6.104   4.210   5.249
12587TIP3    H237684   6.202   4.102   5.216
12588TIP3   OH237685   7.361   4.611   6.101
12588TIP3    H137686   7.263   4.616   6.115
12588TIP3    H237687   7.363   4.551   6.026
12589TIP3   OH237688   7.011   4.807   5.496
12589TIP3    H137689   6.934   4.747   5.505
12589TIP3    H237690   7.081   4.758   5.544
12590TIP3   OH237691   5.724   5.034   4.961
12590TIP3    H137692   5.799   5.096   4.971
12590TIP3    H237693   5.767   4.969   4.900
12591TIP3   OH237694   5.666   4.309   5.096
12591TIP3    H137695   5.667   4.407   5.096
12591TIP3    H237696   5.581   4.290   5.056
12592TIP3   OH237697   6.984   5.758   5.438
12592TIP3    H137698   6.942   5.808   5.365
12592TIP3    H237699   7.078   5.779   5.423
12593TIP3   OH237700   6.058   4.030   5.968
12593TIP3    H137701   6.027   3.996   5.881
12593TIP3    H237702   6.046   3.952   6.026
12594TIP3   OH237703   5.594   5.251   5.349
12594TIP3    H137704   5.531   5.278   5.417
12594TIP3    H237705   5.556   5.294   5.269
12595TIP3   OH237706   5.756   5.798   6.425
12595TIP3    H137707   5.842   5.797   6.472
12595TIP3    H237708   5.734   5.703   6.423
12596TIP3   OH237709   6.232   5.749   6.470
12596TIP3    H137710   6.327   5.731   6.473
12596TIP3    H237711   6.204   5.689   6.398
12597TIP3   OH237712   6.219   5.328   4.601
12597TIP3    H137713   6.161   5.254   4.631
12597TIP3    H237714   6.290   5.278   4.555
12598TIP3   OH237715   6.869   5.660   6.199
12598TIP3    H137716   6.863   5.591   6.269
12598TIP3    H237717   6.939   5.718   6.232
12599TIP3   OH237718   6.653   5.370   4.511
12599TIP3    H137719   6.690   5.301   4.569
12599TIP3    H237720   6.708   5.363   4.431
12600TIP3   OH237721   5.883   5.200   6.622
12600TIP3    H137722   5.898   5.104   6.630
12600TIP3    H237723   5.796   5.203   6.577
12601TIP3   OH237724   5.876   4.857   4.833
12601TIP3    H137725   5.935   4.814   4.897
12601TIP3    H237726   5.932   4.855   4.752
12602TIP3   OH237727   6.491   5.288   6.397
12602TIP3    H137728   6.447   5.306   6.311
12602TIP3    H237729   6.521   5.195   6.386
12603TIP3   OH237730   6.394   5.052   4.634
12603TIP3    H137731   6.384   5.058   4.731
12603TIP3    H237732   6.388   4.955   4.621
12604TIP3   OH237733   6.983   5.298   6.005
12604TIP3    H137734   7.059   5.340   5.961
12604TIP3    H237735   6.914   5.365   5.991
12605TIP3   OH237736   6.006   4.939   6.608
12605TIP3    H137737   6.079   4.882   6.583
12605TIP3    H237738   6.034   4.970   6.697
12606TIP3   OH237739   6.076   4.752   5.043
12606TIP3    H137740   6.039   4.706   5.121
12606TIP3    H237741   6.110   4.677   4.990
12607TIP3   OH237742   6.341   4.822   6.274
12607TIP3    H137743   6.259   4.876   6.272
12607TIP3    H237744   6.388   4.854   6.194
12608TIP3   OH237745   6.171   4.551   4.878
12608TIP3    H137746   6.147   4.558   4.784
12608TIP3    H237747   6.269   4.550   4.872
12609TIP3   OH237748   6.859   5.220   6.399
12609TIP3    H137749   6.932   5.180   6.351
12609TIP3    H237750   6.847   5.157   6.473
12610TIP3   OH237751   6.990   4.872   4.540
12610TIP3    H137752   6.965   4.827   4.457
12610TIP3    H237753   6.956   4.962   4.519
12611TIP3   OH237754   6.463   4.607   6.390
12611TIP3    H137755   6.462   4.529   6.332
12611TIP3    H237756   6.417   4.675   6.335
12612TIP3   OH237757   6.464   4.396   6.200
12612TIP3    H137758   6.492   4.432   6.113
12612TIP3    H237759   6.371   4.371   6.182
12613TIP3   OH237760   6.484   4.928   6.074
12613TIP3    H137761   6.570   4.933   6.031
12613TIP3    H237762   6.430   4.990   6.020
12614TIP3   OH237763   7.069   4.891   6.451
12614TIP3    H137764   7.111   4.806   6.469
12614TIP3    H237765   7.142   4.943   6.415
12615TIP3   OH237766   7.112   5.151   6.192
12615TIP3    H137767   7.054   5.204   6.133
12615TIP3    H237768   7.200   5.169   6.152
12616TIP3   OH237769   6.342   4.711   6.626
12616TIP3    H137770   6.274   4.643   6.643
12616TIP3    H237771   6.373   4.686   6.537
12617TIP3   OH237772   6.596   4.156   6.271
12617TIP3    H137773   6.545   4.236   6.248
12617TIP3    H237774   6.528   4.086   6.260
12618TIP3   OH237775   6.720   4.657   6.485
12618TIP3    H137776   6.704   4.640   6.580
12618TIP3    H237777   6.632   4.633   6.450
12619TIP3   OH237778   6.961   4.611   6.343
12619TIP3    H137779   6.885   4.609   6.405
12619TIP3    H237780   7.034   4.578   6.398
12620TIP3   OH237781   7.194   4.552   6.488
12620TIP3    H137782   7.206   4.456   6.502
12620TIP3    H237783   7.188   4.587   6.579
12621TIP3   OH237784   6.180   4.493   6.681
12621TIP3    H137785   6.181   4.400   6.649
12621TIP3    H237786   6.218   4.480   6.771
12622TIP3   OH237787   6.688   4.166   6.530
12622TIP3    H137788   6.754   4.093   6.523
12622TIP3    H237789   6.649   4.161   6.440
12623TIP3   OH237790   6.758   4.381   6.685
12623TIP3    H137791   6.736   4.308   6.623
12623TIP3    H237792   6.678   4.437   6.679
12624TIP3   OH237793   5.981   5.611   4.788
12624TIP3    H137794   6.075   5.602   4.765
12624TIP3    H237795   5.950   5.660   4.710
12625TIP3   OH237796   5.457   4.993   5.003
12625TIP3    H137797   5.551   5.014   4.986
12625TIP3    H237798   5.449   4.907   4.955
12626TIP3   OH237799   5.376   5.601   5.416
12626TIP3    H137800   5.309   5.541   5.377
12626TIP3    H237801   5.419   5.541   5.480
12627TIP3   OH237802   5.508   5.446   5.602
12627TIP3    H137803   5.490   5.378   5.669
12627TIP3    H237804   5.558   5.510   5.656
12628TIP3   OH237805   7.240   5.856   5.413
12628TIP3    H137806   7.252   5.937   5.465
12628TIP3    H237807   7.287   5.881   5.332
12629TIP3   OH237808   7.285   5.864   5.705
12629TIP3    H137809   7.226   5.786   5.703
12629TIP3    H237810   7.349   5.840   5.636
12630TIP3   OH237811   7.311   5.566   6.246
12630TIP3    H137812   7.240   5.557   6.313
12630TIP3    H237813   7.356   5.647   6.277
12631TIP3   OH237814   7.128   5.062   4.877
12631TIP3    H137815   7.194   5.127   4.846
12631TIP3    H237816   7.173   5.024   4.955
12632TIP3   OH237817   7.255   4.930   5.083
12632TIP3    H137818   7.188   4.887   5.140
12632TIP3    H237819   7.319   4.965   5.149
12633TIP3   OH237820   7.313   5.326   5.514
12633TIP3    H137821   7.365   5.255   5.470
12633TIP3    H237822   7.313   5.397   5.446
12634TIP3   OH237823   7.141   5.625   5.716
12634TIP3    H137824   7.069   5.672   5.765
12634TIP3    H237825   7.091   5.583   5.643
12635TIP3   OH237826   7.191   4.839   4.724
12635TIP3    H137827   7.120   4.839   4.657
12635TIP3    H237828   7.161   4.915   4.779
12636TIP3   OH237829   7.063   4.510   4.679
12636TIP3    H137830   7.016   4.542   4.602
12636TIP3    H237831   7.043   4.414   4.674
12637TIP3   OH237832   7.066   4.788   5.225
12637TIP3    H137833   7.073   4.692   5.214
12637TIP3    H237834   7.052   4.797   5.322
12638TIP3   OH237835   5.692   4.857   5.978
12638TIP3    H137836   5.688   4.824   5.885
12638TIP3    H237837   5.789   4.858   5.992
12639TIP3   OH237838   7.361   5.215   6.086
12639TIP3    H137839   7.429   5.143   6.076
12639TIP3    H237840   7.379   5.270   6.009
12640TIP3   OH237841   7.543   5.014   6.092
12640TIP3    H137842   7.467   4.963   6.129
12640TIP3    H237843   7.615   4.950   6.111
12641TIP3   OH237844   7.005   4.244   4.660
12641TIP3    H137845   7.075   4.210   4.719
12641TIP3    H237846   6.928   4.188   4.681
12642TIP3   OH237847   7.068   4.507   5.117
12642TIP3    H137848   7.107   4.417   5.133
12642TIP3    H237849   7.125   4.537   5.044
12643TIP3   OH237850   7.223   4.674   5.616
12643TIP3    H137851   7.309   4.698   5.574
12643TIP3    H237852   7.239   4.710   5.706
12644TIP3   OH237853   7.298   4.822   5.845
12644TIP3    H137854   7.221   4.854   5.895
12644TIP3    H237855   7.330   4.905   5.802
12645TIP3   OH237856   5.914   4.547   6.652
12645TIP3    H137857   6.012   4.540   6.655
12645TIP3    H237858   5.889   4.459   6.687
12646TIP3   OH237859   7.747   4.418   6.400
12646TIP3    H137860   7.807   4.352   6.360
12646TIP3    H237861   7.716   4.468   6.321
12647TIP3   OH237862   7.172   4.256   5.159
12647TIP3    H137863   7.219   4.237   5.243
12647TIP3    H237864   7.111   4.179   5.156
12648TIP3   OH237865   5.875   4.240   5.980
12648TIP3    H137866   5.935   4.163   5.987
12648TIP3    H237867   5.938   4.312   5.970
12649TIP3   OH237868   5.673   4.511   6.052
12649TIP3    H137869   5.722   4.505   5.967
12649TIP3    H237870   5.700   4.598   6.083
12650TIP3   OH237871   7.616   4.550   6.200
12650TIP3    H137872   7.530   4.592   6.220
12650TIP3    H237873   7.585   4.475   6.146
12651TIP3   OH237874   7.250   4.185   4.793
12651TIP3    H137875   7.287   4.114   4.736
12651TIP3    H237876   7.318   4.254   4.788
12652TIP3   OH237877   5.660   4.022   5.556
12652TIP3    H137878   5.567   4.011   5.581
12652TIP3    H237879   5.653   4.078   5.475
12653TIP3   OH237880   6.822   5.718   5.061
12653TIP3    H137881   6.870   5.708   4.977
12653TIP3    H237882   6.870   5.792   5.103
12654TIP3   OH237883   5.881   4.097   6.368
12654TIP3    H137884   5.828   4.092   6.449
12654TIP3    H237885   5.815   4.134   6.306
12655TIP3   OH237886   5.920   5.522   6.441
12655TIP3    H137887   5.825   5.503   6.426
12655TIP3    H237888   5.928   5.507   6.536
12656TIP3   OH237889   6.105   5.556   5.987
12656TIP3    H137890   6.051   5.630   5.951
12656TIP3    H237891   6.189   5.576   5.941
12657TIP3   OH237892   6.540   5.800   6.126
12657TIP3    H137893   6.580   5.801   6.215
12657TIP3    H237894   6.607   5.851   6.075
12658TIP3   OH237895   6.726   5.948   5.989
12658TIP3    H137896   6.802   5.901   5.952
12658TIP3    H237897   6.772   6.011   6.049
12659TIP3   OH237898   7.516   4.310   6.088
12659TIP3    H137899   7.426   4.294   6.055
12659TIP3    H237900   7.554   4.219   6.080
12660TIP3   OH237901   5.778   5.810   6.022
12660TIP3    H137902   5.687   5.836   5.994
12660TIP3    H237903   5.788   5.871   6.097
12661TIP3   OH237904   6.010   5.789   5.873
12661TIP3    H137905   5.924   5.801   5.919
12661TIP3    H237906   5.989   5.828   5.785
12662TIP3   OH237907   6.434   5.819   5.673
12662TIP3    H137908   6.362   5.835   5.608
12662TIP3    H237909   6.443   5.908   5.713
12663TIP3   OH237910   6.705   5.755   5.683
12663TIP3    H137911   6.611   5.779   5.690
12663TIP3    H237912   6.749   5.841   5.670
12664TIP3   OH237913   6.909   5.949   5.632
12664TIP3    H137914   6.898   6.036   5.587
12664TIP3    H237915   6.934   5.891   5.557
12665TIP3   OH237916   5.683   5.604   5.758
12665TIP3    H137917   5.709   5.575   5.848
12665TIP3    H237918   5.756   5.562   5.707
12666TIP3   OH237919   5.879   5.482   5.617
12666TIP3    H137920   5.896   5.397   5.665
12666TIP3    H237921   5.969   5.519   5.612
12667TIP3   OH237922   6.147   5.571   5.621
12667TIP3    H137923   6.173   5.477   5.617
12667TIP3    H237924   6.194   5.598   5.703
12668TIP3   OH237925   6.721   4.228   5.713
12668TIP3    H137926   6.678   4.156   5.762
12668TIP3    H237927   6.792   4.182   5.664
12669TIP3   OH237928   7.240   4.118   5.615
12669TIP3    H137929   7.275   4.165   5.536
12669TIP3    H237930   7.144   4.128   5.603
12670TIP3   OH237931   7.337   4.209   5.376
12670TIP3    H137932   7.411   4.156   5.338
12670TIP3    H237933   7.371   4.300   5.360
12671TIP3   OH237934   5.968   3.937   5.722
12671TIP3    H137935   5.875   3.905   5.725
12671TIP3    H237936   6.015   3.851   5.718
12672TIP3   OH237937   5.762   3.810   5.378
12672TIP3    H137938   5.789   3.863   5.301
12672TIP3    H237939   5.734   3.878   5.442
12673TIP3   OH237940   6.416   3.971   5.604
12673TIP3    H137941   6.473   4.016   5.540
12673TIP3    H237942   6.448   4.008   5.688
12674TIP3   OH237943   6.958   4.117   5.584
12674TIP3    H137944   6.958   4.073   5.498
12674TIP3    H237945   6.948   4.040   5.645
12675TIP3   OH237946   6.990   4.043   5.151
12675TIP3    H137947   6.903   4.083   5.168
12675TIP3    H237948   6.978   3.956   5.195
12676TIP3   OH237949   5.474   5.385   5.148
12676TIP3    H137950   5.389   5.351   5.116
12676TIP3    H237951   5.464   5.479   5.124
12677TIP3   OH237952   5.877   3.965   5.132
12677TIP3    H137953   5.924   3.900   5.076
12677TIP3    H237954   5.952   4.017   5.167
12678TIP3   OH237955   6.382   4.148   5.231
12678TIP3    H137956   6.438   4.094   5.289
12678TIP3    H237957   6.409   4.238   5.259
12679TIP3   OH237958   6.246   5.566   4.731
12679TIP3    H137959   6.333   5.589   4.694
12679TIP3    H237960   6.224   5.490   4.672
12680TIP3   OH237961   6.965   5.686   4.828
12680TIP3    H137962   6.958   5.589   4.816
12680TIP3    H237963   6.918   5.718   4.748
12681TIP3   OH237964   6.176   4.219   6.616
12681TIP3    H137965   6.141   4.147   6.672
12681TIP3    H237966   6.270   4.218   6.644
12682TIP3   OH237967   6.428   4.216   6.733
12682TIP3    H137968   6.512   4.189   6.694
12682TIP3    H237969   6.415   4.146   6.801
12683TIP3   OH237970   5.543   5.400   4.780
12683TIP3    H137971   5.542   5.420   4.875
12683TIP3    H237972   5.631   5.358   4.769
12684TIP3   OH237973   7.254   4.281   6.519
12684TIP3    H137974   7.271   4.250   6.611
12684TIP3    H237975   7.344   4.274   6.480
12685TIP3   OH237976   8.460   5.203   4.777
12685TIP3    H137977   8.431   5.294   4.758
12685TIP3    H237978   8.385   5.152   4.743
12686TIP3   OH237979   8.455   5.206   5.160
12686TIP3    H137980   8.483   5.186   5.251
12686TIP3    H237981   8.413   5.122   5.134
12687TIP3   OH237982   7.753   5.096   5.528
12687TIP3    H137983   7.782   5.024   5.588
12687TIP3    H237984   7.837   5.140   5.510
12688TIP3   OH237985   8.704   5.507   4.847
12688TIP3    H137986   8.687   5.442   4.917
12688TIP3    H237987   8.734   5.585   4.898
12689TIP3   OH237988   7.732   5.511   5.254
12689TIP3    H137989   7.723   5.413   5.252
12689TIP3    H237990   7.828   5.519   5.238
12690TIP3   OH237991   7.435   4.711   5.028
12690TIP3    H137992   7.383   4.792   5.047
12690TIP3    H237993   7.366   4.656   4.987
12691TIP3   OH237994   7.491   4.997   5.215
12691TIP3    H137995   7.541   4.919   5.246
12691TIP3    H237996   7.546   5.028   5.142
12692TIP3   OH237997   8.351   5.966   4.859
12692TIP3    H137998   8.393   5.893   4.808
12692TIP3    H237999   8.347   5.927   4.947
12693TIP3   OH238000   8.253   5.430   5.210
12693TIP3    H138001   8.294   5.355   5.165
12693TIP3    H238002   8.334   5.476   5.238
12694TIP3   OH238003   9.242   4.762   5.212
12694TIP3    H138004   9.281   4.836   5.262
12694TIP3    H238005   9.294   4.766   5.131
12695TIP3   OH238006   8.650   4.918   5.254
12695TIP3    H138007   8.701   4.837   5.270
12695TIP3    H238008   8.632   4.911   5.158
12696TIP3   OH238009   8.014   4.589   5.201
12696TIP3    H138010   7.990   4.661   5.139
12696TIP3    H238011   7.965   4.515   5.159
12697TIP3   OH238012   8.707   4.687   4.827
12697TIP3    H138013   8.779   4.666   4.891
12697TIP3    H238014   8.761   4.715   4.751
12698TIP3   OH238015   7.640   4.790   5.313
12698TIP3    H138016   7.722   4.768   5.360
12698TIP3    H238017   7.652   4.734   5.232
12699TIP3   OH238018   8.075   4.988   5.110
12699TIP3    H138019   8.170   4.966   5.114
12699TIP3    H238020   8.036   4.905   5.076
12700TIP3   OH238021   9.334   4.954   5.388
12700TIP3    H138022   9.249   5.001   5.383
12700TIP3    H238023   9.353   4.955   5.484
12701TIP3   OH238024   8.006   4.572   5.647
12701TIP3    H138025   7.949   4.608   5.577
12701TIP3    H238026   7.950   4.588   5.725
12702TIP3   OH238027   8.339   5.421   4.649
12702TIP3    H138028   8.257   5.385   4.614
12702TIP3    H238029   8.311   5.512   4.670
12703TIP3   OH238030   8.109   5.348   5.434
12703TIP3    H138031   8.051   5.417   5.471
12703TIP3    H238032   8.154   5.396   5.362
12704TIP3   OH238033   8.911   4.681   5.009
12704TIP3    H138034   8.898   4.643   5.096
12704TIP3    H238035   8.959   4.763   5.031
12705TIP3   OH238036   7.875   4.679   5.422
12705TIP3    H138037   7.935   4.753   5.447
12705TIP3    H238038   7.925   4.641   5.346
12706TIP3   OH238039   7.932   5.547   5.540
12706TIP3    H138040   7.910   5.631   5.495
12706TIP3    H238041   7.853   5.533   5.593
12707TIP3   OH238042   7.326   5.235   4.767
12707TIP3    H138043   7.285   5.261   4.683
12707TIP3    H238044   7.358   5.321   4.801
12708TIP3   OH238045   8.767   5.750   5.003
12708TIP3    H138046   8.679   5.741   5.045
12708TIP3    H238047   8.759   5.838   4.960
12709TIP3   OH238048   9.057   4.641   5.372
12709TIP3    H138049   8.977   4.681   5.335
12709TIP3    H238050   9.126   4.676   5.310
12710TIP3   OH238051   8.353   4.284   5.358
12710TIP3    H138052   8.336   4.190   5.378
12710TIP3    H238053   8.277   4.325   5.406
12711TIP3   OH238054   8.467   5.791   4.677
12711TIP3    H138055   8.519   5.710   4.657
12711TIP3    H238056   8.529   5.858   4.640
12712TIP3   OH238057   8.613   5.576   4.597
12712TIP3    H138058   8.574   5.496   4.560
12712TIP3    H238059   8.653   5.543   4.680
12713TIP3   OH238060   8.986   5.660   5.351
12713TIP3    H138061   8.975   5.581   5.293
12713TIP3    H238062   8.970   5.733   5.288
12714TIP3   OH238063   8.292   5.056   4.610
12714TIP3    H138064   8.209   5.106   4.594
12714TIP3    H238065   8.328   5.049   4.520
12715TIP3   OH238066   8.240   4.839   4.325
12715TIP3    H138067   8.314   4.888   4.365
12715TIP3    H238068   8.289   4.772   4.274
12716TIP3   OH238069   9.181   5.293   5.182
12716TIP3    H138070   9.100   5.348   5.195
12716TIP3    H238071   9.215   5.331   5.099
12717TIP3   OH238072   8.633   5.132   4.579
12717TIP3    H138073   8.580   5.157   4.659
12717TIP3    H238074   8.718   5.109   4.622
12718TIP3   OH238075   8.859   5.163   5.481
12718TIP3    H138076   8.872   5.230   5.552
12718TIP3    H238077   8.807   5.217   5.419
12719TIP3   OH238078   7.867   5.135   4.998
12719TIP3    H138079   7.825   5.076   4.931
12719TIP3    H238080   7.942   5.081   5.029
12720TIP3   OH238081   7.994   5.543   5.147
12720TIP3    H138082   7.978   5.511   5.057
12720TIP3    H238083   8.084   5.507   5.166
12721TIP3   OH238084   8.002   5.103   5.358
12721TIP3    H138085   8.034   5.078   5.269
12721TIP3    H238086   8.048   5.188   5.374
12722TIP3   OH238087   8.529   5.743   5.130
12722TIP3    H138088   8.515   5.825   5.180
12722TIP3    H238089   8.511   5.673   5.196
12723TIP3   OH238090   8.146   5.664   5.674
12723TIP3    H138091   8.086   5.723   5.724
12723TIP3    H238092   8.082   5.608   5.626
12724TIP3   OH238093   8.480   4.995   4.395
12724TIP3    H138094   8.534   5.054   4.451
12724TIP3    H238095   8.511   5.017   4.305
12725TIP3   OH238096   7.899   5.215   5.785
12725TIP3    H138097   7.904   5.302   5.829
12725TIP3    H238098   7.804   5.195   5.796
12726TIP3   OH238099   8.221   5.672   4.668
12726TIP3    H138100   8.304   5.723   4.681
12726TIP3    H238101   8.159   5.742   4.641
12727TIP3   OH238102   7.933   5.834   5.752
12727TIP3    H138103   7.923   5.839   5.655
12727TIP3    H238104   7.842   5.827   5.780
12728TIP3   OH238105   9.018   4.269   4.469
12728TIP3    H138106   8.946   4.263   4.535
12728TIP3    H238107   8.970   4.245   4.389
12729TIP3   OH238108   7.734   4.979   4.802
12729TIP3    H138109   7.663   5.020   4.748
12729TIP3    H238110   7.700   4.889   4.812
12730TIP3   OH238111   8.788   5.603   4.009
12730TIP3    H138112   8.793   5.700   3.997
12730TIP3    H238113   8.880   5.578   3.982
12731TIP3   OH238114   7.519   5.369   5.712
12731TIP3    H138115   7.452   5.346   5.644
12731TIP3    H238116   7.557   5.280   5.733
12732TIP3   OH238117   7.368   5.554   5.345
12732TIP3    H138118   7.463   5.549   5.329
12732TIP3    H238119   7.360   5.635   5.397
12733TIP3   OH238120   9.233   6.009   5.412
12733TIP3    H138121   9.230   5.911   5.420
12733TIP3    H238122   9.144   6.029   5.450
12734TIP3   OH238123   8.337   5.796   5.528
12734TIP3    H138124   8.334   5.886   5.566
12734TIP3    H238125   8.270   5.750   5.584
12735TIP3   OH238126   8.107   5.914   4.492
12735TIP3    H138127   8.058   5.895   4.410
12735TIP3    H238128   8.072   6.002   4.517
12736TIP3   OH238129   7.539   5.766   4.871
12736TIP3    H138130   7.585   5.758   4.958
12736TIP3    H238131   7.488   5.684   4.869
12737TIP3   OH238132   8.295   5.808   4.129
12737TIP3    H138133   8.363   5.750   4.087
12737TIP3    H238134   8.338   5.829   4.215
12738TIP3   OH238135   8.356   5.873   4.392
12738TIP3    H138136   8.269   5.881   4.438
12738TIP3    H238137   8.412   5.843   4.465
12739TIP3   OH238138   9.128   5.123   5.691
12739TIP3    H138139   9.061   5.170   5.640
12739TIP3    H238140   9.124   5.033   5.653
12740TIP3   OH238141   7.712   5.565   5.730
12740TIP3    H138142   7.776   5.519   5.789
12740TIP3    H238143   7.644   5.496   5.716
12741TIP3   OH238144   8.117   4.369   5.488
12741TIP3    H138145   8.031   4.337   5.454
12741TIP3    H238146   8.087   4.445   5.540
12742TIP3   OH238147   8.638   4.537   5.701
12742TIP3    H138148   8.715   4.493   5.743
12742TIP3    H238149   8.565   4.476   5.723
12743TIP3   OH238150   8.823   4.922   5.621
12743TIP3    H138151   8.877   4.954   5.694
12743TIP3    H238152   8.831   4.996   5.557
12744TIP3   OH238153   8.570   5.006   4.107
12744TIP3    H138154   8.504   5.065   4.066
12744TIP3    H238155   8.650   5.064   4.105
12745TIP3   OH238156   8.263   4.416   4.458
12745TIP3    H138157   8.226   4.410   4.548
12745TIP3    H238158   8.225   4.334   4.420
12746TIP3   OH238159   8.048   4.871   5.502
12746TIP3    H138160   8.001   4.899   5.583
12746TIP3    H238161   8.045   4.954   5.450
12747TIP3   OH238162   7.932   4.771   5.016
12747TIP3    H138163   7.840   4.742   5.035
12747TIP3    H238164   7.944   4.730   4.927
12748TIP3   OH238165   8.425   4.857   4.750
12748TIP3    H138166   8.376   4.928   4.703
12748TIP3    H238167   8.481   4.821   4.679
12749TIP3   OH238168   8.601   5.130   5.820
12749TIP3    H138169   8.585   5.049   5.872
12749TIP3    H238170   8.693   5.150   5.843
12750TIP3   OH238171   8.579   4.882   4.984
12750TIP3    H138172   8.519   4.908   4.911
12750TIP3    H238173   8.619   4.803   4.940
12751TIP3   OH238174   7.868   4.910   5.711
12751TIP3    H138175   7.900   4.972   5.778
12751TIP3    H238176   7.856   4.828   5.761
12752TIP3   OH238177   7.921   4.393   4.420
12752TIP3    H138178   7.910   4.389   4.517
12752TIP3    H238179   7.841   4.443   4.394
12753TIP3   OH238180   7.461   4.434   5.293
12753TIP3    H138181   7.539   4.462   5.344
12753TIP3    H238182   7.498   4.399   5.210
12754TIP3   OH238183   7.427   4.412   4.811
12754TIP3    H138184   7.473   4.449   4.732
12754TIP3    H238185   7.365   4.486   4.828
12755TIP3   OH238186   8.551   5.127   5.407
12755TIP3    H138187   8.595   5.051   5.362
12755TIP3    H238188   8.599   5.129   5.491
12756TIP3   OH238189   8.270   4.587   5.074
12756TIP3    H138190   8.186   4.587   5.125
12756TIP3    H238191   8.337   4.576   5.144
12757TIP3   OH238192   7.696   4.648   5.083
12757TIP3    H138193   7.602   4.656   5.054
12757TIP3    H238194   7.717   4.556   5.062
12758TIP3   OH238195   7.959   4.644   4.776
12758TIP3    H138196   8.053   4.655   4.751
12758TIP3    H238197   7.911   4.664   4.692
12759TIP3   OH238198   8.757   4.653   5.277
12759TIP3    H138199   8.739   4.614   5.363
12759TIP3    H238200   8.693   4.605   5.221
12760TIP3   OH238201   7.810   4.681   4.551
12760TIP3    H138202   7.740   4.632   4.504
12760TIP3    H238203   7.861   4.716   4.476
12761TIP3   OH238204   8.898   6.335   5.481
12761TIP3    H138205   8.900   6.375   5.393
12761TIP3    H238206   8.965   6.390   5.527
12762TIP3   OH238207   7.882   5.467   5.922
12762TIP3    H138208   7.965   5.493   5.968
12762TIP3    H238209   7.824   5.455   6.000
12763TIP3   OH238210   8.347   4.930   5.152
12763TIP3    H138211   8.417   4.893   5.095
12763TIP3    H238212   8.378   4.904   5.240
12764TIP3   OH238213   7.864   4.405   5.061
12764TIP3    H138214   7.826   4.329   5.111
12764TIP3    H238215   7.904   4.359   4.986
12765TIP3   OH238216   8.065   5.205   4.563
12765TIP3    H138217   7.991   5.143   4.545
12765TIP3    H238218   8.038   5.241   4.651
12766TIP3   OH238219   8.952   5.443   5.182
12766TIP3    H138220   8.977   5.492   5.101
12766TIP3    H238221   8.867   5.401   5.156
12767TIP3   OH238222   8.509   4.523   4.425
12767TIP3    H138223   8.415   4.498   4.437
12767TIP3    H238224   8.514   4.614   4.461
12768TIP3   OH238225   8.448   5.519   5.564
12768TIP3    H138226   8.510   5.508   5.638
12768TIP3    H238227   8.424   5.613   5.570
12769TIP3   OH238228   8.582   4.771   4.534
12769TIP3    H138229   8.679   4.771   4.548
12769TIP3    H238230   8.569   4.854   4.484
12770TIP3   OH238231   7.753   5.235   5.232
12770TIP3    H138232   7.789   5.205   5.146
12770TIP3    H238233   7.794   5.173   5.293
12771TIP3   OH238234   7.630   5.153   5.850
12771TIP3    H138235   7.645   5.130   5.944
12771TIP3    H238236   7.563   5.086   5.825
12772TIP3   OH238237   8.364   5.261   5.868
12772TIP3    H138238   8.304   5.202   5.820
12772TIP3    H238239   8.451   5.229   5.836
12773TIP3   OH238240   8.611   5.782   5.459
12773TIP3    H138241   8.514   5.788   5.471
12773TIP3    H238242   8.641   5.835   5.536
12774TIP3   OH238243   9.004   4.838   4.352
12774TIP3    H138244   9.026   4.779   4.276
12774TIP3    H238245   8.991   4.923   4.304
12775TIP3   OH238246   9.235   5.732   5.431
12775TIP3    H138247   9.139   5.713   5.427
12775TIP3    H238248   9.262   5.700   5.342
12776TIP3   OH238249   8.712   5.678   4.268
12776TIP3    H138250   8.717   5.606   4.331
12776TIP3    H238251   8.743   5.637   4.184
12777TIP3   OH238252   8.720   5.307   5.101
12777TIP3    H138253   8.625   5.285   5.115
12777TIP3    H238254   8.751   5.226   5.055
12778TIP3   OH238255   7.852   5.537   4.861
12778TIP3    H138256   7.848   5.618   4.806
12778TIP3    H238257   7.758   5.518   4.871
12779TIP3   OH238258   7.414   4.837   4.562
12779TIP3    H138259   7.459   4.921   4.586
12779TIP3    H238260   7.338   4.840   4.624
12780TIP3   OH238261   7.983   5.301   4.802
12780TIP3    H138262   7.948   5.390   4.823
12780TIP3    H238263   7.948   5.248   4.876
12781TIP3   OH238264   8.122   5.875   5.329
12781TIP3    H138265   8.163   5.948   5.278
12781TIP3    H238266   8.200   5.839   5.375
12782TIP3   OH238267   7.773   5.772   4.714
12782TIP3    H138268   7.686   5.784   4.758
12782TIP3    H238269   7.807   5.865   4.716
12783TIP3   OH238270   8.502   5.511   5.294
12783TIP3    H138271   8.490   5.508   5.391
12783TIP3    H238272   8.592   5.475   5.286
12784TIP3   OH238273   8.484   5.395   4.174
12784TIP3    H138274   8.547   5.386   4.250
12784TIP3    H238275   8.418   5.330   4.198
12785TIP3   OH238276   8.752   6.035   5.332
12785TIP3    H138277   8.669   5.984   5.324
12785TIP3    H238278   8.739   6.103   5.263
12786TIP3   OH238279   8.810   5.874   4.005
12786TIP3    H138280   8.842   5.921   3.926
12786TIP3    H238281   8.737   5.933   4.033
12787TIP3   OH238282   7.839   4.655   5.854
12787TIP3    H138283   7.742   4.658   5.863
12787TIP3    H238284   7.864   4.597   5.927
12788TIP3   OH238285   8.636   5.328   4.387
12788TIP3    H138286   8.632   5.267   4.463
12788TIP3    H238287   8.734   5.328   4.372
12789TIP3   OH238288   7.551   5.751   5.495
12789TIP3    H138289   7.603   5.676   5.528
12789TIP3    H238290   7.605   5.826   5.523
12790TIP3   OH238291   7.900   5.359   4.178
12790TIP3    H138292   7.871   5.270   4.148
12790TIP3    H238293   7.851   5.366   4.263
12791TIP3   OH238294   7.802   5.390   4.429
12791TIP3    H138295   7.856   5.363   4.504
12791TIP3    H238296   7.796   5.488   4.443
12792TIP3   OH238297   7.524   5.081   4.648
12792TIP3    H138298   7.457   5.126   4.705
12792TIP3    H238299   7.536   5.150   4.580
12793TIP3   OH238300   8.557   4.471   4.711
12793TIP3    H138301   8.549   4.487   4.615
12793TIP3    H238302   8.602   4.552   4.743
12794TIP3   OH238303   8.246   4.653   4.807
12794TIP3    H138304   8.310   4.726   4.790
12794TIP3    H238305   8.251   4.644   4.904
12795TIP3   OH238306   8.386   4.373   4.907
12795TIP3    H138307   8.368   4.455   4.957
12795TIP3    H238308   8.451   4.406   4.840
12796TIP3   OH238309   7.786   5.656   4.461
12796TIP3    H138310   7.766   5.729   4.400
12796TIP3    H238311   7.784   5.702   4.548
12797TIP3   OH238312   7.902   4.378   4.696
12797TIP3    H138313   7.900   4.466   4.736
12797TIP3    H238314   7.998   4.358   4.703
12798TIP3   OH238315   9.107   4.876   5.581
12798TIP3    H138316   9.023   4.832   5.562
12798TIP3    H238317   9.170   4.823   5.530
12799TIP3   OH238318   8.801   5.064   4.979
12799TIP3    H138319   8.725   5.003   4.989
12799TIP3    H238320   8.870   5.017   5.032
12800TIP3   OH238321   7.523   5.286   4.452
12800TIP3    H138322   7.583   5.362   4.454
12800TIP3    H238323   7.570   5.229   4.387
12801TIP3   OH238324   7.464   4.567   4.587
12801TIP3    H138325   7.461   4.664   4.583
12801TIP3    H238326   7.387   4.542   4.535
12802TIP3   OH238327   8.778   6.020   4.927
12802TIP3    H138328   8.736   6.067   4.852
12802TIP3    H238329   8.873   6.036   4.906
12803TIP3   OH238330   7.854   4.287   5.455
12803TIP3    H138331   7.823   4.251   5.369
12803TIP3    H238332   7.844   4.209   5.514
12804TIP3   OH238333   7.386   5.505   4.834
12804TIP3    H138334   7.322   5.535   4.900
12804TIP3    H238335   7.352   5.550   4.753
12805TIP3   OH238336   8.030   6.001   5.958
12805TIP3    H138337   8.125   5.984   5.968
12805TIP3    H238338   8.011   5.948   5.878
12806TIP3   OH238339   8.665   5.918   5.691
12806TIP3    H138340   8.659   5.845   5.758
12806TIP3    H238341   8.748   5.963   5.719
12807TIP3   OH238342   8.452   5.633   3.991
12807TIP3    H138343   8.512   5.583   4.047
12807TIP3    H238344   8.502   5.636   3.907
12808TIP3   OH238345   7.678   5.455   6.115
12808TIP3    H138346   7.698   5.359   6.123
12808TIP3    H238347   7.595   5.453   6.063
12809TIP3   OH238348   7.660   5.102   4.305
12809TIP3    H138349   7.714   5.070   4.380
12809TIP3    H238350   7.727   5.105   4.234
12810TIP3   OH238351   8.278   5.533   5.887
12810TIP3    H138352   8.255   5.559   5.796
12810TIP3    H238353   8.321   5.446   5.873
12811TIP3   OH238354   8.766   5.548   5.480
12811TIP3    H138355   8.852   5.586   5.451
12811TIP3    H238356   8.709   5.628   5.472
12812TIP3   OH238357   7.805   5.199   6.092
12812TIP3    H138358   7.878   5.142   6.065
12812TIP3    H238359   7.834   5.225   6.182
12813TIP3   OH238360   7.863   5.014   4.523
12813TIP3    H138361   7.836   4.973   4.607
12813TIP3    H238362   7.900   4.937   4.474
12814TIP3   OH238363   8.136   5.075   5.749
12814TIP3    H138364   8.059   5.135   5.748
12814TIP3    H238365   8.187   5.106   5.671
12815TIP3   OH238366   7.964   4.809   4.364
12815TIP3    H138367   7.940   4.813   4.269
12815TIP3    H238368   8.062   4.809   4.358
12816TIP3   OH238369   8.659   5.481   5.875
12816TIP3    H138370   8.751   5.517   5.881
12816TIP3    H238371   8.659   5.417   5.948
12817TIP3   OH238372   8.793   5.129   4.029
12817TIP3    H138373   8.790   5.110   3.934
12817TIP3    H238374   8.767   5.224   4.025
12818TIP3   OH238375   8.245   4.868   5.881
12818TIP3    H138376   8.239   4.794   5.818
12818TIP3    H238377   8.208   4.941   5.826
12819TIP3   OH238378   8.256   4.674   5.671
12819TIP3    H138379   8.244   4.722   5.588
12819TIP3    H238380   8.169   4.628   5.676
12820TIP3   OH238381   8.290   5.176   5.554
12820TIP3    H138382   8.375   5.184   5.508
12820TIP3    H238383   8.236   5.245   5.510
12821TIP3   OH238384   8.868   5.152   5.935
12821TIP3    H138385   8.938   5.098   5.976
12821TIP3    H238386   8.921   5.218   5.888
12822TIP3   OH238387   8.904   5.363   5.648
12822TIP3    H138388   8.841   5.434   5.621
12822TIP3    H238389   8.989   5.411   5.633
12823TIP3   OH238390   8.124   4.977   6.113
12823TIP3    H138391   8.061   4.903   6.127
12823TIP3    H238392   8.162   4.954   6.026
12824TIP3   OH238393   8.398   4.408   5.718
12824TIP3    H138394   8.335   4.481   5.713
12824TIP3    H238395   8.338   4.332   5.736
12825TIP3   OH238396   8.509   4.899   5.943
12825TIP3    H138397   8.515   4.881   6.039
12825TIP3    H238398   8.411   4.900   5.933
12826TIP3   OH238399   7.978   4.748   6.168
12826TIP3    H138400   7.978   4.656   6.136
12826TIP3    H238401   8.016   4.737   6.257
12827TIP3   OH238402   7.768   5.858   4.273
12827TIP3    H138403   7.865   5.860   4.268
12827TIP3    H238404   7.744   5.914   4.197
12828TIP3   OH238405   7.254   5.249   4.487
12828TIP3    H138406   7.349   5.268   4.473
12828TIP3    H238407   7.247   5.160   4.445
12829TIP3   OH238408   7.171   5.857   4.903
12829TIP3    H138409   7.104   5.797   4.863
12829TIP3    H238410   7.214   5.796   4.966
12830TIP3   OH238411   7.303   5.701   5.089
12830TIP3    H138412   7.290   5.633   5.157
12830TIP3    H238413   7.360   5.764   5.136
12831TIP3   OH238414   9.039   6.095   4.889
12831TIP3    H138415   9.060   6.127   4.980
12831TIP3    H238416   9.095   6.151   4.834
12832TIP3   OH238417   9.060   6.126   5.167
12832TIP3    H138418   9.021   6.036   5.170
12832TIP3    H238419   9.131   6.116   5.233
12833TIP3   OH238420   9.105   5.811   5.747
12833TIP3    H138421   9.039   5.761   5.801
12833TIP3    H238422   9.111   5.895   5.793
12834TIP3   OH238423   8.906   5.316   4.360
12834TIP3    H138424   8.966   5.387   4.324
12834TIP3    H238425   8.959   5.287   4.438
12835TIP3   OH238426   9.037   5.206   4.579
12835TIP3    H138427   8.969   5.155   4.628
12835TIP3    H238428   9.069   5.267   4.647
12836TIP3   OH238429   9.104   5.571   4.989
12836TIP3    H138430   9.153   5.513   4.928
12836TIP3    H238431   9.099   5.654   4.937
12837TIP3   OH238432   8.934   5.880   5.190
12837TIP3    H138433   8.863   5.922   5.243
12837TIP3    H238434   8.882   5.835   5.119
12838TIP3   OH238435   8.969   5.078   4.233
12838TIP3    H138436   8.925   5.094   4.147
12838TIP3    H238437   8.953   5.164   4.277
12839TIP3   OH238438   8.859   5.048   4.710
12839TIP3    H138439   8.870   4.952   4.696
12839TIP3    H238440   8.845   5.054   4.808
12840TIP3   OH238441   7.488   5.119   5.463
12840TIP3    H138442   7.485   5.083   5.372
12840TIP3    H238443   7.585   5.119   5.479
12841TIP3   OH238444   9.141   5.464   5.555
12841TIP3    H138445   9.218   5.403   5.567
12841TIP3    H238446   9.183   5.539   5.511
12842TIP3   OH238447   9.334   5.287   5.614
12842TIP3    H138448   9.280   5.220   5.660
12842TIP3    H238449   9.422   5.249   5.622
12843TIP3   OH238450   8.785   4.505   4.177
12843TIP3    H138451   8.849   4.437   4.151
12843TIP3    H238452   8.701   4.456   4.171
12844TIP3   OH238453   8.859   4.773   4.598
12844TIP3    H138454   8.897   4.684   4.620
12844TIP3    H238455   8.912   4.793   4.518
12845TIP3   OH238456   8.997   4.929   5.118
12845TIP3    H138457   9.087   4.949   5.082
12845TIP3    H238458   9.012   4.964   5.208
12846TIP3   OH238459   9.089   5.079   5.337
12846TIP3    H138460   9.013   5.117   5.386
12846TIP3    H238461   9.121   5.156   5.286
12847TIP3   OH238462   7.713   4.808   6.145
12847TIP3    H138463   7.811   4.797   6.145
12847TIP3    H238464   7.687   4.719   6.175
12848TIP3   OH238465   8.943   4.524   4.663
12848TIP3    H138466   9.026   4.498   4.703
12848TIP3    H238467   8.896   4.438   4.654
12849TIP3   OH238468   7.669   4.494   5.467
12849TIP3    H138469   7.729   4.417   5.474
12849TIP3    H238470   7.734   4.566   5.457
12850TIP3   OH238471   7.469   4.770   5.536
12850TIP3    H138472   7.518   4.762   5.452
12850TIP3    H238473   7.505   4.851   5.572
12851TIP3   OH238474   9.385   4.855   5.663
12851TIP3    H138475   9.300   4.863   5.710
12851TIP3    H238476   9.425   4.781   5.710
12852TIP3   OH238477   7.457   4.279   5.044
12852TIP3    H138478   7.363   4.266   5.069
12852TIP3    H238479   7.449   4.334   4.963
12853TIP3   OH238480   8.611   5.977   4.545
12853TIP3    H138481   8.664   5.967   4.464
12853TIP3    H238482   8.662   6.043   4.595
12854TIP3   OH238483   7.677   4.357   5.856
12854TIP3    H138484   7.623   4.346   5.936
12854TIP3    H238485   7.610   4.391   5.793
12855TIP3   OH238486   7.640   5.738   5.951
12855TIP3    H138487   7.680   5.682   5.882
12855TIP3    H238488   7.718   5.771   5.999
12856TIP3   OH238489   7.896   5.821   5.478
12856TIP3    H138490   7.852   5.898   5.437
12856TIP3    H238491   7.982   5.829   5.432
12857TIP3   OH238492   8.334   6.058   5.621
12857TIP3    H138493   8.381   6.057   5.707
12857TIP3    H238494   8.399   6.107   5.566
12858TIP3   OH238495   8.510   6.205   5.472
12858TIP3    H138496   8.582   6.158   5.428
12858TIP3    H238497   8.561   6.257   5.539
12859TIP3   OH238498   9.250   4.583   5.586
12859TIP3    H138499   9.178   4.591   5.522
12859TIP3    H238500   9.279   4.491   5.571
12860TIP3   OH238501   7.571   6.074   5.513
12860TIP3    H138502   7.478   6.093   5.489
12860TIP3    H238503   7.588   6.145   5.578
12861TIP3   OH238504   7.802   6.047   5.361
12861TIP3    H138505   7.715   6.065   5.404
12861TIP3    H238506   7.786   6.083   5.271
12862TIP3   OH238507   8.229   6.074   5.161
12862TIP3    H138508   8.161   6.094   5.094
12862TIP3    H238509   8.243   6.162   5.201
12863TIP3   OH238510   8.499   6.011   5.208
12863TIP3    H138511   8.406   6.033   5.191
12863TIP3    H238512   8.545   6.086   5.167
12864TIP3   OH238513   8.700   6.202   5.121
12864TIP3    H138514   8.687   6.287   5.074
12864TIP3    H238515   8.729   6.143   5.048
12865TIP3   OH238516   7.475   5.859   5.243
12865TIP3    H138517   7.500   5.839   5.335
12865TIP3    H238518   7.552   5.820   5.196
12866TIP3   OH238519   7.677   5.736   5.108
12866TIP3    H138520   7.695   5.653   5.157
12866TIP3    H238521   7.767   5.774   5.102
12867TIP3   OH238522   7.943   5.826   5.113
12867TIP3    H138523   7.974   5.734   5.103
12867TIP3    H238524   7.994   5.851   5.192
12868TIP3   OH238525   8.512   4.485   5.207
12868TIP3    H138526   8.471   4.410   5.255
12868TIP3    H238527   8.582   4.440   5.156
12869TIP3   OH238528   9.042   4.346   5.079
12869TIP3    H138529   9.110   4.415   5.097
12869TIP3    H238530   8.958   4.396   5.078
12870TIP3   OH238531   7.764   4.192   5.209
12870TIP3    H138532   7.672   4.160   5.213
12870TIP3    H238533   7.812   4.107   5.205
12871TIP3   OH238534   7.557   4.067   4.862
12871TIP3    H138535   7.585   4.121   4.787
12871TIP3    H238536   7.530   4.134   4.928
12872TIP3   OH238537   8.213   4.226   5.090
12872TIP3    H138538   8.271   4.272   5.027
12872TIP3    H238539   8.240   4.263   5.174
12873TIP3   OH238540   8.746   4.384   5.079
12873TIP3    H138541   8.748   4.342   4.991
12873TIP3    H238542   8.739   4.305   5.138
12874TIP3   OH238543   8.796   4.289   4.646
12874TIP3    H138544   8.706   4.325   4.644
12874TIP3    H238545   8.780   4.204   4.691
12875TIP3   OH238546   7.268   5.642   4.633
12875TIP3    H138547   7.181   5.610   4.602
12875TIP3    H238548   7.261   5.735   4.605
12876TIP3   OH238549   7.673   4.223   4.619
12876TIP3    H138550   7.719   4.157   4.562
12876TIP3    H238551   7.748   4.274   4.654
12877TIP3   OH238552   8.177   4.402   4.719
12877TIP3    H138553   8.235   4.350   4.777
12877TIP3    H238554   8.204   4.493   4.746
12878TIP3   OH238555   8.037   5.832   4.216
12878TIP3    H138556   8.133   5.832   4.197
12878TIP3    H238557   8.001   5.828   4.127
12879TIP3   OH238558   8.757   5.943   4.315
12879TIP3    H138559   8.746   5.846   4.301
12879TIP3    H238560   8.714   5.976   4.233
12880TIP3   OH238561   7.975   4.477   6.104
12880TIP3    H138562   7.938   4.404   6.158
12880TIP3    H238563   8.068   4.474   6.132
12881TIP3   OH238564   8.228   4.485   6.226
12881TIP3    H138565   8.319   4.478   6.195
12881TIP3    H238566   8.219   4.406   6.283
12882TIP3   OH238567   7.338   5.659   4.274
12882TIP3    H138568   7.343   5.685   4.367
12882TIP3    H238569   7.426   5.616   4.260
12883TIP3   OH238570   8.980   6.077   5.489
12883TIP3    H138571   8.902   6.041   5.444
12883TIP3    H238572   8.956   6.172   5.489
12884TIP3   OH238573   9.170   4.963   4.529
12884TIP3    H138574   9.129   5.051   4.540
12884TIP3    H238575   9.109   4.921   4.464
12885TIP3   OH238576   9.093   5.495   4.273
12885TIP3    H138577   9.130   5.537   4.193
12885TIP3    H238578   9.162   5.519   4.338
12886TIP3   OH238579   9.295   5.637   5.186
12886TIP3    H138580   9.228   5.604   5.124
12886TIP3    H238581   9.335   5.555   5.222
12887TIP3   OH238582   9.154   5.815   4.838
12887TIP3    H138583   9.250   5.831   4.841
12887TIP3    H238584   9.120   5.896   4.879
12888TIP3   OH238585   9.388   5.420   5.324
12888TIP3    H138586   9.449   5.368   5.379
12888TIP3    H238587   9.314   5.358   5.313
12889TIP3   OH238588   9.352   5.992   4.967
12889TIP3    H138589   9.386   5.922   5.025
12889TIP3    H238590   9.372   6.073   5.016
12890TIP3   OH238591   9.214   5.784   4.349
12890TIP3    H138592   9.145   5.807   4.413
12890TIP3    H238593   9.176   5.822   4.267
12891TIP3   OH238594   9.337   6.267   5.352
12891TIP3    H138595   9.346   6.321   5.431
12891TIP3    H238596   9.301   6.183   5.386
12892TIP3   OH238597   9.463   5.721   5.589
12892TIP3    H138598   9.440   5.636   5.630
12892TIP3    H238599   9.377   5.741   5.546
12893TIP3   OH238600   9.038   5.522   3.928
12893TIP3    H138601   9.122   5.542   3.975
12893TIP3    H238602   9.039   5.425   3.921
12894TIP3   OH238603   8.962   6.111   4.387
12894TIP3    H138604   8.896   6.048   4.351
12894TIP3    H238605   9.007   6.055   4.454
12895TIP3   OH238606   9.091   5.967   4.581
12895TIP3    H138607   9.080   5.899   4.650
12895TIP3    H238608   9.151   6.030   4.626
12896TIP3   OH238609   9.305   5.363   4.938
12896TIP3    H138610   9.329   5.329   4.849
12896TIP3    H238611   9.391   5.400   4.964
12897TIP3   OH238612   9.236   5.037   5.047
12897TIP3    H138613   9.291   5.033   4.966
12897TIP3    H238614   9.236   5.131   5.068
12898TIP3   OH238615   9.511   6.012   5.415
12898TIP3    H138616   9.413   6.018   5.415
12898TIP3    H238617   9.527   5.969   5.500
12899TIP3   OH238618   9.360   6.311   4.981
12899TIP3    H138619   9.274   6.358   4.972
12899TIP3    H238620   9.381   6.325   5.073
12900TIP3   OH238621   9.286   6.118   4.724
12900TIP3    H138622   9.313   6.095   4.815
12900TIP3    H238623   9.350   6.065   4.673
12901TIP3   OH238624   9.077   5.889   4.129
12901TIP3    H138625   8.992   5.850   4.100
12901TIP3    H238626   9.059   5.983   4.114
12902TIP3   OH238627   9.041   5.865   3.837
12902TIP3    H138628   9.051   5.924   3.913
12902TIP3    H238629   9.132   5.868   3.800
12903TIP3   OH238630   0.905   5.980   6.466
12903TIP3    H138631   0.876   6.073   6.449
12903TIP3    H238632   0.832   5.933   6.422
12904TIP3   OH238633   0.918   5.985   6.856
12904TIP3    H138634   0.957   5.966   6.943
12904TIP3    H238635   0.884   5.897   6.832
12905TIP3   OH238636   1.154   6.296   6.534
12905TIP3    H138637   1.142   6.226   6.600
12905TIP3    H238638   1.184   6.371   6.589
12906TIP3   OH238639   0.841   6.744   6.543
12906TIP3    H138640   0.851   6.676   6.473
12906TIP3    H238641   0.914   6.719   6.601
12907TIP3   OH238642   0.719   6.176   6.885
12907TIP3    H138643   0.792   6.114   6.863
12907TIP3    H238644   0.772   6.252   6.916
12908TIP3   OH238645   1.723   5.535   6.889
12908TIP3    H138646   1.755   5.618   6.929
12908TIP3    H238647   1.756   5.544   6.798
12909TIP3   OH238648   1.126   5.714   6.927
12909TIP3    H138649   1.167   5.628   6.947
12909TIP3    H238650   1.092   5.697   6.838
12910TIP3   OH238651   1.156   5.474   6.514
12910TIP3    H138652   1.228   5.460   6.581
12910TIP3    H238653   1.210   5.503   6.439
12911TIP3   OH238654   1.796   5.746   7.059
12911TIP3    H138655   1.711   5.790   7.040
12911TIP3    H238656   1.793   5.747   7.156
12912TIP3   OH238657   0.784   6.195   6.351
12912TIP3    H138658   0.768   6.189   6.255
12912TIP3    H238659   0.746   6.283   6.372
12913TIP3   OH238660   1.359   5.483   6.693
12913TIP3    H138661   1.376   5.431   6.771
12913TIP3    H238662   1.413   5.562   6.710
12914TIP3   OH238663   1.212   6.540   6.700
12914TIP3    H138664   1.120   6.531   6.733
12914TIP3    H238665   1.208   6.627   6.656
12915TIP3   OH238666   1.536   5.469   7.085
12915TIP3    H138667   1.447   5.466   7.048
12915TIP3    H238668   1.591   5.482   7.004
12916TIP3   OH238669   0.814   5.078   7.042
12916TIP3    H138670   0.803   4.982   7.062
12916TIP3    H238671   0.752   5.117   7.106
12917TIP3   OH238672   0.927   6.567   6.356
12917TIP3    H138673   0.977   6.485   6.333
12917TIP3    H238674   0.989   6.635   6.319
12918TIP3   OH238675   1.066   6.352   6.277
12918TIP3    H138676   1.069   6.271   6.222
12918TIP3    H238677   1.101   6.320   6.363
12919TIP3   OH238678   1.450   6.449   7.040
12919TIP3    H138679   1.434   6.371   6.982
12919TIP3    H238680   1.431   6.523   6.978
12920TIP3   OH238681   0.730   5.844   6.294
12920TIP3    H138682   0.644   5.868   6.255
12920TIP3    H238683   0.786   5.838   6.214
12921TIP3   OH238684   0.732   5.629   6.016
12921TIP3    H138685   0.802   5.685   6.055
12921TIP3    H238686   0.787   5.565   5.966
12922TIP3   OH238687   1.643   6.094   6.888
12922TIP3    H138688   1.559   6.143   6.890
12922TIP3    H238689   1.671   6.111   6.795
12923TIP3   OH238690   1.092   5.932   6.272
12923TIP3    H138691   1.038   5.949   6.352
12923TIP3    H238692   1.176   5.902   6.313
12924TIP3   OH238693   1.321   5.965   7.188
12924TIP3    H138694   1.317   6.049   7.238
12924TIP3    H238695   1.239   5.970   7.136
12925TIP3   OH238696   0.962   6.527   6.812
12925TIP3    H138697   0.968   6.611   6.862
12925TIP3    H238698   0.965   6.459   6.882
12926TIP3   OH238699   0.930   5.795   6.102
12926TIP3    H138700   0.992   5.853   6.152
12926TIP3    H238701   0.958   5.816   6.009
12927TIP3   OH238702   0.685   6.448   6.388
12927TIP3    H138703   0.777   6.480   6.392
12927TIP3    H238704   0.642   6.526   6.349
12928TIP3   OH238705   1.445   5.024   6.147
12928TIP3    H138706   1.363   5.048   6.193
12928TIP3    H238707   1.461   5.104   6.092
12929TIP3   OH238708   1.245   6.393   5.696
12929TIP3    H138709   1.254   6.489   5.677
12929TIP3    H238710   1.336   6.362   5.679
12930TIP3   OH238711   1.689   6.799   7.095
12930TIP3    H138712   1.684   6.703   7.107
12930TIP3    H238713   1.605   6.826   7.139
12931TIP3   OH238714   0.765   6.617   5.805
12931TIP3    H138715   0.818   6.540   5.776
12931TIP3    H238716   0.783   6.620   5.900
12932TIP3   OH238717   0.829   6.654   6.075
12932TIP3    H138718   0.758   6.657   6.142
12932TIP3    H238719   0.901   6.613   6.125
12933TIP3   OH238720   1.587   5.934   7.357
12933TIP3    H138721   1.501   5.941   7.312
12933TIP3    H238722   1.606   5.839   7.345
12934TIP3   OH238723   1.111   5.273   7.369
12934TIP3    H138724   1.182   5.244   7.430
12934TIP3    H238725   1.030   5.251   7.419
12935TIP3   OH238726   1.340   5.702   7.287
12935TIP3    H138727   1.290   5.698   7.372
12935TIP3    H238728   1.318   5.790   7.253
12936TIP3   OH238729   1.009   5.835   5.849
12936TIP3    H138730   0.970   5.808   5.764
12936TIP3    H238731   1.097   5.867   5.819
12937TIP3   OH238732   0.718   5.200   6.141
12937TIP3    H138733   0.686   5.193   6.233
12937TIP3    H238734   0.683   5.116   6.105
12938TIP3   OH238735   0.874   5.645   6.433
12938TIP3    H138736   0.825   5.715   6.385
12938TIP3    H238737   0.933   5.610   6.362
12939TIP3   OH238738   1.065   5.931   7.526
12939TIP3    H138739   1.033   5.859   7.584
12939TIP3    H238740   1.160   5.929   7.547
12940TIP3   OH238741   1.029   5.668   6.671
12940TIP3    H138742   0.970   5.694   6.598
12940TIP3    H238743   1.071   5.591   6.627
12941TIP3   OH238744   0.386   5.158   6.103
12941TIP3    H138745   0.369   5.144   6.198
12941TIP3    H238746   0.302   5.195   6.074
12942TIP3   OH238747   1.037   5.911   7.090
12942TIP3    H138748   1.075   5.841   7.031
12942TIP3    H238749   1.018   5.856   7.169
12943TIP3   OH238750   0.737   5.380   6.764
12943TIP3    H138751   0.650   5.378   6.810
12943TIP3    H238752   0.795   5.400   6.839
12944TIP3   OH238753   0.430   5.410   6.435
12944TIP3    H138754   0.526   5.425   6.446
12944TIP3    H238755   0.409   5.474   6.365
12945TIP3   OH238756   1.193   5.447   6.972
12945TIP3    H138757   1.164   5.463   7.064
12945TIP3    H238758   1.129   5.380   6.942
12946TIP3   OH238759   1.382   7.141   7.191
12946TIP3    H138760   1.378   7.168   7.098
12946TIP3    H238761   1.462   7.189   7.222
12947TIP3   OH238762   0.819   5.725   6.883
12947TIP3    H138763   0.871   5.682   6.814
12947TIP3    H238764   0.827   5.661   6.956
12948TIP3   OH238765   0.804   5.589   7.146
12948TIP3    H138766   0.714   5.624   7.127
12948TIP3    H238767   0.848   5.662   7.194
12949TIP3   OH238768   1.408   6.233   6.873
12949TIP3    H138769   1.433   6.284   6.793
12949TIP3    H238770   1.324   6.190   6.846
12950TIP3   OH238771   0.969   5.299   6.130
12950TIP3    H138772   0.873   5.279   6.127
12950TIP3    H238773   0.972   5.396   6.141
12951TIP3   OH238774   0.965   6.318   7.252
12951TIP3    H138775   0.978   6.264   7.331
12951TIP3    H238776   0.871   6.342   7.261
12952TIP3   OH238777   1.036   5.561   6.222
12952TIP3    H138778   1.134   5.559   6.233
12952TIP3    H238779   1.023   5.638   6.164
12953TIP3   OH238780   0.652   6.151   6.100
12953TIP3    H138781   0.603   6.234   6.103
12953TIP3    H238782   0.588   6.088   6.138
12954TIP3   OH238783   0.879   6.128   7.468
12954TIP3    H138784   0.848   6.086   7.385
12954TIP3    H238785   0.957   6.072   7.490
12955TIP3   OH238786   1.078   6.599   7.123
12955TIP3    H138787   0.983   6.585   7.134
12955TIP3    H238788   1.102   6.633   7.212
12956TIP3   OH238789   1.469   5.651   6.055
12956TIP3    H138790   1.409   5.607   5.991
12956TIP3    H238791   1.472   5.739   6.011
12957TIP3   OH238792   1.698   6.511   7.130
12957TIP3    H138793   1.600   6.503   7.121
12957TIP3    H238794   1.725   6.476   7.042
12958TIP3   OH238795   1.184   6.463   5.961
12958TIP3    H138796   1.152   6.390   6.016
12958TIP3    H238797   1.193   6.422   5.873
12959TIP3   OH238798   1.172   6.096   6.790
12959TIP3    H138799   1.079   6.068   6.800
12959TIP3    H238800   1.210   6.016   6.747
12960TIP3   OH238801   0.973   6.302   6.975
12960TIP3    H138802   0.980   6.302   7.073
12960TIP3    H238803   1.047   6.245   6.950
12961TIP3   OH238804   0.946   6.198   5.858
12961TIP3    H138805   0.984   6.171   5.944
12961TIP3    H238806   0.857   6.157   5.860
12962TIP3   OH238807   1.219   6.828   7.025
12962TIP3    H138808   1.145   6.763   7.024
12962TIP3    H238809   1.193   6.890   6.954
12963TIP3   OH238810   1.277   6.670   5.678
12963TIP3    H138811   1.315   6.747   5.633
12963TIP3    H238812   1.194   6.711   5.711
12964TIP3   OH238813   1.100   6.138   6.089
12964TIP3    H138814   1.089   6.063   6.152
12964TIP3    H238815   1.195   6.128   6.068
12965TIP3   OH238816   1.133   5.511   7.233
12965TIP3    H138817   1.218   5.549   7.263
12965TIP3    H238818   1.127   5.429   7.287
12966TIP3   OH238819   1.004   5.259   6.405
12966TIP3    H138820   0.993   5.272   6.308
12966TIP3    H238821   1.051   5.341   6.431
12967TIP3   OH238822   0.699   5.440   6.497
12967TIP3    H138823   0.761   5.512   6.473
12967TIP3    H238824   0.707   5.440   6.594
12968TIP3   OH238825   0.974   5.761   7.305
12968TIP3    H138826   0.994   5.808   7.388
12968TIP3    H238827   1.026   5.680   7.315
12969TIP3   OH238828   0.851   5.170   6.615
12969TIP3    H138829   0.813   5.255   6.647
12969TIP3    H238830   0.912   5.202   6.544
12970TIP3   OH238831   0.388   5.133   6.388
12970TIP3    H138832   0.387   5.211   6.447
12970TIP3    H238833   0.485   5.121   6.382
12971TIP3   OH238834   1.608   5.666   7.277
12971TIP3    H138835   1.510   5.670   7.289
12971TIP3    H238836   1.610   5.597   7.208
12972TIP3   OH238837   1.258   5.853   6.673
12972TIP3    H138838   1.184   5.791   6.684
12972TIP3    H238839   1.331   5.807   6.719
12973TIP3   OH238840   1.228   6.807   6.617
12973TIP3    H138841   1.188   6.859   6.544
12973TIP3    H238842   1.323   6.826   6.600
12974TIP3   OH238843   9.029   4.667   4.104
12974TIP3    H138844   8.957   4.603   4.090
12974TIP3    H238845   9.092   4.638   4.037
12975TIP3   OH238846   1.128   6.701   7.376
12975TIP3    H138847   1.119   6.638   7.452
12975TIP3    H238848   1.202   6.757   7.407
12976TIP3   OH238849   0.899   6.408   5.685
12976TIP3    H138850   0.936   6.341   5.747
12976TIP3    H238851   0.957   6.401   5.608
12977TIP3   OH238852   0.678   6.100   5.823
12977TIP3    H138853   0.658   6.110   5.919
12977TIP3    H238854   0.671   6.003   5.812
12978TIP3   OH238855   1.243   6.325   7.181
12978TIP3    H138856   1.302   6.388   7.135
12978TIP3    H238857   1.158   6.374   7.183
12979TIP3   OH238858   0.463   5.610   6.048
12979TIP3    H138859   0.442   5.550   5.974
12979TIP3    H238860   0.560   5.614   6.044
12980TIP3   OH238861   1.132   6.272   7.589
12980TIP3    H138862   1.197   6.231   7.530
12980TIP3    H238863   1.121   6.203   7.657
12981TIP3   OH238864   1.237   5.921   5.723
12981TIP3    H138865   1.220   5.875   5.639
12981TIP3    H238866   1.203   6.010   5.700
12982TIP3   OH238867   0.744   5.629   7.555
12982TIP3    H138868   0.741   5.556   7.491
12982TIP3    H238869   0.655   5.667   7.547
12983TIP3   OH238870   0.707   5.427   7.352
12983TIP3    H138871   0.763   5.476   7.288
12983TIP3    H238872   0.637   5.396   7.292
12984TIP3   OH238873   0.777   6.034   7.232
12984TIP3    H138874   0.852   5.987   7.192
12984TIP3    H238875   0.703   5.999   7.180
12985TIP3   OH238876   1.331   5.930   7.625
12985TIP3    H138877   1.374   5.844   7.641
12985TIP3    H238878   1.403   5.981   7.586
12986TIP3   OH238879   1.364   6.193   7.377
12986TIP3    H138880   1.310   6.244   7.313
12986TIP3    H238881   1.453   6.209   7.337
12987TIP3   OH238882   0.852   5.202   7.444
12987TIP3    H138883   0.798   5.279   7.419
12987TIP3    H238884   0.785   5.130   7.436
12988TIP3   OH238885   0.981   5.714   7.666
12988TIP3    H138886   0.967   5.683   7.758
12988TIP3    H238887   0.893   5.690   7.628
12989TIP3   OH238888   1.209   5.656   7.517
12989TIP3    H138889   1.137   5.659   7.583
12989TIP3    H238890   1.284   5.623   7.571
12990TIP3   OH238891   1.438   5.596   7.665
12990TIP3    H138892   1.452   5.500   7.677
12990TIP3    H238893   1.436   5.629   7.757
12991TIP3   OH238894   0.934   5.207   7.705
12991TIP3    H138895   1.000   5.134   7.704
12991TIP3    H238896   0.900   5.201   7.613
12992TIP3   OH238897   1.024   5.414   7.858
12992TIP3    H138898   0.998   5.341   7.798
12992TIP3    H238899   0.945   5.472   7.852
12993TIP3   OH238900   1.483   6.898   6.581
12993TIP3    H138901   1.510   6.928   6.669
12993TIP3    H238902   1.552   6.936   6.524
12994TIP3   OH238903   1.514   6.916   6.862
12994TIP3    H138904   1.470   6.828   6.858
12994TIP3    H238905   1.590   6.894   6.918
12995TIP3   OH238906   1.565   6.594   7.433
12995TIP3    H138907   1.492   6.605   7.498
12995TIP3    H238908   1.606   6.683   7.436
12996TIP3   OH238909   1.376   6.111   6.056
12996TIP3    H138910   1.447   6.171   6.027
12996TIP3    H238911   1.418   6.069   6.134
12997TIP3   OH238912   1.502   5.979   6.260
12997TIP3    H138913   1.437   5.934   6.318
12997TIP3    H238914   1.570   6.009   6.323
12998TIP3   OH238915   1.562   6.370   6.688
12998TIP3    H138916   1.614   6.301   6.642
12998TIP3    H238917   1.561   6.442   6.622
12999TIP3   OH238918   1.389   6.665   6.880
12999TIP3    H138919   1.320   6.711   6.932
12999TIP3    H238920   1.335   6.620   6.811
13000TIP3   OH238921   1.441   5.886   5.904
13000TIP3    H138922   1.369   5.883   5.837
13000TIP3    H238923   1.410   5.961   5.958
13001TIP3   OH238924   1.300   5.563   5.862
13001TIP3    H138925   1.274   5.585   5.772
13001TIP3    H238926   1.282   5.466   5.863
13002TIP3   OH238927   1.315   5.833   6.402
13002TIP3    H138928   1.325   5.737   6.389
13002TIP3    H238929   1.302   5.841   6.499
13003TIP3   OH238930   1.607   6.255   7.262
13003TIP3    H138931   1.682   6.194   7.245
13003TIP3    H238932   1.619   6.322   7.193
13004TIP3   OH238933   1.808   6.067   7.272
13004TIP3    H138934   1.729   6.021   7.308
13004TIP3    H238935   1.875   5.996   7.289
13005TIP3   OH238936   1.251   5.297   5.853
13005TIP3    H138937   1.329   5.258   5.896
13005TIP3    H238938   1.183   5.228   5.861
13006TIP3   OH238939   1.316   5.553   6.293
13006TIP3    H138940   1.356   5.464   6.308
13006TIP3    H238941   1.372   5.584   6.220
13007TIP3   OH238942   1.472   5.723   6.789
13007TIP3    H138943   1.558   5.747   6.748
13007TIP3    H238944   1.489   5.755   6.880
13008TIP3   OH238945   1.546   5.869   7.020
13008TIP3    H138946   1.469   5.902   7.069
13008TIP3    H238947   1.578   5.950   6.976
13009TIP3   OH238948   1.996   5.462   7.576
13009TIP3    H138949   2.057   5.396   7.536
13009TIP3    H238950   1.967   5.512   7.497
13010TIP3   OH238951   1.415   5.302   6.339
13010TIP3    H138952   1.468   5.282   6.419
13010TIP3    H238953   1.357   5.223   6.335
13011TIP3   OH238954   1.863   5.600   7.380
13011TIP3    H138955   1.776   5.640   7.399
13011TIP3    H238956   1.834   5.523   7.325
13012TIP3   OH238957   1.501   5.228   5.969
13012TIP3    H138958   1.540   5.158   5.911
13012TIP3    H238959   1.570   5.297   5.967
13013TIP3   OH238960   1.073   6.759   6.238
13013TIP3    H138961   1.122   6.755   6.153
13013TIP3    H238962   1.122   6.829   6.285
13014TIP3   OH238963   1.014   6.972   7.166
13014TIP3    H138964   1.089   6.913   7.149
13014TIP3    H238965   1.052   7.035   7.231
13015TIP3   OH238966   1.748   5.379   7.262
13015TIP3    H138967   1.665   5.388   7.210
13015TIP3    H238968   1.760   5.281   7.257
13016TIP3   OH238969   0.966   6.795   6.883
13016TIP3    H138970   0.878   6.798   6.923
13016TIP3    H238971   0.993   6.888   6.882
13017TIP3   OH238972   1.166   7.000   6.811
13017TIP3    H138973   1.148   7.079   6.756
13017TIP3    H238974   1.185   6.933   6.742
13018TIP3   OH238975   0.991   5.251   6.886
13018TIP3    H138976   0.938   5.189   6.939
13018TIP3    H238977   0.969   5.224   6.796
13019TIP3   OH238978   1.580   5.239   6.552
13019TIP3    H138979   1.660   5.195   6.513
13019TIP3    H238980   1.610   5.332   6.549
13020TIP3   OH238981   0.679   5.007   6.780
13020TIP3    H138982   0.733   5.058   6.717
13020TIP3    H238983   0.703   5.048   6.863
13021TIP3   OH238984   1.238   5.085   6.327
13021TIP3    H138985   1.150   5.125   6.336
13021TIP3    H238986   1.225   5.000   6.373
13022TIP3   OH238987   0.656   5.184   6.408
13022TIP3    H138988   0.714   5.139   6.471
13022TIP3    H238989   0.674   5.277   6.430
13023TIP3   OH238990   1.212   6.732   6.003
13023TIP3    H138991   1.206   6.634   5.991
13023TIP3    H238992   1.168   6.763   5.921
13024TIP3   OH238993   0.700   5.231   7.919
13024TIP3    H138994   0.753   5.240   7.838
13024TIP3    H238995   0.751   5.160   7.964
13025TIP3   OH238996   1.502   5.325   7.691
13025TIP3    H138997   1.520   5.293   7.782
13025TIP3    H238998   1.591   5.319   7.651
13026TIP3   OH238999   1.440   6.874   7.190
13026TIP3    H139000   1.364   6.844   7.136
13026TIP3    H239001   1.420   6.969   7.196
13027TIP3   OH239002   2.707   6.250   5.952
13027TIP3    H139003   2.673   6.339   5.930
13027TIP3    H239004   2.634   6.195   5.917
13028TIP3   OH239005   2.703   6.251   6.344
13028TIP3    H139006   2.740   6.223   6.429
13028TIP3    H239007   2.666   6.168   6.310
13029TIP3   OH239008   2.007   6.150   6.715
13029TIP3    H139009   2.035   6.075   6.771
13029TIP3    H239010   2.089   6.169   6.666
13030TIP3   OH239011   2.952   6.554   6.021
13030TIP3    H139012   2.934   6.483   6.084
13030TIP3    H239013   2.983   6.626   6.077
13031TIP3   OH239014   1.978   6.553   6.423
13031TIP3    H139015   1.970   6.455   6.424
13031TIP3    H239016   2.075   6.562   6.414
13032TIP3   OH239017   1.680   5.753   6.208
13032TIP3    H139018   1.629   5.835   6.221
13032TIP3    H239019   1.613   5.698   6.163
13033TIP3   OH239020   1.739   6.040   6.390
13033TIP3    H139021   1.788   5.961   6.421
13033TIP3    H239022   1.796   6.071   6.318
13034TIP3   OH239023   2.605   7.014   6.038
13034TIP3    H139024   2.642   6.943   5.982
13034TIP3    H239025   2.594   6.968   6.123
13035TIP3   OH239026   2.502   6.474   6.387
13035TIP3    H139027   2.544   6.396   6.345
13035TIP3    H239028   2.584   6.522   6.411
13036TIP3   OH239029   3.521   5.792   6.382
13036TIP3    H139030   3.550   5.877   6.421
13036TIP3    H239031   3.544   5.805   6.289
13037TIP3   OH239032   2.917   5.973   6.413
13037TIP3    H139033   2.959   5.888   6.433
13037TIP3    H239034   2.882   5.956   6.324
13038TIP3   OH239035   2.259   5.632   6.378
13038TIP3    H139036   2.238   5.704   6.315
13038TIP3    H239037   2.214   5.557   6.332
13039TIP3   OH239038   2.951   5.730   6.000
13039TIP3    H139039   3.023   5.714   6.066
13039TIP3    H239040   3.005   5.761   5.925
13040TIP3   OH239041   1.889   5.834   6.488
13040TIP3    H139042   1.973   5.811   6.534
13040TIP3    H239043   1.901   5.779   6.407
13041TIP3   OH239044   2.322   6.033   6.299
13041TIP3    H139045   2.418   6.011   6.303
13041TIP3    H239046   2.285   5.950   6.260
13042TIP3   OH239047   3.595   6.004   6.551
13042TIP3    H139048   3.509   6.047   6.531
13042TIP3    H239049   3.607   6.032   6.643
13043TIP3   OH239050   2.252   5.619   6.816
13043TIP3    H139051   2.190   5.651   6.748
13043TIP3    H239052   2.198   5.633   6.897
13044TIP3   OH239053   2.588   6.467   5.826
13044TIP3    H139054   2.555   6.453   5.736
13044TIP3    H239055   2.543   6.550   5.851
13045TIP3   OH239056   2.357   6.392   6.606
13045TIP3    H139057   2.300   6.463   6.640
13045TIP3    H239058   2.403   6.436   6.531
13046TIP3   OH239059   3.154   5.734   6.179
13046TIP3    H139060   3.146   5.681   6.260
13046TIP3    H239061   3.206   5.811   6.209
13047TIP3   OH239062   2.125   5.731   6.597
13047TIP3    H139063   2.190   5.800   6.620
13047TIP3    H239064   2.171   5.688   6.521
13048TIP3   OH239065   2.189   6.592   6.708
13048TIP3    H139066   2.164   6.679   6.670
13048TIP3    H239067   2.109   6.574   6.761
13049TIP3   OH239068   1.582   6.284   5.945
13049TIP3    H139069   1.519   6.317   5.879
13049TIP3    H239070   1.613   6.368   5.986
13050TIP3   OH239071   3.017   6.798   6.185
13050TIP3    H139072   2.927   6.788   6.223
13050TIP3    H239073   3.008   6.883   6.139
13051TIP3   OH239074   3.312   5.696   6.550
13051TIP3    H139075   3.224   5.718   6.514
13051TIP3    H239076   3.372   5.726   6.478
13052TIP3   OH239077   2.603   5.331   6.534
13052TIP3    H139078   2.587   5.236   6.551
13052TIP3    H239079   2.525   5.370   6.579
13053TIP3   OH239080   2.713   6.840   5.851
13053TIP3    H139081   2.763   6.756   5.834
13053TIP3    H239082   2.778   6.904   5.814
13054TIP3   OH239083   2.859   6.624   5.771
13054TIP3    H139084   2.836   6.542   5.725
13054TIP3    H239085   2.898   6.591   5.854
13055TIP3   OH239086   3.243   6.704   6.528
13055TIP3    H139087   3.231   6.627   6.468
13055TIP3    H239088   3.226   6.779   6.467
13056TIP3   OH239089   2.538   6.102   5.788
13056TIP3    H139090   2.457   6.151   5.764
13056TIP3    H239091   2.582   6.093   5.702
13057TIP3   OH239092   2.495   5.889   5.498
13057TIP3    H139093   2.565   5.940   5.544
13057TIP3    H239094   2.550   5.823   5.451
13058TIP3   OH239095   3.439   6.347   6.377
13058TIP3    H139096   3.354   6.397   6.379
13058TIP3    H239097   3.469   6.369   6.286
13059TIP3   OH239098   2.885   6.185   5.755
13059TIP3    H139099   2.831   6.207   5.834
13059TIP3    H239100   2.969   6.159   5.798
13060TIP3   OH239101   3.117   6.219   6.675
13060TIP3    H139102   3.114   6.302   6.725
13060TIP3    H239103   3.032   6.222   6.628
13061TIP3   OH239104   2.116   6.180   6.176
13061TIP3    H139105   2.069   6.119   6.113
13061TIP3    H239106   2.190   6.124   6.207
13062TIP3   OH239107   2.244   6.589   6.322
13062TIP3    H139108   2.227   6.557   6.232
13062TIP3    H239109   2.333   6.552   6.340
13063TIP3   OH239110   2.233   6.154   6.535
13063TIP3    H139111   2.270   6.121   6.450
13063TIP3    H239112   2.285   6.236   6.549
13064TIP3   OH239113   2.776   6.789   6.306
13064TIP3    H139114   2.765   6.868   6.362
13064TIP3    H239115   2.761   6.715   6.369
13065TIP3   OH239116   2.393   6.706   6.855
13065TIP3    H139117   2.331   6.767   6.899
13065TIP3    H239118   2.330   6.653   6.801
13066TIP3   OH239119   2.720   6.043   5.584
13066TIP3    H139120   2.781   6.103   5.634
13066TIP3    H239121   2.747   6.063   5.491
13067TIP3   OH239122   2.149   6.250   6.998
13067TIP3    H139123   2.144   6.346   7.016
13067TIP3    H239124   2.058   6.231   6.971
13068TIP3   OH239125   2.467   6.720   5.857
13068TIP3    H139126   2.552   6.767   5.863
13068TIP3    H239127   2.410   6.785   5.815
13069TIP3   OH239128   2.185   6.868   6.940
13069TIP3    H139129   2.150   6.875   6.849
13069TIP3    H239130   2.104   6.845   6.992
13070TIP3   OH239131   3.241   5.278   5.635
13070TIP3    H139132   3.158   5.299   5.683
13070TIP3    H239133   3.254   5.360   5.583
13071TIP3   OH239134   1.966   6.019   5.997
13071TIP3    H139135   1.902   6.042   5.928
13071TIP3    H239136   1.965   5.922   5.994
13072TIP3   OH239137   3.041   6.646   5.184
13072TIP3    H139138   3.050   6.742   5.167
13072TIP3    H239139   3.133   6.616   5.170
13073TIP3   OH239140   1.761   6.406   6.889
13073TIP3    H139141   1.695   6.389   6.820
13073TIP3    H239142   1.797   6.317   6.908
13074TIP3   OH239143   1.619   6.599   6.518
13074TIP3    H139144   1.715   6.590   6.506
13074TIP3    H239145   1.614   6.676   6.576
13075TIP3   OH239146   3.481   7.054   6.578
13075TIP3    H139147   3.480   6.957   6.593
13075TIP3    H239148   3.398   7.079   6.623
13076TIP3   OH239149   2.588   6.836   6.711
13076TIP3    H139150   2.583   6.929   6.742
13076TIP3    H239151   2.517   6.794   6.766
13077TIP3   OH239152   2.352   6.959   5.665
13077TIP3    H139153   2.306   6.945   5.580
13077TIP3    H239154   2.320   7.048   5.692
13078TIP3   OH239155   1.787   6.812   6.050
13078TIP3    H139156   1.836   6.805   6.134
13078TIP3    H239157   1.734   6.730   6.053
13079TIP3   OH239158   2.549   6.867   5.299
13079TIP3    H139159   2.608   6.797   5.263
13079TIP3    H239160   2.586   6.878   5.389
13080TIP3   OH239161   2.603   6.916   5.569
13080TIP3    H139162   2.514   6.925   5.611
13080TIP3    H239163   2.653   6.876   5.642
13081TIP3   OH239164   3.368   6.179   6.852
13081TIP3    H139165   3.286   6.189   6.801
13081TIP3    H239166   3.386   6.083   6.841
13082TIP3   OH239167   1.969   6.585   6.870
13082TIP3    H139168   2.010   6.577   6.958
13082TIP3    H239169   1.893   6.524   6.878
13083TIP3   OH239170   2.366   5.411   6.662
13083TIP3    H139171   2.278   5.380   6.631
13083TIP3    H239172   2.338   5.491   6.712
13084TIP3   OH239173   2.903   5.529   6.856
13084TIP3    H139174   2.972   5.497   6.918
13084TIP3    H239175   2.820   5.506   6.903
13085TIP3   OH239176   3.139   5.956   6.774
13085TIP3    H139177   3.086   5.955   6.858
13085TIP3    H239178   3.115   6.043   6.736
13086TIP3   OH239179   2.802   6.087   5.332
13086TIP3    H139180   2.763   6.063   5.246
13086TIP3    H239181   2.888   6.124   5.304
13087TIP3   OH239182   2.504   5.458   5.621
13087TIP3    H139183   2.475   5.456   5.715
13087TIP3    H239184   2.452   5.381   5.590
13088TIP3   OH239185   2.302   5.929   6.678
13088TIP3    H139186   2.250   5.944   6.759
13088TIP3    H239187   2.282   6.010   6.626
13089TIP3   OH239188   2.180   5.819   6.197
13089TIP3    H139189   2.089   5.786   6.212
13089TIP3    H239190   2.195   5.784   6.105
13090TIP3   OH239191   2.674   5.902   5.925
13090TIP3    H139192   2.623   5.972   5.878
13090TIP3    H239193   2.728   5.865   5.853
13091TIP3   OH239194   2.848   6.176   7.008
13091TIP3    H139195   2.828   6.101   7.067
13091TIP3    H239196   2.943   6.188   7.027
13092TIP3   OH239197   2.828   5.926   6.157
13092TIP3    H139198   2.765   5.950   6.086
13092TIP3    H239199   2.867   5.847   6.113
13093TIP3   OH239200   2.120   5.953   6.884
13093TIP3    H139201   2.159   6.007   6.954
13093TIP3    H239202   2.103   5.869   6.931
13094TIP3   OH239203   1.703   5.471   6.482
13094TIP3    H139204   1.784   5.504   6.525
13094TIP3    H239205   1.733   5.440   6.395
13095TIP3   OH239206   1.674   5.452   5.996
13095TIP3    H139207   1.723   5.482   5.916
13095TIP3    H239208   1.614   5.529   6.005
13096TIP3   OH239209   2.841   6.170   6.579
13096TIP3    H139210   2.874   6.100   6.519
13096TIP3    H239211   2.810   6.115   6.654
13097TIP3   OH239212   2.520   5.640   6.255
13097TIP3    H139213   2.438   5.634   6.308
13097TIP3    H239214   2.588   5.625   6.323
13098TIP3   OH239215   1.944   5.691   6.261
13098TIP3    H139216   1.850   5.695   6.230
13098TIP3    H239217   1.971   5.600   6.238
13099TIP3   OH239218   2.210   5.717   5.949
13099TIP3    H139219   2.303   5.706   5.923
13099TIP3    H239220   2.162   5.719   5.863
13100TIP3   OH239221   3.002   5.713   6.462
13100TIP3    H139222   2.965   5.726   6.552
13100TIP3    H239223   2.937   5.651   6.424
13101TIP3   OH239224   2.052   5.727   5.728
13101TIP3    H139225   2.025   5.641   5.689
13101TIP3    H239226   2.102   5.761   5.651
13102TIP3   OH239227   3.177   7.400   6.678
13102TIP3    H139228   3.176   7.423   6.584
13102TIP3    H239229   3.258   7.445   6.709
13103TIP3   OH239230   2.129   6.503   7.111
13103TIP3    H139231   2.207   6.545   7.154
13103TIP3    H239232   2.059   6.520   7.178
13104TIP3   OH239233   2.592   5.969   6.352
13104TIP3    H139234   2.660   5.925   6.299
13104TIP3    H239235   2.596   5.919   6.436
13105TIP3   OH239236   2.111   5.454   6.224
13105TIP3    H139237   2.082   5.372   6.269
13105TIP3    H239238   2.128   5.424   6.133
13106TIP3   OH239239   2.570   5.865   6.636
13106TIP3    H139240   2.479   5.897   6.653
13106TIP3    H239241   2.625   5.926   6.689
13107TIP3   OH239242   2.301   6.256   5.731
13107TIP3    H139243   2.236   6.182   5.726
13107TIP3    H239244   2.283   6.289   5.823
13108TIP3   OH239245   3.203   6.489   6.361
13108TIP3    H139246   3.227   6.539   6.280
13108TIP3    H239247   3.119   6.445   6.333
13109TIP3   OH239248   2.760   5.557   5.611
13109TIP3    H139249   2.663   5.537   5.612
13109TIP3    H239250   2.763   5.653   5.630
13110TIP3   OH239251   2.700   6.568   6.735
13110TIP3    H139252   2.744   6.558   6.820
13110TIP3    H239253   2.666   6.660   6.738
13111TIP3   OH239254   2.829   5.815   5.708
13111TIP3    H139255   2.926   5.818   5.719
13111TIP3    H239256   2.811   5.893   5.653
13112TIP3   OH239257   1.999   6.277   6.406
13112TIP3    H139258   2.032   6.251   6.317
13112TIP3    H239259   2.055   6.221   6.462
13113TIP3   OH239260   2.453   6.402   5.559
13113TIP3    H139261   2.402   6.487   5.563
13113TIP3    H239262   2.399   6.347   5.620
13114TIP3   OH239263   1.862   6.180   7.028
13114TIP3    H139264   1.853   6.138   7.116
13114TIP3    H239265   1.794   6.130   6.978
13115TIP3   OH239266   2.608   6.307   7.049
13115TIP3    H139267   2.551   6.253   6.991
13115TIP3    H239268   2.696   6.274   7.021
13116TIP3   OH239269   2.862   6.831   6.630
13116TIP3    H139270   2.766   6.831   6.644
13116TIP3    H239271   2.892   6.883   6.708
13117TIP3   OH239272   3.271   5.906   5.537
13117TIP3    H139273   3.209   5.862   5.474
13117TIP3    H239274   3.268   5.996   5.497
13118TIP3   OH239275   3.494   6.764   6.617
13118TIP3    H139276   3.396   6.757   6.609
13118TIP3    H239277   3.520   6.733   6.527
13119TIP3   OH239278   2.977   6.722   5.448
13119TIP3    H139279   2.949   6.650   5.507
13119TIP3    H239280   2.990   6.676   5.363
13120TIP3   OH239281   2.970   6.351   6.278
13120TIP3    H139282   2.876   6.327   6.291
13120TIP3    H239283   3.004   6.270   6.234
13121TIP3   OH239284   2.102   6.583   6.041
13121TIP3    H139285   2.102   6.661   5.983
13121TIP3    H239286   2.008   6.565   6.050
13122TIP3   OH239287   1.659   5.887   5.733
13122TIP3    H139288   1.704   5.969   5.759
13122TIP3    H239289   1.587   5.883   5.800
13123TIP3   OH239290   2.228   6.343   5.977
13123TIP3    H139291   2.198   6.432   6.001
13123TIP3    H239292   2.197   6.290   6.052
13124TIP3   OH239293   2.371   6.921   6.504
13124TIP3    H139294   2.413   6.993   6.454
13124TIP3    H239295   2.448   6.883   6.550
13125TIP3   OH239296   2.016   6.816   5.883
13125TIP3    H139297   1.932   6.827   5.931
13125TIP3    H239298   2.053   6.907   5.890
13126TIP3   OH239299   2.753   6.558   6.465
13126TIP3    H139300   2.742   6.553   6.563
13126TIP3    H239301   2.830   6.502   6.452
13127TIP3   OH239302   2.736   6.454   5.351
13127TIP3    H139303   2.791   6.429   5.428
13127TIP3    H239304   2.650   6.421   5.380
13128TIP3   OH239305   3.003   7.087   6.514
13128TIP3    H139306   2.923   7.032   6.508
13128TIP3    H239307   2.987   7.152   6.442
13129TIP3   OH239308   3.070   6.922   5.165
13129TIP3    H139309   3.107   6.996   5.114
13129TIP3    H239310   2.990   6.966   5.200
13130TIP3   OH239311   2.086   5.702   7.029
13130TIP3    H139312   1.989   5.702   7.038
13130TIP3    H239313   2.112   5.639   7.099
13131TIP3   OH239314   2.896   6.390   5.567
13131TIP3    H139315   2.884   6.319   5.634
13131TIP3    H239316   2.993   6.382   5.552
13132TIP3   OH239317   1.805   6.784   6.661
13132TIP3    H139318   1.863   6.715   6.697
13132TIP3    H239319   1.832   6.861   6.713
13133TIP3   OH239320   2.099   6.408   5.342
13133TIP3    H139321   2.132   6.318   5.321
13133TIP3    H239322   2.111   6.411   5.439
13134TIP3   OH239323   2.026   6.424   5.606
13134TIP3    H139324   2.094   6.392   5.667
13134TIP3    H239325   2.025   6.520   5.625
13135TIP3   OH239326   1.774   6.131   5.814
13135TIP3    H139327   1.714   6.181   5.873
13135TIP3    H239328   1.846   6.193   5.798
13136TIP3   OH239329   2.925   5.770   6.724
13136TIP3    H139330   3.012   5.801   6.753
13136TIP3    H239331   2.914   5.686   6.774
13137TIP3   OH239332   2.809   5.511   5.888
13137TIP3    H139333   2.793   5.529   5.793
13137TIP3    H239334   2.848   5.595   5.919
13138TIP3   OH239335   2.301   6.626   5.565
13138TIP3    H139336   2.214   6.652   5.602
13138TIP3    H239337   2.321   6.705   5.513
13139TIP3   OH239338   2.496   5.697   5.985
13139TIP3    H139339   2.559   5.771   5.969
13139TIP3    H239340   2.501   5.689   6.083
13140TIP3   OH239341   2.767   6.010   6.786
13140TIP3    H139342   2.796   6.055   6.867
13140TIP3    H239343   2.818   5.927   6.788
13141TIP3   OH239344   2.637   5.416   6.085
13141TIP3    H139345   2.627   5.497   6.137
13141TIP3    H239346   2.699   5.446   6.015
13142TIP3   OH239347   2.043   6.706   5.629
13142TIP3    H139348   2.022   6.781   5.570
13142TIP3    H239349   2.033   6.747   5.718
13143TIP3   OH239350   2.150   5.413   5.934
13143TIP3    H139351   2.140   5.504   5.903
13143TIP3    H239352   2.238   5.392   5.899
13144TIP3   OH239353   3.405   5.912   6.771
13144TIP3    H139354   3.307   5.913   6.779
13144TIP3    H239355   3.414   5.863   6.688
13145TIP3   OH239356   3.056   6.107   6.159
13145TIP3    H139357   2.979   6.047   6.169
13145TIP3    H239358   3.126   6.058   6.207
13146TIP3   OH239359   1.695   5.614   5.780
13146TIP3    H139360   1.708   5.709   5.760
13146TIP3    H239361   1.660   5.579   5.698
13147TIP3   OH239362   3.025   7.071   6.107
13147TIP3    H139363   2.983   7.119   6.033
13147TIP3    H239364   3.120   7.089   6.086
13148TIP3   OH239365   2.098   5.334   6.634
13148TIP3    H139366   2.070   5.298   6.547
13148TIP3    H239367   2.089   5.255   6.692
13149TIP3   OH239368   1.633   6.548   6.014
13149TIP3    H139369   1.571   6.581   6.081
13149TIP3    H239370   1.599   6.594   5.933
13150TIP3   OH239371   1.801   7.103   7.087
13150TIP3    H139372   1.886   7.107   7.136
13150TIP3    H239373   1.783   7.008   7.088
13151TIP3   OH239374   2.271   7.051   7.134
13151TIP3    H139375   2.368   7.046   7.140
13151TIP3    H239376   2.253   6.988   7.061
13152TIP3   OH239377   2.256   6.627   5.256
13152TIP3    H139378   2.208   6.549   5.292
13152TIP3    H239379   2.335   6.584   5.219
13153TIP3   OH239380   2.917   6.963   6.865
13153TIP3    H139381   2.911   6.894   6.935
13153TIP3    H239382   2.994   7.015   6.895
13154TIP3   OH239383   2.694   6.668   5.173
13154TIP3    H139384   2.733   6.602   5.233
13154TIP3    H239385   2.752   6.663   5.094
13155TIP3   OH239386   1.918   6.510   7.294
13155TIP3    H139387   1.898   6.434   7.351
13155TIP3    H239388   1.837   6.515   7.239
13156TIP3   OH239389   2.531   6.585   7.063
13156TIP3    H139390   2.496   6.611   6.975
13156TIP3    H239391   2.567   6.495   7.046
13157TIP3   OH239392   2.410   6.348   5.293
13157TIP3    H139393   2.423   6.359   5.389
13157TIP3    H239394   2.420   6.250   5.284
13158TIP3   OH239395   3.027   6.603   6.670
13158TIP3    H139396   3.105   6.641   6.625
13158TIP3    H239397   2.960   6.671   6.650
13159TIP3   OH239398   2.125   6.049   5.721
13159TIP3    H139399   2.098   5.985   5.788
13159TIP3    H239400   2.154   5.988   5.649
13160TIP3   OH239401   2.383   6.110   6.941
13160TIP3    H139402   2.306   6.171   6.941
13160TIP3    H239403   2.434   6.143   6.863
13161TIP3   OH239404   2.216   5.862   5.543
13161TIP3    H139405   2.189   5.852   5.450
13161TIP3    H239406   2.313   5.856   5.535
13162TIP3   OH239407   2.899   6.519   7.063
13162TIP3    H139408   2.976   6.489   7.013
13162TIP3    H239409   2.895   6.454   7.136
13163TIP3   OH239410   3.033   6.177   5.211
13163TIP3    H139411   3.014   6.132   5.126
13163TIP3    H239412   2.999   6.267   5.188
13164TIP3   OH239413   2.517   5.898   7.062
13164TIP3    H139414   2.511   5.823   6.998
13164TIP3    H239415   2.463   5.966   7.018
13165TIP3   OH239416   2.509   5.697   6.866
13165TIP3    H139417   2.539   5.734   6.780
13165TIP3    H239418   2.416   5.672   6.846
13166TIP3   OH239419   2.529   6.229   6.748
13166TIP3    H139420   2.615   6.234   6.705
13166TIP3    H239421   2.476   6.293   6.695
13167TIP3   OH239422   3.114   6.196   7.117
13167TIP3    H139423   3.159   6.110   7.122
13167TIP3    H239424   3.184   6.251   7.078
13168TIP3   OH239425   3.155   6.451   6.853
13168TIP3    H139426   3.099   6.507   6.795
13168TIP3    H239427   3.244   6.471   6.815
13169TIP3   OH239428   2.641   5.457   6.936
13169TIP3    H139429   2.590   5.537   6.912
13169TIP3    H239430   2.574   5.386   6.924
13170TIP3   OH239431   2.769   5.958   7.151
13170TIP3    H139432   2.746   5.954   7.245
13170TIP3    H239433   2.681   5.934   7.113
13171TIP3   OH239434   3.008   5.918   7.007
13171TIP3    H139435   2.932   5.912   7.068
13171TIP3    H239436   3.082   5.882   7.061
13172TIP3   OH239437   3.238   5.854   7.154
13172TIP3    H139438   3.250   5.757   7.167
13172TIP3    H239439   3.233   5.887   7.246
13173TIP3   OH239440   2.231   5.811   7.351
13173TIP3    H139441   2.231   5.725   7.305
13173TIP3    H239442   2.272   5.786   7.436
13174TIP3   OH239443   2.735   5.470   7.193
13174TIP3    H139444   2.799   5.396   7.188
13174TIP3    H239445   2.695   5.464   7.104
13175TIP3   OH239446   2.798   5.683   7.350
13175TIP3    H139447   2.784   5.607   7.289
13175TIP3    H239448   2.725   5.741   7.325
13176TIP3   OH239449   2.011   6.902   5.423
13176TIP3    H139450   2.107   6.905   5.408
13176TIP3    H239451   1.983   6.981   5.374
13177TIP3   OH239452   1.497   6.279   5.666
13177TIP3    H139453   1.588   6.258   5.688
13177TIP3    H239454   1.476   6.201   5.609
13178TIP3   OH239455   1.416   6.901   6.085
13178TIP3    H139456   1.351   6.841   6.043
13178TIP3    H239457   1.461   6.840   6.146
13179TIP3   OH239458   1.554   6.744   6.266
13179TIP3    H139459   1.542   6.678   6.335
13179TIP3    H239460   1.606   6.811   6.314
13180TIP3   OH239461   3.280   7.160   6.068
13180TIP3    H139462   3.312   7.187   6.156
13180TIP3    H239463   3.353   7.188   6.010
13181TIP3   OH239464   3.311   7.174   6.352
13181TIP3    H139465   3.264   7.088   6.347
13181TIP3    H239466   3.387   7.149   6.407
13182TIP3   OH239467   3.356   6.851   6.924
13182TIP3    H139468   3.284   6.862   6.989
13182TIP3    H239469   3.399   6.939   6.926
13183TIP3   OH239470   3.172   6.364   5.540
13183TIP3    H139471   3.239   6.429   5.509
13183TIP3    H239472   3.218   6.326   5.619
13184TIP3   OH239473   3.300   6.232   5.745
13184TIP3    H139474   3.233   6.189   5.803
13184TIP3    H239475   3.365   6.266   5.810
13185TIP3   OH239476   3.358   6.626   6.176
13185TIP3    H139477   3.410   6.557   6.131
13185TIP3    H239478   3.354   6.697   6.108
13186TIP3   OH239479   3.183   6.926   6.370
13186TIP3    H139480   3.111   6.966   6.421
13186TIP3    H239481   3.135   6.879   6.298
13187TIP3   OH239482   3.237   6.141   5.390
13187TIP3    H139483   3.165   6.141   5.322
13187TIP3    H239484   3.207   6.216   5.445
13188TIP3   OH239485   3.106   5.813   5.343
13188TIP3    H139486   3.063   5.843   5.262
13188TIP3    H239487   3.085   5.717   5.340
13189TIP3   OH239488   3.111   6.090   5.889
13189TIP3    H139489   3.118   5.994   5.878
13189TIP3    H239490   3.097   6.100   5.985
13190TIP3   OH239491   1.740   6.162   6.639
13190TIP3    H139492   1.738   6.126   6.548
13190TIP3    H239493   1.837   6.169   6.655
13191TIP3   OH239494   3.403   6.515   6.749
13191TIP3    H139495   3.473   6.447   6.737
13191TIP3    H239496   3.427   6.581   6.683
13192TIP3   OH239497   3.584   6.313   6.756
13192TIP3    H139498   3.509   6.264   6.796
13192TIP3    H239499   3.657   6.250   6.775
13193TIP3   OH239500   3.049   5.548   5.329
13193TIP3    H139501   3.120   5.511   5.385
13193TIP3    H239502   2.973   5.489   5.345
13194TIP3   OH239503   3.112   5.808   5.780
13194TIP3    H139504   3.151   5.718   5.796
13194TIP3    H239505   3.168   5.838   5.708
13195TIP3   OH239506   3.269   5.975   6.281
13195TIP3    H139507   3.354   5.999   6.238
13195TIP3    H239508   3.285   6.013   6.369
13196TIP3   OH239509   3.344   6.123   6.510
13196TIP3    H139510   3.265   6.157   6.557
13196TIP3    H239511   3.376   6.205   6.465
13197TIP3   OH239512   1.962   5.851   7.320
13197TIP3    H139513   2.060   5.844   7.326
13197TIP3    H239514   1.937   5.761   7.348
13198TIP3   OH239515   3.795   5.719   7.065
13198TIP3    H139516   3.854   5.654   7.022
13198TIP3    H239517   3.761   5.769   6.987
13199TIP3   OH239518   3.217   5.557   5.823
13199TIP3    H139519   3.264   5.538   5.906
13199TIP3    H239520   3.156   5.481   5.819
13200TIP3   OH239521   1.916   5.544   6.652
13200TIP3    H139522   1.974   5.465   6.655
13200TIP3    H239523   1.982   5.613   6.635
13201TIP3   OH239524   1.715   5.817   6.709
13201TIP3    H139525   1.765   5.804   6.626
13201TIP3    H239526   1.758   5.896   6.744
13202TIP3   OH239527   3.658   5.849   6.868
13202TIP3    H139528   3.572   5.892   6.882
13202TIP3    H239529   3.629   5.774   6.812
13203TIP3   OH239530   3.296   5.485   5.459
13203TIP3    H139531   3.332   5.416   5.399
13203TIP3    H239532   3.363   5.556   5.452
13204TIP3   OH239533   1.705   5.331   6.233
13204TIP3    H139534   1.611   5.312   6.245
13204TIP3    H239535   1.704   5.380   6.147
13205TIP3   OH239536   2.866   7.025   5.725
13205TIP3    H139537   2.912   7.009   5.640
13205TIP3    H239538   2.925   7.089   5.767
13206TIP3   OH239539   1.929   5.412   7.037
13206TIP3    H139540   1.873   5.390   7.113
13206TIP3    H239541   1.861   5.435   6.970
13207TIP3   OH239542   1.967   6.813   7.105
13207TIP3    H139543   1.871   6.799   7.093
13207TIP3    H239544   1.974   6.820   7.201
13208TIP3   OH239545   2.145   6.863   6.654
13208TIP3    H139546   2.098   6.940   6.615
13208TIP3    H239547   2.231   6.875   6.608
13209TIP3   OH239548   2.582   7.103   6.788
13209TIP3    H139549   2.624   7.101   6.877
13209TIP3    H239550   2.648   7.156   6.739
13210TIP3   OH239551   2.763   7.259   6.653
13210TIP3    H139552   2.833   7.205   6.613
13210TIP3    H239553   2.816   7.314   6.715
13211TIP3   OH239554   3.560   5.612   6.752
13211TIP3    H139555   3.470   5.599   6.716
13211TIP3    H239556   3.596   5.520   6.742
13212TIP3   OH239557   1.817   7.114   6.683
13212TIP3    H139558   1.727   7.144   6.661
13212TIP3    H239559   1.835   7.168   6.761
13213TIP3   OH239560   2.054   7.095   6.539
13213TIP3    H139561   1.966   7.106   6.581
13213TIP3    H239562   2.036   7.126   6.448
13214TIP3   OH239563   2.479   7.118   6.337
13214TIP3    H139564   2.410   7.137   6.270
13214TIP3    H239565   2.490   7.206   6.378
13215TIP3   OH239566   2.749   7.060   6.390
13215TIP3    H139567   2.655   7.075   6.369
13215TIP3    H239568   2.792   7.132   6.341
13216TIP3   OH239569   2.959   7.255   6.300
13216TIP3    H139570   2.940   7.337   6.248
13216TIP3    H239571   2.984   7.192   6.228
13217TIP3   OH239572   1.727   6.907   6.421
13217TIP3    H139573   1.754   6.878   6.511
13217TIP3    H239574   1.801   6.865   6.370
13218TIP3   OH239575   1.926   6.782   6.283
13218TIP3    H139576   1.941   6.698   6.332
13218TIP3    H239577   2.017   6.818   6.279
13219TIP3   OH239578   2.192   6.872   6.289
13219TIP3    H139579   2.222   6.779   6.277
13219TIP3    H239580   2.242   6.894   6.370
13220TIP3   OH239581   2.765   5.530   6.377
13220TIP3    H139582   2.723   5.457   6.425
13220TIP3    H239583   2.836   5.485   6.327
13221TIP3   OH239584   3.284   5.420   6.280
13221TIP3    H139585   3.320   5.466   6.200
13221TIP3    H239586   3.188   5.429   6.267
13222TIP3   OH239587   3.381   5.508   6.040
13222TIP3    H139588   3.455   5.456   6.001
13222TIP3    H239589   3.415   5.600   6.025
13223TIP3   OH239590   2.012   5.238   6.388
13223TIP3    H139591   1.919   5.206   6.388
13223TIP3    H239592   2.060   5.152   6.382
13224TIP3   OH239593   1.806   5.103   6.040
13224TIP3    H139594   1.846   5.150   5.963
13224TIP3    H239595   1.786   5.177   6.099
13225TIP3   OH239596   2.467   5.266   6.270
13225TIP3    H139597   2.517   5.315   6.203
13225TIP3    H239598   2.497   5.308   6.352
13226TIP3   OH239599   3.002   5.419   6.249
13226TIP3    H139600   3.001   5.377   6.162
13226TIP3    H239601   2.992   5.341   6.309
13227TIP3   OH239602   3.035   5.344   5.815
13227TIP3    H139603   2.948   5.385   5.829
13227TIP3    H239604   3.022   5.257   5.858
13228TIP3   OH239605   1.518   6.685   5.811
13228TIP3    H139606   1.432   6.654   5.778
13228TIP3    H239607   1.512   6.779   5.788
13229TIP3   OH239608   1.926   5.244   5.838
13229TIP3    H139609   1.945   5.223   5.745
13229TIP3    H239610   1.997   5.307   5.858
13230TIP3   OH239611   2.433   5.450   5.886
13230TIP3    H139612   2.482   5.396   5.950
13230TIP3    H239613   2.458   5.540   5.918
13231TIP3   OH239614   2.290   6.861   5.400
13231TIP3    H139615   2.376   6.887   5.361
13231TIP3    H239616   2.267   6.787   5.339
13232TIP3   OH239617   3.009   6.988   5.491
13232TIP3    H139618   3.002   6.890   5.480
13232TIP3    H239619   2.963   7.019   5.410
13233TIP3   OH239620   2.221   5.535   7.287
13233TIP3    H139621   2.184   5.457   7.332
13233TIP3    H239622   2.315   5.527   7.312
13234TIP3   OH239623   2.477   5.524   7.401
13234TIP3    H139624   2.557   5.489   7.357
13234TIP3    H239625   2.461   5.454   7.468
13235TIP3   OH239626   1.596   6.696   5.449
13235TIP3    H139627   1.583   6.737   5.536
13235TIP3    H239628   1.684   6.655   5.458
13236TIP3   OH239629   3.299   5.583   7.183
13236TIP3    H139630   3.316   5.551   7.274
13236TIP3    H239631   3.388   5.575   7.142
13237TIP3   OH239632   3.232   7.130   6.676
13237TIP3    H139633   3.154   7.101   6.625
13237TIP3    H239634   3.213   7.226   6.684
13238TIP3   OH239635   4.503   6.506   5.438
13238TIP3    H139636   4.471   6.596   5.417
13238TIP3    H239637   4.428   6.453   5.405
13239TIP3   OH239638   4.501   6.506   5.829
13239TIP3    H139639   4.538   6.483   5.916
13239TIP3    H239640   4.460   6.422   5.802
13240TIP3   OH239641   3.797   6.397   6.192
13240TIP3    H139642   3.827   6.327   6.253
13240TIP3    H239643   3.879   6.445   6.175
13241TIP3   OH239644   4.748   6.810   5.508
13241TIP3    H139645   4.731   6.742   5.576
13241TIP3    H239646   4.779   6.885   5.562
13242TIP3   OH239647   3.773   6.810   5.910
13242TIP3    H139648   3.766   6.712   5.911
13242TIP3    H239649   3.870   6.820   5.902
13243TIP3   OH239650   3.478   6.010   5.692
13243TIP3    H139651   3.429   6.092   5.710
13243TIP3    H239652   3.409   5.957   5.649
13244TIP3   OH239653   3.535   6.298   5.877
13244TIP3    H139654   3.585   6.219   5.909
13244TIP3    H239655   3.594   6.332   5.808
13245TIP3   OH239656   4.399   7.268   5.525
13245TIP3    H139657   4.438   7.196   5.471
13245TIP3    H239658   4.391   7.225   5.611
13246TIP3   OH239659   4.298   6.731   5.873
13246TIP3    H139660   4.340   6.654   5.830
13246TIP3    H239661   4.380   6.779   5.898
13247TIP3   OH239662   4.711   6.229   5.900
13247TIP3    H139663   4.754   6.145   5.922
13247TIP3    H239664   4.678   6.211   5.810
13248TIP3   OH239665   4.056   5.890   5.866
13248TIP3    H139666   4.034   5.962   5.803
13248TIP3    H239667   4.007   5.816   5.823
13249TIP3   OH239668   4.748   5.984   5.487
13249TIP3    H139669   4.818   5.969   5.554
13249TIP3    H239670   4.801   6.018   5.413
13250TIP3   OH239671   3.684   6.091   5.976
13250TIP3    H139672   3.767   6.071   6.023
13250TIP3    H239673   3.697   6.036   5.896
13251TIP3   OH239674   4.121   6.289   5.776
13251TIP3    H139675   4.216   6.266   5.785
13251TIP3    H239676   4.084   6.206   5.741
13252TIP3   OH239677   4.047   5.875   6.304
13252TIP3    H139678   3.988   5.911   6.234
13252TIP3    H239679   3.993   5.893   6.383
13253TIP3   OH239680   4.389   6.725   5.308
13253TIP3    H139681   4.349   6.712   5.221
13253TIP3    H239682   4.344   6.807   5.337
13254TIP3   OH239683   4.154   6.650   6.093
13254TIP3    H139684   4.095   6.720   6.129
13254TIP3    H239685   4.198   6.697   6.019
13255TIP3   OH239686   4.949   5.990   5.668
13255TIP3    H139687   4.930   5.950   5.754
13255TIP3    H239688   5.006   6.066   5.693
13256TIP3   OH239689   3.921   5.988   6.085
13256TIP3    H139690   3.983   6.061   6.108
13256TIP3    H239691   3.970   5.948   6.009
13257TIP3   OH239692   3.985   6.849   6.195
13257TIP3    H139693   3.959   6.936   6.158
13257TIP3    H239694   3.905   6.830   6.249
13258TIP3   OH239695   3.371   6.536   5.430
13258TIP3    H139696   3.332   6.563   5.345
13258TIP3    H239697   3.405   6.622   5.464
13259TIP3   OH239698   4.812   7.053   5.669
13259TIP3    H139699   4.723   7.044   5.708
13259TIP3    H239700   4.804   7.140   5.625
13260TIP3   OH239701   5.098   5.941   6.026
13260TIP3    H139702   5.006   5.971   6.011
13260TIP3    H239703   5.146   5.994   5.961
13261TIP3   OH239704   4.399   5.588   6.020
13261TIP3    H139705   4.382   5.494   6.037
13261TIP3    H239706   4.322   5.628   6.066
13262TIP3   OH239707   4.511   7.095   5.339
13262TIP3    H139708   4.562   7.012   5.322
13262TIP3    H239709   4.574   7.160   5.301
13263TIP3   OH239710   4.658   6.879   5.257
13263TIP3    H139711   4.617   6.799   5.223
13263TIP3    H239712   4.698   6.847   5.341
13264TIP3   OH239713   5.040   6.959   6.016
13264TIP3    H139714   5.027   6.882   5.955
13264TIP3    H239715   5.021   7.034   5.956
13265TIP3   OH239716   4.332   6.356   5.276
13265TIP3    H139717   4.252   6.409   5.255
13265TIP3    H239718   4.377   6.353   5.189
13266TIP3   OH239719   4.289   6.145   4.986
13266TIP3    H139720   4.357   6.196   5.033
13266TIP3    H239721   4.346   6.081   4.938
13267TIP3   OH239722   5.238   6.603   5.878
13267TIP3    H139723   5.152   6.650   5.874
13267TIP3    H239724   5.265   6.607   5.784
13268TIP3   OH239725   4.681   6.440   5.242
13268TIP3    H139726   4.626   6.464   5.320
13268TIP3    H239727   4.765   6.415   5.286
13269TIP3   OH239728   4.909   6.477   6.170
13269TIP3    H139729   4.907   6.561   6.220
13269TIP3    H239730   4.824   6.483   6.122
13270TIP3   OH239731   3.912   6.435   5.663
13270TIP3    H139732   3.870   6.376   5.595
13270TIP3    H239733   3.988   6.381   5.693
13271TIP3   OH239734   4.041   6.847   5.809
13271TIP3    H139735   4.022   6.814   5.719
13271TIP3    H239736   4.130   6.810   5.826
13272TIP3   OH239737   4.043   6.408   6.018
13272TIP3    H139738   4.077   6.381   5.930
13272TIP3    H239739   4.089   6.493   6.033
13273TIP3   OH239740   4.573   7.046   5.793
13273TIP3    H139741   4.560   7.126   5.846
13273TIP3    H239742   4.556   6.974   5.857
13274TIP3   OH239743   4.188   6.963   6.342
13274TIP3    H139744   4.126   7.024   6.387
13274TIP3    H239745   4.125   6.910   6.290
13275TIP3   OH239746   4.518   6.298   5.071
13275TIP3    H139747   4.577   6.359   5.120
13275TIP3    H239748   4.545   6.317   4.978
13276TIP3   OH239749   3.944   6.515   6.451
13276TIP3    H139750   3.947   6.606   6.487
13276TIP3    H239751   3.848   6.496   6.458
13277TIP3   OH239752   4.266   6.973   5.347
13277TIP3    H139753   4.349   7.023   5.352
13277TIP3    H239754   4.206   7.035   5.303
13278TIP3   OH239755   3.981   7.127   6.427
13278TIP3    H139756   3.946   7.132   6.336
13278TIP3    H239757   3.899   7.107   6.479
13279TIP3   OH239758   5.034   5.533   5.123
13279TIP3    H139759   4.953   5.557   5.173
13279TIP3    H239760   5.049   5.615   5.071
13280TIP3   OH239761   3.778   6.279   5.467
13280TIP3    H139762   3.709   6.322   5.412
13280TIP3    H239763   3.744   6.190   5.475
13281TIP3   OH239764   4.836   6.903   4.669
13281TIP3    H139765   4.844   7.000   4.654
13281TIP3    H239766   4.928   6.874   4.657
13282TIP3   OH239767   3.558   6.664   6.375
13282TIP3    H139768   3.491   6.643   6.306
13282TIP3    H239769   3.596   6.576   6.395
13283TIP3   OH239770   3.417   6.856   6.004
13283TIP3    H139771   3.512   6.844   5.991
13283TIP3    H239772   3.414   6.931   6.065
13284TIP3   OH239773   5.279   7.311   6.067
13284TIP3    H139774   5.277   7.214   6.082
13284TIP3    H239775   5.195   7.337   6.111
13285TIP3   OH239776   4.383   7.092   6.198
13285TIP3    H139777   4.379   7.185   6.229
13285TIP3    H239778   4.312   7.051   6.252
13286TIP3   OH239779   4.148   7.218   5.150
13286TIP3    H139780   4.101   7.202   5.067
13286TIP3    H239781   4.114   7.306   5.177
13287TIP3   OH239782   3.583   7.068   5.536
13287TIP3    H139783   3.630   7.059   5.622
13287TIP3    H239784   3.536   6.983   5.532
13288TIP3   OH239785   4.345   7.124   4.786
13288TIP3    H139786   4.403   7.053   4.750
13288TIP3    H239787   4.380   7.134   4.877
13289TIP3   OH239788   4.399   7.172   5.055
13289TIP3    H139789   4.310   7.181   5.098
13289TIP3    H239790   4.451   7.136   5.129
13290TIP3   OH239791   5.164   6.438   6.339
13290TIP3    H139792   5.084   6.446   6.286
13290TIP3    H239793   5.186   6.344   6.326
13291TIP3   OH239794   3.763   6.846   6.356
13291TIP3    H139795   3.812   6.830   6.440
13291TIP3    H239796   3.688   6.783   6.365
13292TIP3   OH239797   4.163   5.668   6.150
13292TIP3    H139798   4.075   5.637   6.119
13292TIP3    H239799   4.135   5.748   6.198
13293TIP3   OH239800   4.699   5.784   6.343
13293TIP3    H139801   4.768   5.755   6.406
13293TIP3    H239802   4.616   5.764   6.390
13294TIP3   OH239803   4.935   6.208   6.257
13294TIP3    H139804   4.886   6.209   6.342
13294TIP3    H239805   4.916   6.297   6.220
13295TIP3   OH239806   4.599   6.337   4.816
13295TIP3    H139807   4.560   6.318   4.729
13295TIP3    H239808   4.681   6.382   4.791
13296TIP3   OH239809   4.310   5.713   5.120
13296TIP3    H139810   4.273   5.711   5.210
13296TIP3    H239811   4.267   5.633   5.083
13297TIP3   OH239812   4.096   6.186   6.166
13297TIP3    H139813   4.044   6.205   6.247
13297TIP3    H239814   4.079   6.267   6.113
13298TIP3   OH239815   3.978   6.072   5.680
13298TIP3    H139816   3.886   6.045   5.699
13298TIP3    H239817   3.990   6.031   5.591
13299TIP3   OH239818   4.469   6.156   5.411
13299TIP3    H139819   4.419   6.228   5.365
13299TIP3    H239820   4.524   6.122   5.337
13300TIP3   OH239821   4.644   6.431   6.492
13300TIP3    H139822   4.623   6.358   6.554
13300TIP3    H239823   4.739   6.444   6.512
13301TIP3   OH239824   4.624   6.181   5.645
13301TIP3    H139825   4.562   6.210   5.575
13301TIP3    H239826   4.661   6.102   5.599
13302TIP3   OH239827   3.915   6.213   6.373
13302TIP3    H139828   3.945   6.276   6.440
13302TIP3    H239829   3.903   6.131   6.425
13303TIP3   OH239830   3.967   5.694   5.084
13303TIP3    H139831   3.954   5.691   5.181
13303TIP3    H239832   3.887   5.744   5.057
13304TIP3   OH239833   3.506   5.733   5.959
13304TIP3    H139834   3.584   5.765   6.009
13304TIP3    H239835   3.543   5.702   5.875
13305TIP3   OH239836   3.471   5.714   5.475
13305TIP3    H139837   3.517   5.750   5.395
13305TIP3    H239838   3.409   5.787   5.492
13306TIP3   OH239839   4.632   6.427   6.065
13306TIP3    H139840   4.667   6.357   6.006
13306TIP3    H239841   4.602   6.372   6.141
13307TIP3   OH239842   4.314   5.891   5.740
13307TIP3    H139843   4.232   5.890   5.793
13307TIP3    H239844   4.382   5.885   5.808
13308TIP3   OH239845   3.740   5.950   5.747
13308TIP3    H139846   3.646   5.957   5.718
13308TIP3    H239847   3.763   5.858   5.725
13309TIP3   OH239848   4.004   5.945   5.439
13309TIP3    H139849   4.098   5.958   5.416
13309TIP3    H239850   3.957   5.966   5.355
13310TIP3   OH239851   4.797   5.968   5.944
13310TIP3    H139852   4.764   5.982   6.036
13310TIP3    H239853   4.729   5.908   5.910
13311TIP3   OH239854   3.856   5.982   5.214
13311TIP3    H139855   3.786   5.934   5.166
13311TIP3    H239856   3.908   6.018   5.139
13312TIP3   OH239857   4.973   7.657   6.165
13312TIP3    H139858   4.970   7.685   6.071
13312TIP3    H239859   5.052   7.705   6.197
13313TIP3   OH239860   3.925   6.768   6.581
13313TIP3    H139861   4.005   6.798   6.628
13313TIP3    H239862   3.860   6.767   6.654
13314TIP3   OH239863   4.388   6.224   5.838
13314TIP3    H139864   4.461   6.184   5.788
13314TIP3    H239865   4.394   6.178   5.923
13315TIP3   OH239866   3.907   5.707   5.723
13315TIP3    H139867   3.870   5.631   5.772
13315TIP3    H239868   3.948   5.663   5.647
13316TIP3   OH239869   4.365   6.122   6.127
13316TIP3    H139870   4.274   6.156   6.141
13316TIP3    H239871   4.421   6.184   6.177
13317TIP3   OH239872   4.101   6.507   5.221
13317TIP3    H139873   4.028   6.442   5.209
13317TIP3    H239874   4.080   6.541   5.312
13318TIP3   OH239875   5.000   6.744   5.847
13318TIP3    H139876   5.025   6.796   5.767
13318TIP3    H239877   4.916   6.702   5.819
13319TIP3   OH239878   4.558   5.818   5.091
13319TIP3    H139879   4.462   5.796   5.099
13319TIP3    H239880   4.562   5.912   5.115
13320TIP3   OH239881   4.495   6.825   6.221
13320TIP3    H139882   4.536   6.814   6.308
13320TIP3    H239883   4.462   6.916   6.224
13321TIP3   OH239884   4.626   6.070   5.193
13321TIP3    H139885   4.722   6.076   5.207
13321TIP3    H239886   4.606   6.150   5.141
13322TIP3   OH239887   3.796   6.534   5.895
13322TIP3    H139888   3.833   6.505   5.809
13322TIP3    H239889   3.842   6.475   5.956
13323TIP3   OH239890   4.248   6.658   5.048
13323TIP3    H139891   4.198   6.743   5.050
13323TIP3    H239892   4.193   6.603   5.108
13324TIP3   OH239893   3.677   6.450   6.512
13324TIP3    H139894   3.691   6.434   6.607
13324TIP3    H239895   3.607   6.386   6.491
13325TIP3   OH239896   4.404   6.566   6.533
13325TIP3    H139897   4.342   6.509   6.484
13325TIP3    H239898   4.490   6.531   6.502
13326TIP3   OH239899   4.659   7.083   6.120
13326TIP3    H139900   4.562   7.087   6.132
13326TIP3    H239901   4.688   7.138   6.196
13327TIP3   OH239902   5.069   6.162   5.024
13327TIP3    H139903   5.007   6.119   4.960
13327TIP3    H239904   5.065   6.253   4.986
13328TIP3   OH239905   5.290   7.021   6.103
13328TIP3    H139906   5.192   7.013   6.095
13328TIP3    H239907   5.316   6.989   6.014
13329TIP3   OH239908   4.775   6.979   4.935
13329TIP3    H139909   4.743   6.912   4.997
13329TIP3    H239910   4.784   6.931   4.852
13330TIP3   OH239911   4.765   6.609   5.762
13330TIP3    H139912   4.672   6.584   5.776
13330TIP3    H239913   4.800   6.527   5.721
13331TIP3   OH239914   3.898   6.838   5.526
13331TIP3    H139915   3.895   6.918   5.470
13331TIP3    H239916   3.805   6.817   5.534
13332TIP3   OH239917   3.462   6.138   5.231
13332TIP3    H139918   3.506   6.223   5.253
13332TIP3    H239919   3.384   6.141   5.291
13333TIP3   OH239920   4.026   6.598   5.464
13333TIP3    H139921   3.994   6.689   5.485
13333TIP3    H239922   3.992   6.548   5.540
13334TIP3   OH239923   4.167   7.177   5.990
13334TIP3    H139924   4.209   7.251   5.940
13334TIP3    H239925   4.244   7.141   6.037
13335TIP3   OH239926   3.813   7.076   5.375
13335TIP3    H139927   3.728   7.085   5.422
13335TIP3    H239928   3.846   7.168   5.378
13336TIP3   OH239929   4.549   6.814   5.953
13336TIP3    H139930   4.538   6.810   6.050
13336TIP3    H239931   4.629   6.762   5.941
13337TIP3   OH239932   4.530   6.710   4.835
13337TIP3    H139933   4.583   6.684   4.914
13337TIP3    H239934   4.442   6.679   4.862
13338TIP3   OH239935   4.800   7.342   5.999
13338TIP3    H139936   4.718   7.290   5.992
13338TIP3    H239937   4.786   7.408   5.928
13339TIP3   OH239938   4.868   7.180   4.652
13339TIP3    H139939   4.903   7.256   4.603
13339TIP3    H239940   4.786   7.221   4.688
13340TIP3   OH239941   3.882   5.958   6.516
13340TIP3    H139942   3.785   5.960   6.525
13340TIP3    H239943   3.907   5.898   6.588
13341TIP3   OH239944   4.692   6.638   5.047
13341TIP3    H139945   4.680   6.573   5.119
13341TIP3    H239946   4.789   6.635   5.036
13342TIP3   OH239947   3.601   7.040   6.150
13342TIP3    H139948   3.657   6.969   6.186
13342TIP3    H239949   3.631   7.115   6.203
13343TIP3   OH239950   3.891   6.686   4.835
13343TIP3    H139951   3.904   6.593   4.809
13343TIP3    H239952   3.870   6.676   4.930
13344TIP3   OH239953   3.834   6.692   5.107
13344TIP3    H139954   3.911   6.664   5.159
13344TIP3    H239955   3.839   6.790   5.116
13345TIP3   OH239956   3.570   6.383   5.312
13345TIP3    H139957   3.503   6.428   5.367
13345TIP3    H239958   3.584   6.451   5.243
13346TIP3   OH239959   4.726   6.022   6.204
13346TIP3    H139960   4.808   6.061   6.239
13346TIP3    H239961   4.716   5.941   6.259
13347TIP3   OH239962   4.608   5.767   5.372
13347TIP3    H139963   4.592   5.789   5.279
13347TIP3    H239964   4.647   5.850   5.407
13348TIP3   OH239965   4.105   6.887   5.054
13348TIP3    H139966   4.018   6.911   5.091
13348TIP3    H239967   4.120   6.962   4.996
13349TIP3   OH239968   4.290   5.954   5.471
13349TIP3    H139969   4.353   6.027   5.454
13349TIP3    H239970   4.296   5.945   5.568
13350TIP3   OH239971   4.563   6.267   6.274
13350TIP3    H139972   4.590   6.318   6.353
13350TIP3    H239973   4.616   6.186   6.282
13351TIP3   OH239974   4.432   5.673   5.570
13351TIP3    H139975   4.421   5.753   5.625
13351TIP3    H239976   4.497   5.705   5.503
13352TIP3   OH239977   3.851   6.964   5.125
13352TIP3    H139978   3.821   7.035   5.063
13352TIP3    H239979   3.835   7.007   5.212
13353TIP3   OH239980   3.948   5.679   5.360
13353TIP3    H139981   3.945   5.768   5.399
13353TIP3    H239982   4.044   5.661   5.367
13354TIP3   OH239983   5.208   6.181   6.250
13354TIP3    H139984   5.111   6.166   6.251
13354TIP3    H239985   5.224   6.191   6.154
13355TIP3   OH239986   4.860   6.361   5.648
13355TIP3    H139987   4.784   6.302   5.663
13355TIP3    H239988   4.932   6.314   5.695
13356TIP3   OH239989   3.568   6.587   5.114
13356TIP3    H139990   3.642   6.651   5.123
13356TIP3    H239991   3.609   6.527   5.047
13357TIP3   OH239992   3.507   5.867   5.251
13357TIP3    H139993   3.507   5.965   5.248
13357TIP3    H239994   3.432   5.845   5.195
13358TIP3   OH239995   4.823   7.322   5.591
13358TIP3    H139996   4.780   7.369   5.516
13358TIP3    H239997   4.917   7.340   5.571
13359TIP3   OH239998   3.898   5.588   6.119
13359TIP3    H139999   3.868   5.554   6.032
13359TIP3    H240000   3.887   5.510   6.176
13360TIP3   OH240001   3.434   6.809   5.497
13360TIP3    H140002   3.370   6.837   5.564
13360TIP3    H240003   3.398   6.853   5.416
13361TIP3   OH240004   3.598   7.358   6.573
13361TIP3    H140005   3.684   7.361   6.621
13361TIP3    H240006   3.582   7.262   6.572
13362TIP3   OH240007   4.068   7.306   6.622
13362TIP3    H140008   4.165   7.299   6.624
13362TIP3    H240009   4.047   7.245   6.549
13363TIP3   OH240010   4.054   6.888   4.743
13363TIP3    H140011   4.001   6.815   4.782
13363TIP3    H240012   4.130   6.838   4.707
13364TIP3   OH240013   4.712   7.221   6.353
13364TIP3    H140014   4.707   7.152   6.423
13364TIP3    H240015   4.789   7.273   6.381
13365TIP3   OH240016   4.490   6.926   4.659
13365TIP3    H140017   4.529   6.859   4.719
13365TIP3    H240018   4.549   6.922   4.581
13366TIP3   OH240019   3.724   6.757   6.774
13366TIP3    H140020   3.739   6.660   6.778
13366TIP3    H240021   3.637   6.760   6.728
13367TIP3   OH240022   3.703   6.401   4.970
13367TIP3    H140023   3.760   6.371   5.043
13367TIP3    H240024   3.769   6.407   4.898
13368TIP3   OH240025   4.330   6.843   6.549
13368TIP3    H140026   4.291   6.867   6.462
13368TIP3    H240027   4.361   6.752   6.534
13369TIP3   OH240028   4.221   6.605   4.778
13369TIP3    H140029   4.220   6.616   4.876
13369TIP3    H240030   4.221   6.507   4.771
13370TIP3   OH240031   4.823   6.858   6.156
13370TIP3    H140032   4.900   6.896   6.111
13370TIP3    H240033   4.756   6.927   6.139
13371TIP3   OH240034   3.843   6.496   6.760
13371TIP3    H140035   3.921   6.450   6.726
13371TIP3    H240036   3.875   6.526   6.848
13372TIP3   OH240037   3.906   6.312   5.186
13372TIP3    H140038   3.880   6.270   5.269
13372TIP3    H240039   3.945   6.237   5.137
13373TIP3   OH240040   4.180   6.374   6.420
13373TIP3    H140041   4.101   6.433   6.420
13373TIP3    H240042   4.230   6.409   6.342
13374TIP3   OH240043   4.012   6.109   5.028
13374TIP3    H140044   3.987   6.115   4.933
13374TIP3    H240045   4.110   6.110   5.021
13375TIP3   OH240046   4.697   6.777   6.550
13375TIP3    H140047   4.773   6.746   6.499
13375TIP3    H240048   4.692   6.710   6.621
13376TIP3   OH240049   4.832   6.433   4.696
13376TIP3    H140050   4.810   6.390   4.611
13376TIP3    H240051   4.798   6.523   4.676
13377TIP3   OH240052   4.304   6.165   6.542
13377TIP3    H140053   4.304   6.087   6.483
13377TIP3    H240054   4.260   6.233   6.486
13378TIP3   OH240055   4.306   5.953   6.353
13378TIP3    H140056   4.334   5.993   6.268
13378TIP3    H240057   4.213   5.929   6.333
13379TIP3   OH240058   4.328   6.485   6.226
13379TIP3    H140059   4.414   6.499   6.185
13379TIP3    H240060   4.272   6.551   6.179
13380TIP3   OH240061   4.913   6.452   6.602
13380TIP3    H140062   4.961   6.368   6.605
13380TIP3    H240063   4.979   6.511   6.563
13381TIP3   OH240064   4.950   6.709   6.342
13381TIP3    H140065   4.894   6.765   6.283
13381TIP3    H240066   5.038   6.728   6.304
13382TIP3   OH240067   4.184   6.269   6.780
13382TIP3    H140068   4.115   6.200   6.793
13382TIP3    H240069   4.214   6.248   6.689
13383TIP3   OH240070   4.437   5.714   6.424
13383TIP3    H140071   4.387   5.794   6.398
13383TIP3    H240072   4.369   5.644   6.410
13384TIP3   OH240073   4.563   6.213   6.636
13384TIP3    H140074   4.544   6.198   6.730
13384TIP3    H240075   4.474   6.191   6.598
13385TIP3   OH240076   4.803   6.171   6.491
13385TIP3    H140077   4.728   6.169   6.553
13385TIP3    H240078   4.877   6.139   6.547
13386TIP3   OH240079   5.030   6.110   6.642
13386TIP3    H140080   5.044   6.014   6.655
13386TIP3    H240081   5.028   6.144   6.734
13387TIP3   OH240082   4.020   6.051   6.832
13387TIP3    H140083   4.021   5.959   6.797
13387TIP3    H240084   4.057   6.036   6.922
13388TIP3   OH240085   4.528   5.721   6.682
13388TIP3    H140086   4.594   5.650   6.673
13388TIP3    H240087   4.489   5.719   6.592
13389TIP3   OH240088   4.597   5.935   6.839
13389TIP3    H140089   4.576   5.864   6.774
13389TIP3    H240090   4.519   5.994   6.830
13390TIP3   OH240091   3.821   7.168   4.938
13390TIP3    H140092   3.916   7.157   4.918
13390TIP3    H240093   3.794   7.219   4.859
13391TIP3   OH240094   3.298   6.549   5.150
13391TIP3    H140095   3.393   6.569   5.135
13391TIP3    H240096   3.291   6.460   5.109
13392TIP3   OH240097   3.214   7.159   5.570
13392TIP3    H140098   3.149   7.097   5.529
13392TIP3    H240099   3.259   7.099   5.633
13393TIP3   OH240100   3.347   7.004   5.755
13393TIP3    H140101   3.337   6.935   5.822
13393TIP3    H240102   3.402   7.068   5.805
13394TIP3   OH240103   5.081   7.404   5.556
13394TIP3    H140104   5.100   7.439   5.645
13394TIP3    H240105   5.138   7.458   5.500
13395TIP3   OH240106   5.102   7.429   5.836
13395TIP3    H140107   5.060   7.341   5.834
13395TIP3    H240108   5.177   7.410   5.894
13396TIP3   OH240109   5.153   7.107   6.410
13396TIP3    H140110   5.080   7.118   6.475
13396TIP3    H240111   5.195   7.195   6.412
13397TIP3   OH240112   4.970   6.619   5.027
13397TIP3    H140113   5.037   6.685   4.998
13397TIP3    H240114   5.014   6.581   5.106
13398TIP3   OH240115   5.095   6.486   5.233
13398TIP3    H140116   5.027   6.444   5.289
13398TIP3    H240117   5.157   6.522   5.299
13399TIP3   OH240118   5.152   6.886   5.664
13399TIP3    H140119   5.207   6.816   5.623
13399TIP3    H240120   5.149   6.954   5.594
13400TIP3   OH240121   4.979   7.179   5.857
13400TIP3    H140122   4.907   7.223   5.908
13400TIP3    H240123   4.929   7.134   5.786
13401TIP3   OH240124   5.033   6.396   4.876
13401TIP3    H140125   4.961   6.398   4.809
13401TIP3    H240126   5.005   6.472   4.932
13402TIP3   OH240127   4.907   6.065   4.827
13402TIP3    H140128   4.857   6.104   4.754
13402TIP3    H240129   4.885   5.970   4.816
13403TIP3   OH240130   4.906   6.347   5.377
13403TIP3    H140131   4.915   6.250   5.369
13403TIP3    H240132   4.894   6.359   5.474
13404TIP3   OH240133   3.532   6.418   6.127
13404TIP3    H140134   3.530   6.383   6.035
13404TIP3    H240135   3.630   6.420   6.142
13405TIP3   OH240136   5.197   6.771   6.237
13405TIP3    H140137   5.268   6.703   6.225
13405TIP3    H240138   5.220   6.837   6.170
13406TIP3   OH240139   5.382   6.573   6.245
13406TIP3    H140140   5.307   6.522   6.281
13406TIP3    H240141   5.456   6.512   6.268
13407TIP3   OH240142   4.851   5.795   4.802
13407TIP3    H140143   4.917   5.768   4.869
13407TIP3    H240144   4.770   5.747   4.829
13408TIP3   OH240145   4.907   6.063   5.268
13408TIP3    H140146   4.948   5.974   5.283
13408TIP3    H240147   4.965   6.096   5.197
13409TIP3   OH240148   5.083   6.222   5.765
13409TIP3    H140149   5.178   6.222   5.742
13409TIP3    H240150   5.088   6.270   5.851
13410TIP3   OH240151   5.111   6.372   5.993
13410TIP3    H140152   5.043   6.421   6.043
13410TIP3    H240153   5.173   6.443   5.966
13411TIP3   OH240154   3.753   6.104   6.804
13411TIP3    H140155   3.851   6.097   6.805
13411TIP3    H240156   3.729   6.016   6.839
13412TIP3   OH240157   5.589   5.976   6.551
13412TIP3    H140158   5.648   5.912   6.507
13412TIP3    H240159   5.556   6.028   6.474
13413TIP3   OH240160   5.016   5.812   5.307
13413TIP3    H140161   5.062   5.796   5.392
13413TIP3    H240162   4.954   5.737   5.306
13414TIP3   OH240163   3.715   5.798   6.132
13414TIP3    H140164   3.775   5.721   6.138
13414TIP3    H240165   3.778   5.871   6.121
13415TIP3   OH240166   3.514   6.070   6.201
13415TIP3    H140167   3.563   6.063   6.116
13415TIP3    H240168   3.546   6.154   6.234
13416TIP3   OH240169   5.456   6.111   6.355
13416TIP3    H140170   5.371   6.159   6.364
13416TIP3    H240171   5.427   6.039   6.296
13417TIP3   OH240172   5.091   5.741   4.946
13417TIP3    H140173   5.130   5.672   4.888
13417TIP3    H240174   5.157   5.813   4.941
13418TIP3   OH240175   3.501   5.580   5.707
13418TIP3    H140176   3.408   5.568   5.731
13418TIP3    H240177   3.494   5.635   5.626
13419TIP3   OH240178   4.657   7.278   5.208
13419TIP3    H140179   4.713   7.271   5.127
13419TIP3    H240180   4.706   7.345   5.260
13420TIP3   OH240181   3.722   5.657   6.519
13420TIP3    H140182   3.668   5.649   6.599
13420TIP3    H240183   3.657   5.693   6.455
13421TIP3   OH240184   3.759   7.084   6.590
13421TIP3    H140185   3.666   7.060   6.576
13421TIP3    H240186   3.770   7.068   6.684
13422TIP3   OH240187   3.941   7.119   6.141
13422TIP3    H140188   3.895   7.196   6.102
13422TIP3    H240189   4.027   7.131   6.095
13423TIP3   OH240190   4.378   7.359   6.277
13423TIP3    H140191   4.420   7.359   6.365
13423TIP3    H240192   4.444   7.411   6.226
13424TIP3   OH240193   4.559   7.514   6.141
13424TIP3    H140194   4.631   7.465   6.098
13424TIP3    H240195   4.611   7.571   6.202
13425TIP3   OH240196   5.357   5.872   6.239
13425TIP3    H140197   5.269   5.869   6.199
13425TIP3    H240198   5.389   5.780   6.224
13426TIP3   OH240199   3.613   7.372   6.168
13426TIP3    H140200   3.522   7.405   6.147
13426TIP3    H240201   3.632   7.423   6.248
13427TIP3   OH240202   3.850   7.351   6.025
13427TIP3    H140203   3.762   7.363   6.067
13427TIP3    H240204   3.832   7.382   5.934
13428TIP3   OH240205   4.275   7.376   5.824
13428TIP3    H140206   4.207   7.395   5.757
13428TIP3    H240207   4.288   7.464   5.865
13429TIP3   OH240208   4.546   7.314   5.876
13429TIP3    H140209   4.452   7.335   5.855
13429TIP3    H240210   4.592   7.387   5.831
13430TIP3   OH240211   4.746   7.504   5.786
13430TIP3    H140212   4.736   7.590   5.739
13430TIP3    H240213   4.775   7.445   5.712
13431TIP3   OH240214   3.524   7.163   5.911
13431TIP3    H140215   3.553   7.135   6.000
13431TIP3    H240216   3.596   7.122   5.858
13432TIP3   OH240217   3.721   7.039   5.771
13432TIP3    H140218   3.736   6.955   5.819
13432TIP3    H240219   3.812   7.075   5.767
13433TIP3   OH240220   3.989   7.129   5.776
13433TIP3    H140221   4.018   7.036   5.765
13433TIP3    H240222   4.039   7.152   5.857
13434TIP3   OH240223   4.564   5.787   5.863
13434TIP3    H140224   4.520   5.714   5.911
13434TIP3    H240225   4.636   5.741   5.815
13435TIP3   OH240226   5.082   5.668   5.761
13435TIP3    H140227   5.117   5.721   5.686
13435TIP3    H240228   4.986   5.688   5.756
13436TIP3   OH240229   5.179   5.765   5.525
13436TIP3    H140230   5.254   5.714   5.488
13436TIP3    H240231   5.211   5.857   5.509
13437TIP3   OH240232   3.809   5.494   5.873
13437TIP3    H140233   3.716   5.462   5.875
13437TIP3    H240234   3.856   5.408   5.868
13438TIP3   OH240235   3.605   5.368   5.527
13438TIP3    H140236   3.631   5.422   5.450
13438TIP3    H240237   3.575   5.435   5.591
13439TIP3   OH240238   4.258   5.526   5.754
13439TIP3    H140239   4.313   5.573   5.690
13439TIP3    H240240   4.286   5.566   5.838
13440TIP3   OH240241   4.798   5.675   5.736
13440TIP3    H140242   4.798   5.632   5.650
13440TIP3    H240243   4.788   5.598   5.796
13441TIP3   OH240244   4.831   5.601   5.302
13441TIP3    H140245   4.746   5.645   5.321
13441TIP3    H240246   4.817   5.515   5.347
13442TIP3   OH240247   3.313   6.943   5.297
13442TIP3    H140248   3.227   6.909   5.265
13442TIP3    H240249   3.304   7.036   5.268
13443TIP3   OH240250   3.718   5.523   5.284
13443TIP3    H140251   3.764   5.459   5.226
13443TIP3    H240252   3.792   5.575   5.318
13444TIP3   OH240253   4.224   5.704   5.382
13444TIP3    H140254   4.283   5.655   5.441
13444TIP3    H240255   4.247   5.796   5.408
13445TIP3   OH240256   4.087   7.120   4.884
13445TIP3    H140257   4.174   7.144   4.847
13445TIP3    H240258   4.064   7.046   4.823
13446TIP3   OH240259   4.809   7.247   4.977
13446TIP3    H140260   4.801   7.149   4.967
13446TIP3    H240261   4.761   7.277   4.898
13447TIP3   OH240262   4.016   5.777   6.768
13447TIP3    H140263   3.981   5.704   6.822
13447TIP3    H240264   4.110   5.776   6.794
13448TIP3   OH240265   4.269   5.776   6.884
13448TIP3    H140266   4.352   5.750   6.841
13448TIP3    H240267   4.257   5.703   6.949
13449TIP3   OH240268   3.390   6.960   4.936
13449TIP3    H140269   3.396   6.976   5.031
13449TIP3    H240270   3.477   6.916   4.918
13450TIP3   OH240271   5.096   5.839   6.669
13450TIP3    H140272   5.114   5.808   6.760
13450TIP3    H240273   5.185   5.833   6.628
13451TIP3   OH240274   5.029   7.387   6.161
13451TIP3    H140275   4.951   7.359   6.111
13451TIP3    H240276   5.011   7.484   6.168
13452TIP3   OH240277   6.296   6.758   4.926
13452TIP3    H140278   6.266   6.850   4.909
13452TIP3    H240279   6.223   6.708   4.884
13453TIP3   OH240280   6.288   6.762   5.319
13453TIP3    H140281   6.332   6.746   5.405
13453TIP3    H240282   6.258   6.672   5.296
13454TIP3   OH240283   5.598   6.669   5.665
13454TIP3    H140284   5.616   6.584   5.712
13454TIP3    H240285   5.660   6.726   5.714
13455TIP3   OH240286   6.542   7.065   4.997
13455TIP3    H140287   6.533   7.000   5.068
13455TIP3    H240288   6.574   7.144   5.045
13456TIP3   OH240289   5.567   7.063   5.392
13456TIP3    H140290   5.557   6.967   5.396
13456TIP3    H240291   5.664   7.072   5.397
13457TIP3   OH240292   5.280   6.266   5.181
13457TIP3    H140293   5.231   6.347   5.203
13457TIP3    H240294   5.209   6.214   5.140
13458TIP3   OH240295   5.325   6.556   5.368
13458TIP3    H140296   5.379   6.482   5.404
13458TIP3    H240297   5.377   6.583   5.292
13459TIP3   OH240298   6.192   7.525   5.010
13459TIP3    H140299   6.233   7.451   4.960
13459TIP3    H240300   6.186   7.488   5.099
13460TIP3   OH240301   6.098   6.981   5.352
13460TIP3    H140302   6.150   6.904   5.322
13460TIP3    H240303   6.174   7.037   5.379
13461TIP3   OH240304   7.118   6.303   5.358
13461TIP3    H140305   7.140   6.386   5.404
13461TIP3    H240306   7.136   6.327   5.265
13462TIP3   OH240307   6.507   6.484   5.387
13462TIP3    H140308   6.550   6.400   5.409
13462TIP3    H240309   6.475   6.465   5.296
13463TIP3   OH240310   5.849   6.159   5.332
13463TIP3    H140311   5.787   6.222   5.292
13463TIP3    H240312   5.806   6.076   5.303
13464TIP3   OH240313   6.546   6.241   4.975
13464TIP3    H140314   6.618   6.227   5.041
13464TIP3    H240315   6.598   6.275   4.900
13465TIP3   OH240316   5.493   6.366   5.459
13465TIP3    H140317   5.551   6.338   5.532
13465TIP3    H240318   5.495   6.285   5.404
13466TIP3   OH240319   5.934   6.552   5.222
13466TIP3    H140320   6.027   6.537   5.251
13466TIP3    H240321   5.893   6.469   5.253
13467TIP3   OH240322   7.171   6.507   5.537
13467TIP3    H140323   7.095   6.565   5.514
13467TIP3    H240324   7.220   6.563   5.601
13468TIP3   OH240325   5.843   6.131   5.790
13468TIP3    H140326   5.776   6.167   5.728
13468TIP3    H240327   5.799   6.151   5.876
13469TIP3   OH240328   6.166   6.972   4.800
13469TIP3    H140329   6.151   6.975   4.705
13469TIP3    H240330   6.134   7.061   4.827
13470TIP3   OH240331   5.948   6.908   5.581
13470TIP3    H140332   5.887   6.975   5.620
13470TIP3    H240333   5.992   6.960   5.511
13471TIP3   OH240334   6.747   6.243   5.160
13471TIP3    H140335   6.721   6.215   5.249
13471TIP3    H240336   6.800   6.323   5.180
13472TIP3   OH240337   5.735   6.259   5.573
13472TIP3    H140338   5.802   6.327   5.592
13472TIP3    H240339   5.775   6.210   5.499
13473TIP3   OH240340   5.779   7.104   5.679
13473TIP3    H140341   5.756   7.194   5.647
13473TIP3    H240342   5.699   7.086   5.734
13474TIP3   OH240343   5.173   6.789   4.917
13474TIP3    H140344   5.129   6.815   4.834
13474TIP3    H240345   5.201   6.877   4.952
13475TIP3   OH240346   6.607   7.308   5.153
13475TIP3    H140347   6.517   7.300   5.193
13475TIP3    H240348   6.601   7.396   5.111
13476TIP3   OH240349   6.906   6.197   5.517
13476TIP3    H140350   6.821   6.234   5.489
13476TIP3    H240351   6.968   6.236   5.452
13477TIP3   OH240352   6.198   5.850   5.511
13477TIP3    H140353   6.176   5.756   5.521
13477TIP3    H240354   6.121   5.892   5.557
13478TIP3   OH240355   6.306   7.349   4.825
13478TIP3    H140356   6.356   7.267   4.806
13478TIP3    H240357   6.369   7.415   4.789
13479TIP3   OH240358   6.448   7.131   4.745
13479TIP3    H140359   6.440   7.048   4.695
13479TIP3    H240360   6.488   7.100   4.829
13480TIP3   OH240361   6.836   7.216   5.505
13480TIP3    H140362   6.826   7.140   5.444
13480TIP3    H240363   6.818   7.292   5.446
13481TIP3   OH240364   6.126   6.614   4.760
13481TIP3    H140365   6.053   6.671   4.731
13481TIP3    H240366   6.179   6.605   4.678
13482TIP3   OH240367   6.087   6.401   4.473
13482TIP3    H140368   6.156   6.453   4.519
13482TIP3    H240369   6.144   6.337   4.425
13483TIP3   OH240370   7.016   6.835   5.328
13483TIP3    H140371   6.945   6.901   5.340
13483TIP3    H240372   7.064   6.874   5.252
13484TIP3   OH240373   6.477   6.695   4.730
13484TIP3    H140374   6.424   6.719   4.810
13484TIP3    H240375   6.562   6.671   4.771
13485TIP3   OH240376   6.708   6.732   5.651
13485TIP3    H140377   6.709   6.816   5.700
13485TIP3    H240378   6.623   6.740   5.603
13486TIP3   OH240379   5.843   7.104   5.296
13486TIP3    H140380   5.831   7.088   5.202
13486TIP3    H240381   5.932   7.066   5.313
13487TIP3   OH240382   5.855   6.673   5.479
13487TIP3    H140383   5.917   6.659   5.406
13487TIP3    H240384   5.889   6.754   5.522
13488TIP3   OH240385   6.368   7.302   5.279
13488TIP3    H140386   6.356   7.385   5.329
13488TIP3    H240387   6.352   7.233   5.347
13489TIP3   OH240388   5.983   7.218   5.828
13489TIP3    H140389   5.922   7.280   5.874
13489TIP3    H240390   5.919   7.166   5.777
13490TIP3   OH240391   6.310   6.557   4.559
13490TIP3    H140392   6.373   6.616   4.608
13490TIP3    H240393   6.338   6.575   4.466
13491TIP3   OH240394   5.734   6.779   5.921
13491TIP3    H140395   5.741   6.865   5.967
13491TIP3    H240396   5.644   6.752   5.948
13492TIP3   OH240397   6.061   7.228   4.834
13492TIP3    H140398   6.145   7.278   4.840
13492TIP3    H240399   6.002   7.292   4.793
13493TIP3   OH240400   5.777   7.382   5.915
13493TIP3    H140401   5.741   7.390   5.826
13493TIP3    H240402   5.697   7.361   5.969
13494TIP3   OH240403   6.833   5.791   4.609
13494TIP3    H140404   6.750   5.815   4.656
13494TIP3    H240405   6.849   5.873   4.557
13495TIP3   OH240406   6.633   7.160   4.156
13495TIP3    H140407   6.641   7.256   4.140
13495TIP3    H240408   6.725   7.130   4.143
13496TIP3   OH240409   5.356   6.917   5.862
13496TIP3    H140410   5.286   6.898   5.795
13496TIP3    H240411   5.391   6.828   5.882
13497TIP3   OH240412   5.209   7.115   5.489
13497TIP3    H140413   5.305   7.117   5.491
13497TIP3    H240414   5.188   7.192   5.545
13498TIP3   OH240415   7.071   7.572   5.545
13498TIP3    H140416   7.075   7.475   5.561
13498TIP3    H240417   6.987   7.593   5.593
13499TIP3   OH240418   6.178   7.347   5.684
13499TIP3    H140419   6.175   7.440   5.716
13499TIP3    H240420   6.107   7.307   5.739
13500TIP3   OH240421   5.945   7.474   4.638
13500TIP3    H140422   5.897   7.461   4.554
13500TIP3    H240423   5.912   7.561   4.667
13501TIP3   OH240424   5.381   7.325   5.021
13501TIP3    H140425   5.427   7.319   5.107
13501TIP3    H240426   5.324   7.247   5.024
13502TIP3   OH240427   6.142   7.380   4.273
13502TIP3    H140428   6.201   7.310   4.238
13502TIP3    H240429   6.178   7.391   4.364
13503TIP3   OH240430   6.195   7.429   4.542
13503TIP3    H140431   6.107   7.438   4.585
13503TIP3    H240432   6.249   7.398   4.616
13504TIP3   OH240433   6.954   6.684   5.822
13504TIP3    H140434   6.875   6.701   5.769
13504TIP3    H240435   6.967   6.588   5.811
13505TIP3   OH240436   5.559   7.100   5.841
13505TIP3    H140437   5.607   7.088   5.926
13505TIP3    H240438   5.485   7.037   5.851
13506TIP3   OH240439   5.964   5.931   5.638
13506TIP3    H140440   5.877   5.895   5.609
13506TIP3    H240441   5.931   6.010   5.687
13507TIP3   OH240442   6.494   6.038   5.831
13507TIP3    H140443   6.561   6.011   5.897
13507TIP3    H240444   6.409   6.021   5.877
13508TIP3   OH240445   6.727   6.468   5.744
13508TIP3    H140446   6.678   6.468   5.829
13508TIP3    H240447   6.708   6.557   5.709
13509TIP3   OH240448   6.393   6.594   4.306
13509TIP3    H140449   6.356   6.573   4.218
13509TIP3    H240450   6.477   6.637   4.280
13510TIP3   OH240451   6.104   5.971   4.607
13510TIP3    H140452   6.066   5.967   4.697
13510TIP3    H240453   6.063   5.891   4.569
13511TIP3   OH240454   5.902   6.461   5.652
13511TIP3    H140455   5.841   6.469   5.729
13511TIP3    H240456   5.875   6.539   5.598
13512TIP3   OH240457   5.735   6.368   5.126
13512TIP3    H140458   5.657   6.322   5.166
13512TIP3    H240459   5.762   6.299   5.061
13513TIP3   OH240460   6.265   6.412   4.896
13513TIP3    H140461   6.217   6.484   4.849
13513TIP3    H240462   6.322   6.377   4.824
13514TIP3   OH240463   6.438   6.686   5.976
13514TIP3    H140464   6.416   6.615   6.041
13514TIP3    H240465   6.531   6.704   6.000
13515TIP3   OH240466   6.419   6.437   5.132
13515TIP3    H140467   6.358   6.467   5.061
13515TIP3    H240468   6.456   6.358   5.086
13516TIP3   OH240469   5.703   6.473   5.841
13516TIP3    H140470   5.716   6.513   5.928
13516TIP3    H240471   5.653   6.393   5.864
13517TIP3   OH240472   5.764   5.951   4.571
13517TIP3    H140473   5.750   5.946   4.667
13517TIP3    H240474   5.684   6.000   4.543
13518TIP3   OH240475   5.295   5.987   5.427
13518TIP3    H140476   5.371   6.019   5.481
13518TIP3    H240477   5.339   5.952   5.348
13519TIP3   OH240478   5.267   5.972   4.959
13519TIP3    H140479   5.313   6.010   4.881
13519TIP3    H240480   5.206   6.045   4.980
13520TIP3   OH240481   6.425   6.684   5.548
13520TIP3    H140482   6.462   6.612   5.491
13520TIP3    H240483   6.396   6.631   5.625
13521TIP3   OH240484   6.110   6.147   5.224
13521TIP3    H140485   6.023   6.151   5.271
13521TIP3    H240486   6.173   6.147   5.298
13522TIP3   OH240487   5.544   6.204   5.223
13522TIP3    H140488   5.448   6.218   5.204
13522TIP3    H240489   5.553   6.107   5.213
13523TIP3   OH240490   5.805   6.206   4.922
13523TIP3    H140491   5.900   6.209   4.897
13523TIP3    H240492   5.758   6.222   4.837
13524TIP3   OH240493   6.593   6.221   5.424
13524TIP3    H140494   6.568   6.236   5.518
13524TIP3    H240495   6.519   6.165   5.396
13525TIP3   OH240496   5.654   6.244   4.699
13525TIP3    H140497   5.582   6.193   4.657
13525TIP3    H240498   5.704   6.273   4.620
13526TIP3   OH240499   6.761   7.910   5.648
13526TIP3    H140500   6.761   7.940   5.555
13526TIP3    H240501   6.846   7.948   5.680
13527TIP3   OH240502   5.723   7.024   6.067
13527TIP3    H140503   5.802   7.054   6.117
13527TIP3    H240504   5.657   7.023   6.139
13528TIP3   OH240505   6.179   6.484   5.323
13528TIP3    H140506   6.254   6.442   5.278
13528TIP3    H240507   6.182   6.442   5.411
13529TIP3   OH240508   5.711   5.956   5.210
13529TIP3    H140509   5.667   5.886   5.264
13529TIP3    H240510   5.744   5.903   5.136
13530TIP3   OH240511   6.161   6.385   5.607
13530TIP3    H140512   6.072   6.420   5.628
13530TIP3    H240513   6.219   6.443   5.661
13531TIP3   OH240514   5.889   6.766   4.715
13531TIP3    H140515   5.824   6.692   4.702
13531TIP3    H240516   5.874   6.789   4.808
13532TIP3   OH240517   6.797   7.004   5.335
13532TIP3    H140518   6.826   7.053   5.255
13532TIP3    H240519   6.714   6.962   5.305
13533TIP3   OH240520   6.356   6.070   4.586
13533TIP3    H140521   6.260   6.051   4.588
13533TIP3    H240522   6.360   6.167   4.602
13534TIP3   OH240523   6.288   7.080   5.710
13534TIP3    H140524   6.329   7.071   5.797
13534TIP3    H240525   6.256   7.172   5.711
13535TIP3   OH240526   6.423   6.328   4.680
13535TIP3    H140527   6.519   6.332   4.693
13535TIP3    H240528   6.405   6.407   4.626
13536TIP3   OH240529   5.606   6.777   5.400
13536TIP3    H140530   5.698   6.746   5.402
13536TIP3    H240531   5.576   6.738   5.484
13537TIP3   OH240532   6.043   6.914   4.534
13537TIP3    H140533   5.996   7.001   4.534
13537TIP3    H240534   5.989   6.863   4.597
13538TIP3   OH240535   5.477   6.698   5.996
13538TIP3    H140536   5.482   6.683   6.092
13538TIP3    H240537   5.402   6.640   5.972
13539TIP3   OH240538   6.196   6.823   6.020
13539TIP3    H140539   6.129   6.760   5.986
13539TIP3    H240540   6.279   6.785   5.985
13540TIP3   OH240541   6.454   7.335   5.609
13540TIP3    H140542   6.357   7.342   5.620
13540TIP3    H240543   6.485   7.391   5.683
13541TIP3   OH240544   6.862   6.420   4.511
13541TIP3    H140545   6.801   6.376   4.447
13541TIP3    H240546   6.859   6.510   4.471
13542TIP3   OH240547   7.086   7.288   5.587
13542TIP3    H140548   6.989   7.274   5.581
13542TIP3    H240549   7.113   7.253   5.500
13543TIP3   OH240550   6.568   7.237   4.420
13543TIP3    H140551   6.541   7.166   4.480
13543TIP3    H240552   6.582   7.190   4.335
13544TIP3   OH240553   6.563   6.867   5.247
13544TIP3    H140554   6.469   6.844   5.262
13544TIP3    H240555   6.596   6.785   5.206
13545TIP3   OH240556   5.696   7.079   4.997
13545TIP3    H140557   5.697   7.165   4.950
13545TIP3    H240558   5.605   7.079   5.030
13546TIP3   OH240559   5.258   6.395   4.718
13546TIP3    H140560   5.303   6.479   4.743
13546TIP3    H240561   5.180   6.399   4.779
13547TIP3   OH240562   5.805   6.810   4.995
13547TIP3    H140563   5.758   6.889   4.962
13547TIP3    H240564   5.855   6.852   5.067
13548TIP3   OH240565   5.964   7.435   5.476
13548TIP3    H140566   6.006   7.509   5.427
13548TIP3    H240567   6.041   7.401   5.526
13549TIP3   OH240568   5.613   7.328   4.864
13549TIP3    H140569   5.527   7.338   4.909
13549TIP3    H240570   5.646   7.421   4.867
13550TIP3   OH240571   6.344   7.069   5.442
13550TIP3    H140572   6.331   7.067   5.539
13550TIP3    H240573   6.430   7.028   5.433
13551TIP3   OH240574   6.329   6.965   4.324
13551TIP3    H140575   6.381   6.940   4.403
13551TIP3    H240576   6.240   6.937   4.350
13552TIP3   OH240577   6.596   7.598   5.485
13552TIP3    H140578   6.513   7.547   5.477
13552TIP3    H240579   6.583   7.665   5.414
13553TIP3   OH240580   6.663   7.436   4.139
13553TIP3    H140581   6.701   7.512   4.092
13553TIP3    H240582   6.582   7.479   4.174
13554TIP3   OH240583   5.714   6.204   6.020
13554TIP3    H140584   5.625   6.199   5.979
13554TIP3    H240585   5.705   6.142   6.094
13555TIP3   OH240586   6.488   6.900   4.543
13555TIP3    H140587   6.479   6.829   4.609
13555TIP3    H240588   6.585   6.894   4.525
13556TIP3   OH240589   5.402   7.295   5.635
13556TIP3    H140590   5.455   7.230   5.684
13556TIP3    H240591   5.419   7.376   5.686
13557TIP3   OH240592   5.691   6.944   4.322
13557TIP3    H140593   5.704   6.852   4.294
13557TIP3    H240594   5.668   6.934   4.416
13558TIP3   OH240595   5.634   6.948   4.593
13558TIP3    H140596   5.715   6.930   4.642
13558TIP3    H240597   5.631   7.047   4.599
13559TIP3   OH240598   5.369   6.638   4.789
13559TIP3    H140599   5.308   6.676   4.855
13559TIP3    H240600   5.375   6.712   4.726
13560TIP3   OH240601   6.529   6.270   5.684
13560TIP3    H140602   6.603   6.316   5.728
13560TIP3    H240603   6.514   6.193   5.743
13561TIP3   OH240604   6.403   6.024   4.861
13561TIP3    H140605   6.387   6.043   4.767
13561TIP3    H240606   6.442   6.108   4.893
13562TIP3   OH240607   5.900   7.142   4.542
13562TIP3    H140608   5.813   7.169   4.577
13562TIP3    H240609   5.918   7.219   4.484
13563TIP3   OH240610   6.089   6.209   4.956
13563TIP3    H140611   6.154   6.281   4.940
13563TIP3    H240612   6.096   6.200   5.054
13564TIP3   OH240613   6.361   6.525   5.760
13564TIP3    H140614   6.381   6.582   5.837
13564TIP3    H240615   6.412   6.445   5.779
13565TIP3   OH240616   6.229   5.929   5.059
13565TIP3    H140617   6.216   6.010   5.112
13565TIP3    H240618   6.293   5.963   4.991
13566TIP3   OH240619   5.645   7.219   4.612
13566TIP3    H140620   5.617   7.290   4.550
13566TIP3    H240621   5.630   7.262   4.699
13567TIP3   OH240622   5.743   5.935   4.847
13567TIP3    H140623   5.736   6.021   4.891
13567TIP3    H240624   5.839   5.919   4.854
13568TIP3   OH240625   6.994   6.417   5.755
13568TIP3    H140626   6.896   6.412   5.746
13568TIP3    H240627   7.022   6.419   5.662
13569TIP3   OH240628   6.649   6.619   5.132
13569TIP3    H140629   6.574   6.559   5.148
13569TIP3    H240630   6.721   6.575   5.181
13570TIP3   OH240631   5.362   6.847   4.600
13570TIP3    H140632   5.429   6.916   4.611
13570TIP3    H240633   5.405   6.791   4.532
13571TIP3   OH240634   5.306   6.126   4.733
13571TIP3    H140635   5.304   6.223   4.735
13571TIP3    H240636   5.221   6.105   4.693
13572TIP3   OH240637   6.619   7.577   5.078
13572TIP3    H140638   6.577   7.624   5.002
13572TIP3    H240639   6.714   7.597   5.058
13573TIP3   OH240640   5.711   5.838   5.600
13573TIP3    H140641   5.666   5.811   5.517
13573TIP3    H240642   5.687   5.764   5.661
13574TIP3   OH240643   5.226   7.057   4.984
13574TIP3    H140644   5.169   7.089   5.055
13574TIP3    H240645   5.190   7.104   4.906
13575TIP3   OH240646   5.394   7.614   6.059
13575TIP3    H140647   5.479   7.617   6.108
13575TIP3    H240648   5.375   7.519   6.060
13576TIP3   OH240649   5.867   7.563   6.109
13576TIP3    H140650   5.963   7.553   6.110
13576TIP3    H240651   5.843   7.502   6.036
13577TIP3   OH240652   5.852   7.147   4.228
13577TIP3    H140653   5.800   7.072   4.266
13577TIP3    H240654   5.927   7.098   4.188
13578TIP3   OH240655   6.510   7.476   5.837
13578TIP3    H140656   6.505   7.408   5.909
13578TIP3    H240657   6.587   7.530   5.866
13579TIP3   OH240658   6.288   7.183   4.146
13579TIP3    H140659   6.331   7.119   4.206
13579TIP3    H240660   6.345   7.179   4.066
13580TIP3   OH240661   5.520   7.013   6.259
13580TIP3    H140662   5.537   6.917   6.263
13580TIP3    H240663   5.433   7.016   6.214
13581TIP3   OH240664   5.494   6.664   4.445
13581TIP3    H140665   5.544   6.629   4.520
13581TIP3    H240666   5.563   6.665   4.375
13582TIP3   OH240667   6.128   7.102   6.034
13582TIP3    H140668   6.086   7.124   5.948
13582TIP3    H240669   6.157   7.009   6.021
13583TIP3   OH240670   6.018   6.861   4.265
13583TIP3    H140671   6.018   6.873   4.362
13583TIP3    H240672   6.019   6.763   4.259
13584TIP3   OH240673   6.619   7.112   5.642
13584TIP3    H140674   6.697   7.152   5.598
13584TIP3    H240675   6.553   7.183   5.628
13585TIP3   OH240676   5.640   6.756   6.246
13585TIP3    H140677   5.710   6.694   6.221
13585TIP3    H240678   5.671   6.786   6.334
13586TIP3   OH240679   5.721   6.545   4.707
13586TIP3    H140680   5.642   6.492   4.725
13586TIP3    H240681   5.764   6.488   4.639
13587TIP3   OH240682   5.986   6.644   5.913
13587TIP3    H140683   5.900   6.690   5.907
13587TIP3    H240684   6.030   6.670   5.829
13588TIP3   OH240685   5.812   6.372   4.513
13588TIP3    H140686   5.786   6.370   4.419
13588TIP3    H240687   5.910   6.368   4.505
13589TIP3   OH240688   6.491   7.033   6.037
13589TIP3    H140689   6.570   7.005   5.989
13589TIP3    H240690   6.485   6.968   6.109
13590TIP3   OH240691   6.624   6.688   4.186
13590TIP3    H140692   6.606   6.646   4.100
13590TIP3    H240693   6.592   6.779   4.165
13591TIP3   OH240694   6.105   6.424   6.025
13591TIP3    H140695   6.095   6.345   5.968
13591TIP3    H240696   6.059   6.493   5.972
13592TIP3   OH240697   6.102   6.205   5.834
13592TIP3    H140698   6.125   6.249   5.750
13592TIP3    H240699   6.007   6.184   5.820
13593TIP3   OH240700   6.125   6.736   5.700
13593TIP3    H140701   6.213   6.761   5.668
13593TIP3    H240702   6.068   6.806   5.661
13594TIP3   OH240703   6.708   6.710   6.086
13594TIP3    H140704   6.761   6.629   6.090
13594TIP3    H240705   6.772   6.773   6.049
13595TIP3   OH240706   6.753   6.961   5.822
13595TIP3    H140707   6.696   7.018   5.766
13595TIP3    H240708   6.841   6.982   5.785
13596TIP3   OH240709   5.983   6.525   6.265
13596TIP3    H140710   5.915   6.456   6.281
13596TIP3    H240711   6.010   6.505   6.173
13597TIP3   OH240712   6.230   5.968   5.908
13597TIP3    H140713   6.182   6.050   5.883
13597TIP3    H240714   6.160   5.901   5.897
13598TIP3   OH240715   6.361   6.468   6.122
13598TIP3    H140716   6.338   6.455   6.216
13598TIP3    H240717   6.273   6.448   6.083
13599TIP3   OH240718   6.596   6.419   5.976
13599TIP3    H140719   6.521   6.424   6.039
13599TIP3    H240720   6.670   6.392   6.035
13600TIP3   OH240721   6.836   6.368   6.127
13600TIP3    H140722   6.844   6.271   6.142
13600TIP3    H240723   6.826   6.403   6.218
13601TIP3   OH240724   5.824   6.306   6.316
13601TIP3    H140725   5.821   6.219   6.272
13601TIP3    H240726   5.855   6.283   6.405
13602TIP3   OH240727   6.327   5.979   6.165
13602TIP3    H140728   6.392   5.907   6.156
13602TIP3    H240729   6.284   5.976   6.077
13603TIP3   OH240730   6.393   6.193   6.325
13603TIP3    H140731   6.370   6.123   6.259
13603TIP3    H240732   6.316   6.253   6.319
13604TIP3   OH240733   5.617   7.418   4.422
13604TIP3    H140734   5.712   7.412   4.403
13604TIP3    H240735   5.589   7.474   4.347
13605TIP3   OH240736   5.093   6.803   4.635
13605TIP3    H140737   5.188   6.825   4.623
13605TIP3    H240738   5.087   6.717   4.590
13606TIP3   OH240739   5.014   7.414   5.055
13606TIP3    H140740   4.947   7.355   5.015
13606TIP3    H240741   5.057   7.353   5.119
13607TIP3   OH240742   5.149   7.258   5.239
13607TIP3    H140743   5.134   7.192   5.309
13607TIP3    H240744   5.199   7.324   5.289
13608TIP3   OH240745   6.875   7.663   5.043
13608TIP3    H140746   6.897   7.697   5.131
13608TIP3    H240747   6.936   7.714   4.987
13609TIP3   OH240748   6.898   7.684   5.323
13609TIP3    H140749   6.857   7.596   5.320
13609TIP3    H240750   6.975   7.665   5.380
13610TIP3   OH240751   6.951   7.364   5.901
13610TIP3    H140752   6.875   7.373   5.962
13610TIP3    H240753   6.992   7.452   5.906
13611TIP3   OH240754   6.765   6.876   4.513
13611TIP3    H140755   6.830   6.942   4.483
13611TIP3    H240756   6.811   6.839   4.592
13612TIP3   OH240757   6.894   6.743   4.717
13612TIP3    H140758   6.828   6.705   4.778
13612TIP3    H240759   6.961   6.780   4.778
13613TIP3   OH240760   6.946   7.134   5.144
13613TIP3    H140761   7.007   7.071   5.101
13613TIP3    H240762   6.946   7.209   5.081
13614TIP3   OH240763   6.774   7.434   5.345
13614TIP3    H140764   6.703   7.479   5.394
13614TIP3    H240765   6.724   7.390   5.272
13615TIP3   OH240766   6.829   6.653   4.363
13615TIP3    H140767   6.757   6.655   4.296
13615TIP3    H240768   6.802   6.729   4.419
13616TIP3   OH240769   6.700   6.324   4.316
13616TIP3    H140770   6.654   6.360   4.239
13616TIP3    H240771   6.678   6.229   4.307
13617TIP3   OH240772   6.702   6.605   4.863
13617TIP3    H140773   6.713   6.509   4.856
13617TIP3    H240774   6.689   6.617   4.960
13618TIP3   OH240775   5.328   6.685   5.612
13618TIP3    H140776   5.321   6.643   5.524
13618TIP3    H240777   5.425   6.678   5.629
13619TIP3   OH240778   7.002   7.023   5.719
13619TIP3    H140779   7.079   6.964   5.704
13619TIP3    H240780   7.014   7.086   5.646
13620TIP3   OH240781   7.185   6.826   5.829
13620TIP3    H140782   7.099   6.779   5.819
13620TIP3    H240783   7.245   6.766   5.781
13621TIP3   OH240784   6.643   6.058   4.297
13621TIP3    H140785   6.712   6.024   4.358
13621TIP3    H240786   6.566   6.002   4.317
13622TIP3   OH240787   6.703   6.319   4.754
13622TIP3    H140788   6.745   6.231   4.768
13622TIP3    H240789   6.760   6.354   4.683
13623TIP3   OH240790   6.862   6.487   5.254
13623TIP3    H140791   6.947   6.513   5.212
13623TIP3    H240792   6.876   6.528   5.342
13624TIP3   OH240793   6.930   6.634   5.486
13624TIP3    H140794   6.854   6.675   5.531
13624TIP3    H240795   6.964   6.710   5.432
13625TIP3   OH240796   5.561   6.379   6.315
13625TIP3    H140797   5.656   6.360   6.302
13625TIP3    H240798   5.525   6.289   6.325
13626TIP3   OH240799   7.404   6.250   6.036
13626TIP3    H140800   7.429   6.169   5.991
13626TIP3    H240801   7.353   6.298   5.967
13627TIP3   OH240802   6.812   6.070   4.795
13627TIP3    H140803   6.859   6.053   4.880
13627TIP3    H240804   6.750   5.994   4.793
13628TIP3   OH240805   5.510   6.047   5.578
13628TIP3    H140806   5.587   5.995   5.605
13628TIP3    H240807   5.488   6.095   5.662
13629TIP3   OH240808   7.246   6.364   5.854
13629TIP3    H140809   7.163   6.412   5.876
13629TIP3    H240810   7.207   6.297   5.793
13630TIP3   OH240811   6.888   5.998   4.433
13630TIP3    H140812   6.927   5.931   4.373
13630TIP3    H240813   6.952   6.071   4.429
13631TIP3   OH240814   5.297   5.824   5.183
13631TIP3    H140815   5.206   5.820   5.217
13631TIP3    H240816   5.289   5.885   5.108
13632TIP3   OH240817   6.453   7.533   4.695
13632TIP3    H140818   6.509   7.528   4.615
13632TIP3    H240819   6.499   7.600   4.748
13633TIP3   OH240820   5.525   5.905   5.997
13633TIP3    H140821   5.461   5.915   6.070
13633TIP3    H240822   5.503   5.985   5.944
13634TIP3   OH240823   5.557   7.336   6.077
13634TIP3    H140824   5.462   7.316   6.064
13634TIP3    H240825   5.566   7.325   6.173
13635TIP3   OH240826   5.739   7.373   5.626
13635TIP3    H140827   5.689   7.448   5.589
13635TIP3    H240828   5.824   7.390   5.581
13636TIP3   OH240829   6.175   7.614   5.761
13636TIP3    H140830   6.216   7.614   5.851
13636TIP3    H240831   6.241   7.667   5.712
13637TIP3   OH240832   6.358   7.770   5.629
13637TIP3    H140833   6.431   7.722   5.587
13637TIP3    H240834   6.407   7.830   5.689
13638TIP3   OH240835   7.151   6.129   5.731
13638TIP3    H140836   7.063   6.132   5.690
13638TIP3    H240837   7.176   6.035   5.721
13639TIP3   OH240838   5.411   7.626   5.658
13639TIP3    H140839   5.320   7.654   5.634
13639TIP3    H240840   5.428   7.684   5.734
13640TIP3   OH240841   5.645   7.605   5.511
13640TIP3    H140842   5.558   7.617   5.556
13640TIP3    H240843   5.626   7.641   5.422
13641TIP3   OH240844   6.072   7.633   5.309
13641TIP3    H140845   6.002   7.653   5.245
13641TIP3    H240846   6.085   7.720   5.352
13642TIP3   OH240847   6.342   7.569   5.360
13642TIP3    H140848   6.249   7.591   5.342
13642TIP3    H240849   6.388   7.644   5.319
13643TIP3   OH240850   6.542   7.760   5.272
13643TIP3    H140851   6.531   7.846   5.226
13643TIP3    H240852   6.572   7.702   5.198
13644TIP3   OH240853   5.323   7.421   5.393
13644TIP3    H140854   5.346   7.392   5.483
13644TIP3    H240855   5.396   7.378   5.343
13645TIP3   OH240856   5.519   7.294   5.254
13645TIP3    H140857   5.532   7.211   5.306
13645TIP3    H240858   5.609   7.332   5.255
13646TIP3   OH240859   5.784   7.386   5.265
13646TIP3    H140860   5.818   7.295   5.262
13646TIP3    H240861   5.830   7.418   5.345
13647TIP3   OH240862   6.362   6.046   5.353
13647TIP3    H140863   6.315   5.976   5.402
13647TIP3    H240864   6.431   5.996   5.306
13648TIP3   OH240865   6.877   5.923   5.251
13648TIP3    H140866   6.913   5.977   5.177
13648TIP3    H240867   6.782   5.945   5.247
13649TIP3   OH240868   6.974   6.017   5.014
13649TIP3    H140869   7.048   5.967   4.973
13649TIP3    H240870   7.007   6.109   5.001
13650TIP3   OH240871   5.604   5.750   5.356
13650TIP3    H140872   5.511   5.718   5.361
13650TIP3    H240873   5.651   5.664   5.352
13651TIP3   OH240874   5.395   5.622   5.010
13651TIP3    H140875   5.419   5.679   4.935
13651TIP3    H240876   5.363   5.688   5.075
13652TIP3   OH240877   6.057   5.778   5.239
13652TIP3    H140878   6.113   5.830   5.178
13652TIP3    H240879   6.065   5.829   5.320
13653TIP3   OH240880   6.586   5.917   5.226
13653TIP3    H140881   6.590   5.896   5.132
13653TIP3    H240882   6.563   5.831   5.266
13654TIP3   OH240883   6.628   5.859   4.788
13654TIP3    H140884   6.542   5.902   4.802
13654TIP3    H240885   6.612   5.772   4.829
13655TIP3   OH240886   5.111   7.199   4.784
13655TIP3    H140887   5.024   7.167   4.753
13655TIP3    H240888   5.102   7.293   4.760
13656TIP3   OH240889   5.514   5.779   4.768
13656TIP3    H140890   5.560   5.715   4.711
13656TIP3    H240891   5.588   5.831   4.805
13657TIP3   OH240892   6.019   5.960   4.870
13657TIP3    H140893   6.077   5.908   4.928
13657TIP3    H240894   6.046   6.051   4.896
13658TIP3   OH240895   5.884   7.377   4.371
13658TIP3    H140896   5.971   7.401   4.334
13658TIP3    H240897   5.862   7.303   4.310
13659TIP3   OH240898   6.604   7.504   4.464
13659TIP3    H140899   6.595   7.406   4.453
13659TIP3    H240900   6.557   7.535   4.384
13660TIP3   OH240901   5.811   6.022   6.254
13660TIP3    H140902   5.777   5.952   6.313
13660TIP3    H240903   5.904   6.027   6.284
13661TIP3   OH240904   6.064   6.031   6.372
13661TIP3    H140905   6.148   6.004   6.333
13661TIP3    H240906   6.049   5.959   6.438
13662TIP3   OH240907   5.186   7.214   4.422
13662TIP3    H140908   5.185   7.237   4.516
13662TIP3    H240909   5.275   7.173   4.410
13663TIP3   OH240910   6.891   6.093   6.157
13663TIP3    H140911   6.908   6.067   6.250
13663TIP3    H240912   6.980   6.082   6.117
13664TIP3   OH240913   6.824   7.643   5.649
13664TIP3    H140914   6.746   7.614   5.598
13664TIP3    H240915   6.805   7.739   5.655
13665TIP3   OH240916   8.095   7.018   4.412
13665TIP3    H140917   8.065   7.108   4.391
13665TIP3    H240918   8.019   6.967   4.380
13666TIP3   OH240919   8.093   7.018   4.803
13666TIP3    H140920   8.130   6.992   4.889
13666TIP3    H240921   8.049   6.936   4.774
13667TIP3   OH240922   8.339   7.320   4.482
13667TIP3    H140923   8.328   7.255   4.553
13667TIP3    H240924   8.374   7.397   4.531
13668TIP3   OH240925   7.363   7.318   4.878
13668TIP3    H140926   7.355   7.221   4.886
13668TIP3    H240927   7.460   7.328   4.885
13669TIP3   OH240928   7.072   6.518   4.664
13669TIP3    H140929   7.029   6.602   4.688
13669TIP3    H240930   6.997   6.473   4.620
13670TIP3   OH240931   7.128   6.812   4.848
13670TIP3    H140932   7.177   6.735   4.883
13670TIP3    H240933   7.197   6.859   4.799
13671TIP3   OH240934   7.992   7.783   4.499
13671TIP3    H140935   8.031   7.710   4.446
13671TIP3    H240936   7.973   7.739   4.582
13672TIP3   OH240937   7.891   7.246   4.845
13672TIP3    H140938   7.931   7.169   4.800
13672TIP3    H240939   7.973   7.293   4.870
13673TIP3   OH240940   8.912   6.569   4.846
13673TIP3    H140941   8.936   6.650   4.895
13673TIP3    H240942   8.895   6.605   4.757
13674TIP3   OH240943   8.304   6.742   4.873
13674TIP3    H140944   8.346   6.657   4.895
13674TIP3    H240945   8.272   6.724   4.783
13675TIP3   OH240946   7.650   6.403   4.840
13675TIP3    H140947   7.627   6.477   4.779
13675TIP3    H240948   7.598   6.331   4.799
13676TIP3   OH240949   8.341   6.496   4.461
13676TIP3    H140950   8.413   6.481   4.528
13676TIP3    H240951   8.394   6.531   4.387
13677TIP3   OH240952   7.274   6.606   4.950
13677TIP3    H140953   7.356   6.597   5.002
13677TIP3    H240954   7.295   6.550   4.872
13678TIP3   OH240955   7.725   6.804   4.722
13678TIP3    H140956   7.816   6.776   4.745
13678TIP3    H240957   7.682   6.719   4.700
13679TIP3   OH240958   8.979   6.778   5.015
13679TIP3    H140959   8.897   6.828   4.995
13679TIP3    H240960   8.981   6.788   5.111
13680TIP3   OH240961   7.642   6.385   5.275
13680TIP3    H140962   7.583   6.429   5.211
13680TIP3    H240963   7.592   6.400   5.359
13681TIP3   OH240964   7.981   7.237   4.281
13681TIP3    H140965   7.941   7.225   4.194
13681TIP3    H240966   7.936   7.318   4.312
13682TIP3   OH240967   7.745   7.159   5.068
13682TIP3    H140968   7.680   7.223   5.105
13682TIP3    H240969   7.782   7.210   4.993
13683TIP3   OH240970   8.542   6.500   4.646
13683TIP3    H140971   8.513   6.467   4.732
13683TIP3    H240972   8.592   6.581   4.671
13684TIP3   OH240973   7.512   6.503   5.062
13684TIP3    H140974   7.563   6.582   5.090
13684TIP3    H240975   7.567   6.470   4.988
13685TIP3   OH240976   7.575   7.357   5.163
13685TIP3    H140977   7.548   7.447   5.133
13685TIP3    H240978   7.498   7.337   5.221
13686TIP3   OH240979   6.963   7.049   4.404
13686TIP3    H140980   6.924   7.078   4.319
13686TIP3    H240981   6.996   7.134   4.440
13687TIP3   OH240982   8.397   7.551   4.633
13687TIP3    H140983   8.309   7.550   4.676
13687TIP3    H240984   8.394   7.638   4.589
13688TIP3   OH240985   8.701   6.455   5.008
13688TIP3    H140986   8.614   6.488   4.980
13688TIP3    H240987   8.760   6.491   4.939
13689TIP3   OH240988   7.992   6.104   4.994
13689TIP3    H140989   7.974   6.010   5.009
13689TIP3    H240990   7.916   6.145   5.040
13690TIP3   OH240991   8.101   7.609   4.309
13690TIP3    H140992   8.155   7.528   4.294
13690TIP3    H240993   8.167   7.677   4.282
13691TIP3   OH240994   8.249   7.393   4.232
13691TIP3    H140995   8.210   7.312   4.197
13691TIP3    H240996   8.288   7.360   4.317
13692TIP3   OH240997   7.924   6.868   4.249
13692TIP3    H140998   7.845   6.921   4.230
13692TIP3    H240999   7.969   6.868   4.163
13693TIP3   OH241000   7.883   6.657   3.958
13693TIP3    H141001   7.948   6.709   4.007
13693TIP3    H241002   7.942   6.595   3.911
13694TIP3   OH241003   8.814   7.090   4.807
13694TIP3    H141004   8.741   7.152   4.830
13694TIP3    H241005   8.857   7.140   4.735
13695TIP3   OH241006   8.273   6.953   4.215
13695TIP3    H141007   8.218   6.976   4.293
13695TIP3    H241008   8.357   6.929   4.260
13696TIP3   OH241009   8.502   7.001   5.113
13696TIP3    H141010   8.498   7.097   5.127
13696TIP3    H241011   8.410   6.985   5.083
13697TIP3   OH241012   7.505   6.947   4.637
13697TIP3    H141013   7.464   6.890   4.568
13697TIP3    H241014   7.584   6.895   4.661
13698TIP3   OH241015   7.639   7.366   4.779
13698TIP3    H141016   7.615   7.330   4.693
13698TIP3    H241017   7.727   7.326   4.795
13699TIP3   OH241018   7.652   6.916   4.972
13699TIP3    H141019   7.688   6.909   4.882
13699TIP3    H241020   7.684   7.003   5.004
13700TIP3   OH241021   8.161   7.563   4.765
13700TIP3    H141022   8.151   7.645   4.817
13700TIP3    H241023   8.144   7.491   4.829
13701TIP3   OH241024   7.777   7.460   5.315
13701TIP3    H141025   7.716   7.521   5.363
13701TIP3    H241026   7.711   7.409   5.264
13702TIP3   OH241027   8.110   6.810   4.044
13702TIP3    H141028   8.169   6.872   4.093
13702TIP3    H241029   8.136   6.830   3.951
13703TIP3   OH241030   7.858   7.484   4.319
13703TIP3    H141031   7.941   7.536   4.324
13703TIP3    H241032   7.796   7.546   4.279
13704TIP3   OH241033   7.574   7.623   5.396
13704TIP3    H141034   7.527   7.635   5.312
13704TIP3    H241035   7.501   7.619   5.461
13705TIP3   OH241036   8.625   6.053   4.096
13705TIP3    H141037   8.544   6.079   4.145
13705TIP3    H241038   8.642   6.134   4.043
13706TIP3   OH241039   7.374   6.791   4.432
13706TIP3    H141040   7.303   6.837   4.382
13706TIP3    H241041   7.332   6.708   4.454
13707TIP3   OH241042   8.434   7.405   3.647
13707TIP3    H141043   8.444   7.503   3.649
13707TIP3    H241044   8.526   7.378   3.630
13708TIP3   OH241045   7.152   7.180   5.348
13708TIP3    H141046   7.091   7.154   5.277
13708TIP3    H241047   7.178   7.093   5.386
13709TIP3   OH241048   7.006   7.369   4.979
13709TIP3    H141049   7.103   7.366   4.975
13709TIP3    H241050   6.992   7.447   5.035
13710TIP3   OH241051   7.946   7.615   5.174
13710TIP3    H141052   7.898   7.698   5.183
13710TIP3    H241053   7.884   7.554   5.222
13711TIP3   OH241054   7.740   7.732   4.125
13711TIP3    H141055   7.692   7.717   4.041
13711TIP3    H241056   7.705   7.818   4.154
13712TIP3   OH241057   7.176   7.582   4.509
13712TIP3    H141058   7.224   7.575   4.595
13712TIP3    H241059   7.122   7.502   4.512
13713TIP3   OH241060   7.937   7.636   3.761
13713TIP3    H141061   7.994   7.566   3.722
13713TIP3    H241062   7.973   7.642   3.852
13714TIP3   OH241063   7.988   7.671   4.037
13714TIP3    H141064   7.899   7.684   4.076
13714TIP3    H241065   8.035   7.631   4.113
13715TIP3   OH241066   8.735   6.962   5.308
13715TIP3    H141067   8.682   6.973   5.229
13715TIP3    H241068   8.774   6.874   5.295
13716TIP3   OH241069   7.359   7.360   5.330
13716TIP3    H141070   7.410   7.346   5.413
13716TIP3    H241071   7.288   7.294   5.339
13717TIP3   OH241072   7.756   6.180   5.125
13717TIP3    H141073   7.668   6.152   5.094
13717TIP3    H241074   7.730   6.263   5.171
13718TIP3   OH241075   8.291   6.293   5.316
13718TIP3    H141076   8.362   6.267   5.378
13718TIP3    H241077   8.210   6.277   5.367
13719TIP3   OH241078   8.530   6.731   5.227
13719TIP3    H141079   8.475   6.727   5.309
13719TIP3    H241080   8.514   6.822   5.197
13720TIP3   OH241081   8.185   6.849   3.789
13720TIP3    H141082   8.151   6.829   3.699
13720TIP3    H241083   8.271   6.890   3.765
13721TIP3   OH241084   7.899   6.228   4.093
13721TIP3    H141085   7.865   6.225   4.185
13721TIP3    H241086   7.857   6.148   4.057
13722TIP3   OH241087   7.669   6.714   5.150
13722TIP3    H141088   7.596   6.748   5.206
13722TIP3    H241089   7.667   6.783   5.081
13723TIP3   OH241090   7.572   6.582   4.653
13723TIP3    H141091   7.479   6.559   4.673
13723TIP3    H241092   7.581   6.541   4.564
13724TIP3   OH241093   8.061   6.667   4.383
13724TIP3    H141094   8.010   6.739   4.339
13724TIP3    H241095   8.116   6.635   4.309
13725TIP3   OH241096   8.227   6.950   5.463
13725TIP3    H141097   8.220   6.874   5.525
13725TIP3    H241098   8.286   7.010   5.513
13726TIP3   OH241099   8.216   6.694   4.618
13726TIP3    H141100   8.153   6.723   4.549
13726TIP3    H241101   8.252   6.615   4.572
13727TIP3   OH241102   7.558   6.203   4.059
13727TIP3    H141103   7.546   6.205   4.156
13727TIP3    H241104   7.481   6.257   4.031
13728TIP3   OH241105   7.100   6.240   4.934
13728TIP3    H141106   7.171   6.279   4.988
13728TIP3    H241107   7.142   6.224   4.849
13729TIP3   OH241108   7.062   6.228   4.447
13729TIP3    H141109   7.107   6.265   4.368
13729TIP3    H241110   7.002   6.302   4.468
13730TIP3   OH241111   8.227   6.939   5.040
13730TIP3    H141112   8.260   6.867   4.980
13730TIP3    H241113   8.196   6.884   5.115
13731TIP3   OH241114   7.905   6.397   4.711
13731TIP3    H141115   7.822   6.401   4.764
13731TIP3    H241116   7.972   6.401   4.781
13732TIP3   OH241117   7.333   6.464   4.720
13732TIP3    H141118   7.239   6.473   4.692
13732TIP3    H241119   7.355   6.372   4.697
13733TIP3   OH241120   7.597   6.454   4.412
13733TIP3    H141121   7.690   6.474   4.391
13733TIP3    H241122   7.549   6.478   4.330
13734TIP3   OH241123   8.392   6.480   4.907
13734TIP3    H141124   8.368   6.493   5.002
13734TIP3    H241125   8.318   6.422   4.880
13735TIP3   OH241126   7.451   6.489   4.186
13735TIP3    H141127   7.380   6.446   4.136
13735TIP3    H241128   7.503   6.530   4.114
13736TIP3   OH241129   7.511   7.311   5.562
13736TIP3    H141130   7.592   7.331   5.613
13736TIP3    H241131   7.448   7.291   5.634
13737TIP3   OH241132   7.981   6.735   4.812
13737TIP3    H141133   8.057   6.697   4.765
13737TIP3    H241134   7.985   6.691   4.899
13738TIP3   OH241135   7.499   6.221   4.695
13738TIP3    H141136   7.463   6.144   4.744
13738TIP3    H241137   7.539   6.179   4.618
13739TIP3   OH241138   7.949   6.638   5.105
13739TIP3    H141139   7.862   6.678   5.123
13739TIP3    H241140   8.011   6.696   5.153
13740TIP3   OH241141   7.695   7.019   4.196
13740TIP3    H141142   7.621   6.956   4.183
13740TIP3    H241143   7.673   7.054   4.286
13741TIP3   OH241144   8.587   7.250   4.840
13741TIP3    H141145   8.618   7.307   4.766
13741TIP3    H241146   8.505   7.213   4.802
13742TIP3   OH241147   8.153   6.327   4.070
13742TIP3    H141148   8.055   6.311   4.073
13742TIP3    H241149   8.160   6.423   4.088
13743TIP3   OH241150   8.106   7.351   5.200
13743TIP3    H141151   8.093   7.302   5.282
13743TIP3    H241152   8.046   7.426   5.212
13744TIP3   OH241153   8.219   6.583   4.165
13744TIP3    H141154   8.315   6.590   4.178
13744TIP3    H241155   8.198   6.662   4.112
13745TIP3   OH241156   7.390   7.036   4.880
13745TIP3    H141157   7.430   7.007   4.795
13745TIP3    H241158   7.445   6.990   4.945
13746TIP3   OH241159   7.840   7.171   4.020
13746TIP3    H141160   7.790   7.256   4.022
13746TIP3    H241161   7.785   7.116   4.081
13747TIP3   OH241162   7.222   6.970   5.520
13747TIP3    H141163   7.303   6.975   5.573
13747TIP3    H241164   7.251   6.911   5.447
13748TIP3   OH241165   7.982   7.066   5.505
13748TIP3    H141166   7.917   7.009   5.459
13748TIP3    H241167   8.066   7.029   5.471
13749TIP3   OH241168   8.298   7.574   5.078
13749TIP3    H141169   8.212   7.552   5.041
13749TIP3    H241170   8.270   7.640   5.145
13750TIP3   OH241171   8.662   6.678   3.999
13750TIP3    H141172   8.600   6.633   3.937
13750TIP3    H241173   8.659   6.767   3.957
13751TIP3   OH241174   8.368   7.479   3.911
13751TIP3    H141175   8.332   7.414   3.972
13751TIP3    H241176   8.375   7.429   3.827
13752TIP3   OH241177   8.351   7.122   4.738
13752TIP3    H141178   8.258   7.094   4.748
13752TIP3    H241179   8.389   7.044   4.693
13753TIP3   OH241180   7.490   7.350   4.496
13753TIP3    H141181   7.485   7.431   4.441
13753TIP3    H241182   7.397   7.334   4.515
13754TIP3   OH241183   7.056   6.651   4.206
13754TIP3    H141184   7.099   6.737   4.227
13754TIP3    H241185   6.978   6.655   4.265
13755TIP3   OH241186   7.618   7.111   4.437
13755TIP3    H141187   7.585   7.202   4.456
13755TIP3    H241188   7.584   7.062   4.514
13756TIP3   OH241189   7.754   7.692   4.958
13756TIP3    H141190   7.793   7.768   4.908
13756TIP3    H241191   7.833   7.642   4.983
13757TIP3   OH241192   7.406   7.587   4.348
13757TIP3    H141193   7.321   7.597   4.395
13757TIP3    H241194   7.439   7.680   4.351
13758TIP3   OH241195   8.144   7.334   4.929
13758TIP3    H141196   8.142   7.324   5.027
13758TIP3    H241197   8.215   7.273   4.904
13759TIP3   OH241198   8.123   7.223   3.810
13759TIP3    H141199   8.176   7.196   3.889
13759TIP3    H241200   8.034   7.194   3.838
13760TIP3   OH241201   8.470   7.678   3.663
13760TIP3    H141202   8.530   7.753   3.670
13760TIP3    H241203   8.387   7.717   3.698
13761TIP3   OH241204   7.493   6.432   5.500
13761TIP3    H141205   7.415   6.489   5.501
13761TIP3    H241206   7.488   6.386   5.585
13762TIP3   OH241207   8.284   7.153   4.023
13762TIP3    H141208   8.273   7.086   4.094
13762TIP3    H241209   8.381   7.148   4.010
13763TIP3   OH241210   7.196   7.551   5.123
13763TIP3    H141211   7.251   7.484   5.169
13763TIP3    H241212   7.215   7.630   5.174
13764TIP3   OH241213   7.485   7.199   3.808
13764TIP3    H141214   7.497   7.105   3.783
13764TIP3    H241215   7.463   7.191   3.904
13765TIP3   OH241216   7.428   7.205   4.080
13765TIP3    H141217   7.502   7.179   4.137
13765TIP3    H241218   7.430   7.303   4.088
13766TIP3   OH241219   7.162   6.896   4.286
13766TIP3    H141220   7.095   6.942   4.342
13766TIP3    H241221   7.175   6.964   4.217
13767TIP3   OH241222   8.328   6.524   5.166
13767TIP3    H141223   8.394   6.576   5.215
13767TIP3    H241224   8.311   6.449   5.227
13768TIP3   OH241225   8.201   6.278   4.347
13768TIP3    H141226   8.185   6.300   4.253
13768TIP3    H241227   8.240   6.362   4.381
13769TIP3   OH241228   7.697   7.400   4.027
13769TIP3    H141229   7.610   7.424   4.064
13769TIP3    H241230   7.714   7.478   3.971
13770TIP3   OH241231   7.881   6.466   4.443
13770TIP3    H141232   7.944   6.539   4.425
13770TIP3    H241233   7.888   6.457   4.540
13771TIP3   OH241234   8.156   6.779   5.249
13771TIP3    H141235   8.176   6.840   5.323
13771TIP3    H241236   8.213   6.704   5.271
13772TIP3   OH241237   8.025   6.183   4.543
13772TIP3    H141238   8.012   6.262   4.599
13772TIP3    H241239   8.090   6.218   4.477
13773TIP3   OH241240   7.443   7.476   4.098
13773TIP3    H141241   7.413   7.547   4.037
13773TIP3    H241242   7.427   7.519   4.186
13774TIP3   OH241243   7.541   6.191   4.335
13774TIP3    H141244   7.537   6.282   4.371
13774TIP3    H241245   7.638   6.176   4.343
13775TIP3   OH241246   8.802   6.690   5.232
13775TIP3    H141247   8.705   6.692   5.250
13775TIP3    H241248   8.802   6.639   5.150
13776TIP3   OH241249   8.446   6.874   4.617
13776TIP3    H141250   8.367   6.818   4.631
13776TIP3    H241251   8.515   6.827   4.669
13777TIP3   OH241252   7.160   7.100   4.088
13777TIP3    H141253   7.230   7.167   4.098
13777TIP3    H241254   7.203   7.042   4.021
13778TIP3   OH241255   7.098   6.380   4.222
13778TIP3    H141256   7.103   6.477   4.222
13778TIP3    H241257   7.017   6.365   4.173
13779TIP3   OH241258   8.407   7.815   4.540
13779TIP3    H141259   8.383   7.895   4.492
13779TIP3    H241260   8.481   7.843   4.595
13780TIP3   OH241261   7.493   6.100   5.090
13780TIP3    H141262   7.461   6.070   5.003
13780TIP3    H241263   7.477   6.021   5.146
13781TIP3   OH241264   7.022   7.314   4.471
13781TIP3    H141265   6.964   7.348   4.541
13781TIP3    H241266   6.987   7.361   4.392
13782TIP3   OH241267   7.187   7.855   5.539
13782TIP3    H141268   7.276   7.833   5.571
13782TIP3    H241269   7.148   7.766   5.534
13783TIP3   OH241270   7.646   7.401   3.715
13783TIP3    H141271   7.592   7.329   3.755
13783TIP3    H241272   7.723   7.351   3.684
13784TIP3   OH241273   8.080   7.439   3.635
13784TIP3    H141274   8.123   7.372   3.693
13784TIP3    H241275   8.133   7.435   3.553
13785TIP3   OH241276   7.308   7.250   5.744
13785TIP3    H141277   7.325   7.155   5.735
13785TIP3    H241278   7.223   7.260   5.696
13786TIP3   OH241279   7.296   6.914   3.944
13786TIP3    H141280   7.354   6.888   4.018
13786TIP3    H241281   7.362   6.920   3.872
13787TIP3   OH241282   7.913   7.336   5.523
13787TIP3    H141283   7.873   7.369   5.440
13787TIP3    H241284   7.935   7.243   5.504
13788TIP3   OH241285   7.812   7.119   3.751
13788TIP3    H141286   7.812   7.130   3.848
13788TIP3    H241287   7.811   7.021   3.744
13789TIP3   OH241288   8.443   7.343   5.139
13789TIP3    H141289   8.498   7.350   5.060
13789TIP3    H241290   8.379   7.415   5.123
13790TIP3   OH241291   7.436   6.999   5.718
13790TIP3    H141292   7.520   6.964   5.684
13790TIP3    H241293   7.461   7.028   5.808
13791TIP3   OH241294   7.497   6.827   4.159
13791TIP3    H141295   7.471   6.789   4.245
13791TIP3    H241296   7.536   6.750   4.113
13792TIP3   OH241297   7.772   6.890   5.396
13792TIP3    H141298   7.678   6.901   5.373
13792TIP3    H241299   7.817   6.921   5.315
13793TIP3   OH241300   7.605   6.620   4.002
13793TIP3    H141301   7.580   6.629   3.908
13793TIP3    H241302   7.703   6.623   3.995
13794TIP3   OH241303   8.417   6.941   3.675
13794TIP3    H141304   8.407   6.900   3.587
13794TIP3    H241305   8.386   7.032   3.652
13795TIP3   OH241306   7.899   6.677   5.512
13795TIP3    H141307   7.895   6.600   5.452
13795TIP3    H241308   7.852   6.746   5.460
13796TIP3   OH241309   7.899   6.462   5.324
13796TIP3    H141310   7.924   6.508   5.242
13796TIP3    H241311   7.804   6.442   5.306
13797TIP3   OH241312   7.924   7.001   5.200
13797TIP3    H141313   8.005   7.012   5.149
13797TIP3    H241314   7.861   7.061   5.154
13798TIP3   OH241315   7.776   6.782   5.752
13798TIP3    H141316   7.701   6.719   5.763
13798TIP3    H241317   7.800   6.767   5.659
13799TIP3   OH241318   8.027   6.226   5.400
13799TIP3    H141319   7.981   6.309   5.372
13799TIP3    H241320   7.959   6.159   5.383
13800TIP3   OH241321   8.153   6.727   5.611
13800TIP3    H141322   8.124   6.715   5.703
13800TIP3    H241323   8.068   6.706   5.565
13801TIP3   OH241324   8.367   6.670   5.436
13801TIP3    H141325   8.304   6.680   5.510
13801TIP3    H241326   8.446   6.634   5.483
13802TIP3   OH241327   8.589   6.576   5.560
13802TIP3    H141328   8.616   6.484   5.576
13802TIP3    H241329   8.610   6.616   5.647
13803TIP3   OH241330   7.603   6.567   5.805
13803TIP3    H141331   7.627   6.488   5.755
13803TIP3    H241332   7.641   6.548   5.893
13804TIP3   OH241333   8.117   6.232   5.659
13804TIP3    H141334   8.187   6.164   5.651
13804TIP3    H241335   8.081   6.231   5.567
13805TIP3   OH241336   8.182   6.448   5.816
13805TIP3    H141337   8.164   6.377   5.750
13805TIP3    H241338   8.107   6.509   5.801
13806TIP3   OH241339   7.413   7.679   3.910
13806TIP3    H141340   7.508   7.669   3.891
13806TIP3    H241341   7.387   7.732   3.833
13807TIP3   OH241342   6.890   7.063   4.121
13807TIP3    H141343   6.985   7.083   4.109
13807TIP3    H241344   6.884   6.974   4.081
13808TIP3   OH241345   6.810   7.672   4.542
13808TIP3    H141346   6.743   7.612   4.503
13808TIP3    H241347   6.853   7.611   4.606
13809TIP3   OH241348   6.944   7.515   4.727
13809TIP3    H141349   6.931   7.449   4.797
13809TIP3    H241350   6.995   7.581   4.777
13810TIP3   OH241351   8.563   7.130   4.001
13810TIP3    H141352   8.629   7.194   3.968
13810TIP3    H241353   8.608   7.094   4.080
13811TIP3   OH241354   8.691   7.004   4.212
13811TIP3    H141355   8.618   6.957   4.259
13811TIP3    H241356   8.733   7.052   4.284
13812TIP3   OH241357   8.711   7.370   4.627
13812TIP3    H141358   8.789   7.318   4.601
13812TIP3    H241359   8.731   7.455   4.583
13813TIP3   OH241360   8.563   7.708   4.801
13813TIP3    H141361   8.517   7.697   4.884
13813TIP3    H241362   8.531   7.632   4.750
13814TIP3   OH241363   8.625   6.908   3.849
13814TIP3    H141364   8.554   6.908   3.781
13814TIP3    H241365   8.595   6.985   3.902
13815TIP3   OH241366   8.497   6.583   3.807
13815TIP3    H141367   8.457   6.619   3.726
13815TIP3    H241368   8.472   6.489   3.799
13816TIP3   OH241369   8.501   6.861   4.348
13816TIP3    H141370   8.506   6.764   4.339
13816TIP3    H241371   8.486   6.872   4.444
13817TIP3   OH241372   7.146   6.942   5.109
13817TIP3    H141373   7.152   6.908   5.018
13817TIP3    H241374   7.237   6.924   5.143
13818TIP3   OH241375   8.435   6.319   3.794
13818TIP3    H141376   8.509   6.281   3.845
13818TIP3    H241377   8.363   6.255   3.806
13819TIP3   OH241378   8.500   6.579   4.242
13819TIP3    H141379   8.540   6.489   4.256
13819TIP3    H241380   8.556   6.610   4.169
13820TIP3   OH241381   8.657   6.739   4.743
13820TIP3    H141382   8.741   6.767   4.701
13820TIP3    H241383   8.668   6.782   4.830
13821TIP3   OH241384   8.725   6.890   4.968
13821TIP3    H141385   8.647   6.929   5.012
13821TIP3    H241386   8.760   6.969   4.919
13822TIP3   OH241387   7.335   6.605   5.744
13822TIP3    H141388   7.432   6.608   5.759
13822TIP3    H241389   7.311   6.525   5.795
13823TIP3   OH241390   8.607   6.328   4.282
13823TIP3    H141391   8.656   6.310   4.366
13823TIP3    H241392   8.546   6.251   4.280
13824TIP3   OH241393   7.308   6.310   5.102
13824TIP3    H141394   7.374   6.239   5.109
13824TIP3    H241395   7.366   6.388   5.095
13825TIP3   OH241396   7.108   6.579   5.178
13825TIP3    H141397   7.160   6.586   5.095
13825TIP3    H241398   7.136   6.660   5.223
13826TIP3   OH241399   9.029   6.582   5.367
13826TIP3    H141400   8.969   6.655   5.344
13826TIP3    H241401   9.015   6.522   5.292
13827TIP3   OH241402   8.685   6.254   3.917
13827TIP3    H141403   8.723   6.186   3.858
13827TIP3    H241404   8.750   6.327   3.910
13828TIP3   OH241405   7.094   6.081   4.672
13828TIP3    H141406   7.002   6.080   4.704
13828TIP3    H241407   7.087   6.143   4.596
13829TIP3   OH241408   8.263   7.806   4.203
13829TIP3    H141409   8.279   7.788   4.107
13829TIP3    H241410   8.354   7.802   4.235
13830TIP3   OH241411   7.300   6.135   5.486
13830TIP3    H141412   7.260   6.162   5.570
13830TIP3    H241413   7.251   6.193   5.424
13831TIP3   OH241414   7.350   7.613   5.580
13831TIP3    H141415   7.264   7.579   5.551
13831TIP3    H241416   7.352   7.581   5.672
13832TIP3   OH241417   7.530   7.627   5.108
13832TIP3    H141418   7.478   7.703   5.074
13832TIP3    H241419   7.614   7.645   5.062
13833TIP3   OH241420   8.945   6.378   5.193
13833TIP3    H141421   8.854   6.370   5.160
13833TIP3    H241422   8.976   6.285   5.189
13834TIP3   OH241423   7.203   7.881   5.141
13834TIP3    H141424   7.111   7.907   5.119
13834TIP3    H241425   7.221   7.947   5.212
13835TIP3   OH241426   7.435   7.858   4.996
13835TIP3    H141427   7.349   7.872   5.042
13835TIP3    H241428   7.417   7.895   4.908
13836TIP3   OH241429   7.865   7.890   4.795
13836TIP3    H141430   7.793   7.910   4.732
13836TIP3    H241431   7.875   7.977   4.840
13837TIP3   OH241432   8.127   7.825   4.853
13837TIP3    H141433   8.034   7.848   4.832
13837TIP3    H241434   8.176   7.883   4.793
13838TIP3   OH241435   7.119   7.677   4.880
13838TIP3    H141436   7.143   7.649   4.971
13838TIP3    H241437   7.192   7.634   4.831
13839TIP3   OH241438   7.314   7.550   4.742
13839TIP3    H141439   7.329   7.465   4.791
13839TIP3    H241440   7.406   7.585   4.739
13840TIP3   OH241441   7.580   7.641   4.745
13840TIP3    H141442   7.610   7.548   4.740
13840TIP3    H241443   7.624   7.668   4.828
13841TIP3   OH241444   8.159   6.302   4.836
13841TIP3    H141445   8.114   6.230   4.884
13841TIP3    H241446   8.232   6.256   4.790
13842TIP3   OH241447   8.673   6.178   4.733
13842TIP3    H141448   8.710   6.231   4.659
13842TIP3    H241449   8.579   6.204   4.730
13843TIP3   OH241450   8.772   6.278   4.498
13843TIP3    H141451   8.844   6.225   4.458
13843TIP3    H241452   8.810   6.369   4.487
13844TIP3   OH241453   7.402   6.007   4.845
13844TIP3    H141454   7.308   5.976   4.847
13844TIP3    H241455   7.448   5.921   4.840
13845TIP3   OH241456   7.199   5.880   4.499
13845TIP3    H141457   7.223   5.937   4.424
13845TIP3    H241458   7.166   5.946   4.564
13846TIP3   OH241459   7.853   6.037   4.728
13846TIP3    H141460   7.905   6.086   4.663
13846TIP3    H241461   7.873   6.084   4.810
13847TIP3   OH241462   8.387   6.188   4.711
13847TIP3    H141463   8.391   6.150   4.623
13847TIP3    H241464   8.377   6.108   4.767
13848TIP3   OH241465   8.422   6.117   4.275
13848TIP3    H141466   8.337   6.162   4.295
13848TIP3    H241467   8.407   6.030   4.318
13849TIP3   OH241468   6.906   7.455   4.271
13849TIP3    H141469   6.820   7.424   4.239
13849TIP3    H241470   6.898   7.550   4.248
13850TIP3   OH241471   7.310   6.036   4.259
13850TIP3    H141472   7.358   5.975   4.199
13850TIP3    H241473   7.383   6.090   4.294
13851TIP3   OH241474   7.818   6.214   4.357
13851TIP3    H141475   7.881   6.173   4.419
13851TIP3    H241476   7.836   6.309   4.380
13852TIP3   OH241477   7.679   7.633   3.858
13852TIP3    H141478   7.766   7.657   3.820
13852TIP3    H241479   7.657   7.559   3.797
13853TIP3   OH241480   8.366   7.748   3.961
13853TIP3    H141481   8.375   7.652   3.945
13853TIP3    H241482   8.327   7.779   3.877
13854TIP3   OH241483   7.616   6.272   5.729
13854TIP3    H141484   7.593   6.251   5.820
13854TIP3    H241485   7.714   6.280   5.738
13855TIP3   OH241486   7.865   6.291   5.853
13855TIP3    H141487   7.951   6.268   5.813
13855TIP3    H241488   7.854   6.220   5.919
13856TIP3   OH241489   6.981   7.472   3.910
13856TIP3    H141490   6.985   7.492   4.004
13856TIP3    H241491   7.068   7.429   3.894
13857TIP3   OH241492   8.678   6.328   5.646
13857TIP3    H141493   8.702   6.315   5.740
13857TIP3    H241494   8.765   6.320   5.602
13858TIP3   OH241495   8.864   6.789   4.157
13858TIP3    H141496   8.807   6.866   4.174
13858TIP3    H241497   8.801   6.731   4.111
13859TIP3   OH241498   8.946   7.078   4.331
13859TIP3    H141499   8.991   6.998   4.367
13859TIP3    H241500   8.949   7.061   4.236
13860TIP3   OH241501   9.074   6.859   4.443
13860TIP3    H141502   9.115   6.794   4.502
13860TIP3    H241503   9.087   6.810   4.358
13861TIP3   OH241504   8.760   7.305   3.884
13861TIP3    H141505   8.724   7.313   3.792
13861TIP3    H241506   8.740   7.391   3.921
13862TIP3   OH241507   8.815   7.602   4.508
13862TIP3    H141508   8.873   7.644   4.444
13862TIP3    H241509   8.759   7.674   4.537
13863TIP3   OH241510   8.908   6.500   4.423
13863TIP3    H141511   8.987   6.548   4.454
13863TIP3    H241512   8.933   6.472   4.333
13864TIP3   OH241513   8.859   6.487   3.937
13864TIP3    H141514   8.901   6.524   3.857
13864TIP3    H241515   8.796   6.559   3.956
13865TIP3   OH241516   9.116   6.710   4.221
13865TIP3    H141517   9.026   6.733   4.188
13865TIP3    H241518   9.143   6.641   4.159
13866TIP3   OH241519   8.850   6.900   3.688
13866TIP3    H141520   8.899   6.980   3.716
13866TIP3    H241521   8.769   6.909   3.743
13867TIP3   OH241522   9.258   6.720   4.984
13867TIP3    H141523   9.172   6.765   4.988
13867TIP3    H241524   9.232   6.631   4.958
13868TIP3   OH241525   8.958   7.141   3.765
13868TIP3    H141526   8.897   7.196   3.817
13868TIP3    H241527   8.957   7.185   3.677
13869TIP3   OH241528   8.896   6.633   3.710
13869TIP3    H141529   8.892   6.731   3.710
13869TIP3    H241530   8.820   6.609   3.656
13870TIP3   OH241531   9.268   6.369   4.597
13870TIP3    H141532   9.253   6.330   4.508
13870TIP3    H241533   9.278   6.288   4.650
13871TIP3   OH241534   8.695   7.312   3.619
13871TIP3    H141535   8.784   7.309   3.579
13871TIP3    H241536   8.660   7.227   3.580
13872TIP3   OH241537   8.931   7.196   4.579
13872TIP3    H141538   8.923   7.158   4.489
13872TIP3    H241539   9.025   7.215   4.583
13873TIP3   OH241540   9.135   6.607   4.573
13873TIP3    H141541   9.181   6.521   4.566
13873TIP3    H241542   9.133   6.617   4.669
13874TIP3   OH241543   8.902   6.832   4.670
13874TIP3    H141544   8.948   6.851   4.586
13874TIP3    H241545   8.900   6.920   4.712
13875TIP3   OH241546   8.886   6.346   4.166
13875TIP3    H141547   8.792   6.337   4.190
13875TIP3    H241548   8.882   6.403   4.086
13876TIP3   OH241549   9.119   6.446   4.982
13876TIP3    H141550   9.065   6.426   5.061
13876TIP3    H241551   9.048   6.472   4.920
13877TIP3   OH241552   9.199   6.253   4.362
13877TIP3    H141553   9.105   6.224   4.357
13877TIP3    H241554   9.242   6.185   4.308
13878TIP3   OH241555   8.994   6.134   3.992
13878TIP3    H141556   9.008   6.192   3.915
13878TIP3    H241557   8.962   6.198   4.058
13879TIP3   OH241558   9.077   6.293   3.768
13879TIP3    H141559   9.140   6.229   3.733
13879TIP3    H241560   9.134   6.365   3.797
13880TIP3   OH241561   1.358   7.349   6.534
13880TIP3    H141562   1.385   7.433   6.578
13880TIP3    H241563   1.387   7.366   6.443
13881TIP3   OH241564   0.784   7.241   6.166
13881TIP3    H141565   0.858   7.253   6.230
13881TIP3    H241566   0.789   7.324   6.116
13882TIP3   OH241567   1.422   7.555   6.717
13882TIP3    H141568   1.344   7.608   6.692
13882TIP3    H241569   1.460   7.608   6.790
13883TIP3   OH241570   0.995   7.297   6.345
13883TIP3    H141571   1.049   7.231   6.390
13883TIP3    H241572   1.045   7.379   6.364
13884TIP3   OH241573   1.142   7.242   6.676
13884TIP3    H141574   1.089   7.322   6.682
13884TIP3    H241575   1.216   7.271   6.618
13885TIP3   OH241576   1.101   8.283   6.680
13885TIP3    H141577   1.095   8.186   6.670
13885TIP3    H241578   1.044   8.314   6.610
13886TIP3   OH241579   1.287   7.899   6.523
13886TIP3    H141580   1.205   7.952   6.536
13886TIP3    H241581   1.311   7.926   6.432
13887TIP3   OH241582   1.084   6.839   5.780
13887TIP3    H141583   1.003   6.860   5.831
13887TIP3    H241584   1.094   6.922   5.729
13888TIP3   OH241585   0.890   8.194   5.342
13888TIP3    H141586   0.891   8.287   5.312
13888TIP3    H241587   0.983   8.166   5.323
13889TIP3   OH241588   1.216   7.731   6.948
13889TIP3    H141589   1.147   7.757   7.011
13889TIP3    H241590   1.230   7.638   6.972
13890TIP3   OH241591   0.984   7.530   6.926
13890TIP3    H141592   0.954   7.470   6.995
13890TIP3    H241593   0.958   7.617   6.962
13891TIP3   OH241594   0.701   7.637   5.416
13891TIP3    H141595   0.683   7.639   5.321
13891TIP3    H241596   0.768   7.707   5.423
13892TIP3   OH241597   1.057   8.047   6.525
13892TIP3    H141598   1.064   8.094   6.440
13892TIP3    H241599   0.961   8.039   6.539
13893TIP3   OH241600   0.685   7.341   5.793
13893TIP3    H141601   0.774   7.348   5.833
13893TIP3    H241602   0.658   7.434   5.791
13894TIP3   OH241603   1.115   7.464   5.693
13894TIP3    H141604   1.055   7.419   5.629
13894TIP3    H241605   1.112   7.553   5.652
13895TIP3   OH241606   1.366   8.342   6.744
13895TIP3    H141607   1.270   8.325   6.755
13895TIP3    H241608   1.381   8.293   6.661
13896TIP3   OH241609   0.790   8.238   5.600
13896TIP3    H141610   0.845   8.171   5.644
13896TIP3    H241611   0.822   8.234   5.508
13897TIP3   OH241612   0.910   8.462   5.306
13897TIP3    H141613   0.979   8.529   5.291
13897TIP3    H241614   0.831   8.519   5.314
13898TIP3   OH241615   1.245   7.448   6.929
13898TIP3    H141616   1.149   7.459   6.915
13898TIP3    H241617   1.280   7.446   6.839
13899TIP3   OH241618   0.882   7.645   6.311
13899TIP3    H141619   0.839   7.561   6.292
13899TIP3    H241620   0.967   7.616   6.350
13900TIP3   OH241621   0.935   7.764   5.328
13900TIP3    H141622   0.893   7.699   5.267
13900TIP3    H241623   0.882   7.844   5.306
13901TIP3   OH241624   1.162   7.413   7.381
13901TIP3    H141625   1.161   7.316   7.369
13901TIP3    H241626   1.070   7.433   7.352
13902TIP3   OH241627   1.066   8.692   6.221
13902TIP3    H141628   1.078   8.729   6.308
13902TIP3    H241629   1.088   8.772   6.165
13903TIP3   OH241630   1.022   7.925   5.684
13903TIP3    H141631   1.095   7.981   5.653
13903TIP3    H241632   1.059   7.886   5.766
13904TIP3   OH241633   1.145   7.796   5.893
13904TIP3    H141634   1.082   7.744   5.949
13904TIP3    H241635   1.210   7.826   5.959
13905TIP3   OH241636   1.178   8.179   6.311
13905TIP3    H141637   1.240   8.110   6.280
13905TIP3    H241638   1.206   8.257   6.260
13906TIP3   OH241639   1.086   7.697   5.543
13906TIP3    H141640   1.031   7.712   5.463
13906TIP3    H241641   1.052   7.770   5.599
13907TIP3   OH241642   0.958   7.369   5.496
13907TIP3    H141643   0.899   7.423   5.442
13907TIP3    H241644   0.929   7.278   5.475
13908TIP3   OH241645   0.981   7.642   6.043
13908TIP3    H141646   0.951   7.553   6.015
13908TIP3    H241647   0.938   7.652   6.131
13909TIP3   OH241648   1.230   8.045   6.853
13909TIP3    H141649   1.320   8.015   6.874
13909TIP3    H241650   1.227   8.130   6.901
13910TIP3   OH241651   1.449   7.887   6.929
13910TIP3    H141652   1.363   7.841   6.940
13910TIP3    H241653   1.509   7.810   6.942
13911TIP3   OH241654   0.911   7.095   5.445
13911TIP3    H141655   0.986   7.084   5.507
13911TIP3    H241656   0.839   7.056   5.499
13912TIP3   OH241657   0.946   7.371   5.921
13912TIP3    H141658   0.981   7.284   5.948
13912TIP3    H241659   1.012   7.398   5.855
13913TIP3   OH241660   1.109   7.540   6.424
13913TIP3    H141661   1.196   7.560   6.381
13913TIP3    H241662   1.124   7.582   6.511
13914TIP3   OH241663   1.186   7.681   6.654
13914TIP3    H141664   1.163   7.721   6.740
13914TIP3    H241665   1.216   7.760   6.603
13915TIP3   OH241666   1.627   7.274   7.216
13915TIP3    H141667   1.691   7.210   7.178
13915TIP3    H241668   1.600   7.325   7.137
13916TIP3   OH241669   1.064   7.118   5.968
13916TIP3    H141670   1.108   7.102   6.054
13916TIP3    H241671   0.998   7.046   5.967
13917TIP3   OH241672   1.504   7.411   7.018
13917TIP3    H141673   1.418   7.449   7.045
13917TIP3    H241674   1.472   7.338   6.961
13918TIP3   OH241675   1.138   7.049   5.599
13918TIP3    H141676   1.186   6.979   5.551
13918TIP3    H241677   1.206   7.120   5.606
13919TIP3   OH241678   1.407   7.169   6.902
13919TIP3    H141679   1.314   7.156   6.877
13919TIP3    H241680   1.441   7.077   6.892
13920TIP3   OH241681   1.127   6.971   6.427
13920TIP3    H141682   1.164   7.017   6.348
13920TIP3    H241683   1.031   6.988   6.418
13921TIP3   OH241684   1.222   7.067   6.193
13921TIP3    H141685   1.293   7.012   6.153
13921TIP3    H241686   1.259   7.157   6.175
13922TIP3   OH241687   0.848   6.986   6.409
13922TIP3    H141688   0.829   6.983   6.314
13922TIP3    H241689   0.837   6.892   6.437
13923TIP3   OH241690   0.884   6.901   5.961
13923TIP3    H141691   0.792   6.926   5.945
13923TIP3    H241692   0.872   6.812   6.003
13924TIP3   OH241693   1.145   7.141   7.335
13924TIP3    H141694   1.162   7.115   7.429
13924TIP3    H241695   1.235   7.132   7.296
13925TIP3   OH241696   2.345   8.064   5.590
13925TIP3    H141697   2.312   8.153   5.566
13925TIP3    H241698   2.271   8.010   5.557
13926TIP3   OH241699   2.339   8.068   5.977
13926TIP3    H141700   2.371   8.042   6.066
13926TIP3    H241701   2.300   7.984   5.947
13927TIP3   OH241702   1.633   7.950   6.338
13927TIP3    H141703   1.662   7.881   6.399
13927TIP3    H241704   1.715   8.001   6.329
13928TIP3   OH241705   2.589   8.370   5.653
13928TIP3    H141706   2.571   8.301   5.718
13928TIP3    H241707   2.620   8.444   5.708
13929TIP3   OH241708   1.615   8.365   6.067
13929TIP3    H141709   1.610   8.267   6.066
13929TIP3    H241710   1.711   8.377   6.049
13930TIP3   OH241711   1.320   7.568   5.844
13930TIP3    H141712   1.271   7.650   5.862
13930TIP3    H241713   1.250   7.516   5.801
13931TIP3   OH241714   1.378   7.858   6.030
13931TIP3    H141715   1.426   7.778   6.062
13931TIP3    H241716   1.436   7.889   5.960
13932TIP3   OH241717   2.244   8.805   5.713
13932TIP3    H141718   2.281   8.760   5.635
13932TIP3    H241719   2.257   8.736   5.780
13933TIP3   OH241720   2.140   8.289   6.022
13933TIP3    H141721   2.181   8.211   5.980
13933TIP3    H241722   2.222   8.338   6.045
13934TIP3   OH241723   3.151   7.617   6.015
13934TIP3    H141724   3.196   7.695   6.054
13934TIP3    H241725   3.191   7.616   5.926
13935TIP3   OH241726   2.563   7.789   6.055
13935TIP3    H141727   2.602   7.701   6.072
13935TIP3    H241728   2.526   7.776   5.966
13936TIP3   OH241729   1.897   7.447   6.015
13936TIP3    H141730   1.876   7.520   5.954
13936TIP3    H241731   1.850   7.373   5.970
13937TIP3   OH241732   2.585   7.545   5.635
13937TIP3    H141733   2.656   7.528   5.702
13937TIP3    H241734   2.640   7.577   5.561
13938TIP3   OH241735   1.525   7.648   6.127
13938TIP3    H141736   1.609   7.630   6.173
13938TIP3    H241737   1.538   7.594   6.046
13939TIP3   OH241738   1.963   7.849   5.927
13939TIP3    H141739   2.058   7.825   5.935
13939TIP3    H241740   1.925   7.765   5.893
13940TIP3   OH241741   3.249   7.815   6.197
13940TIP3    H141742   3.157   7.843   6.209
13940TIP3    H241743   3.286   7.838   6.285
13941TIP3   OH241744   1.888   7.433   6.453
13941TIP3    H141745   1.829   7.468   6.385
13941TIP3    H241746   1.834   7.450   6.534
13942TIP3   OH241747   2.229   8.278   5.460
13942TIP3    H141748   2.191   8.266   5.371
13942TIP3    H241749   2.185   8.361   5.488
13943TIP3   OH241750   1.998   8.207   6.243
13943TIP3    H141751   1.937   8.275   6.279
13943TIP3    H241752   2.039   8.254   6.167
13944TIP3   OH241753   2.789   7.542   5.811
13944TIP3    H141754   2.785   7.490   5.892
13944TIP3    H241755   2.848   7.615   5.835
13945TIP3   OH241756   1.761   7.546   6.234
13945TIP3    H141757   1.823   7.618   6.258
13945TIP3    H241758   1.810   7.505   6.159
13946TIP3   OH241759   1.829   8.400   6.348
13946TIP3    H141760   1.804   8.485   6.306
13946TIP3    H241761   1.745   8.382   6.396
13947TIP3   OH241762   1.218   8.092   5.579
13947TIP3    H141763   1.179   8.125   5.495
13947TIP3    H241764   1.241   8.173   5.626
13948TIP3   OH241765   2.646   8.591   5.819
13948TIP3    H141766   2.555   8.591   5.856
13948TIP3    H241767   2.645   8.677   5.771
13949TIP3   OH241768   2.944   7.518   6.189
13949TIP3    H141769   2.856   7.525   6.149
13949TIP3    H241770   3.004   7.542   6.116
13950TIP3   OH241771   2.240   7.149   6.170
13950TIP3    H141772   2.224   7.054   6.186
13950TIP3    H241773   2.163   7.187   6.217
13951TIP3   OH241774   2.366   8.638   5.521
13951TIP3    H141775   2.403   8.550   5.499
13951TIP3    H241776   2.442   8.693   5.493
13952TIP3   OH241777   2.501   8.431   5.401
13952TIP3    H141778   2.471   8.348   5.361
13952TIP3    H241779   2.542   8.399   5.484
13953TIP3   OH241780   2.885   8.491   6.102
13953TIP3    H141781   2.914   8.490   6.007
13953TIP3    H241782   2.853   8.585   6.103
13954TIP3   OH241783   2.175   7.915   5.427
13954TIP3    H141784   2.094   7.966   5.405
13954TIP3    H241785   2.219   7.911   5.340
13955TIP3   OH241786   2.133   7.706   5.132
13955TIP3    H141787   2.200   7.755   5.182
13955TIP3    H241788   2.189   7.641   5.085
13956TIP3   OH241789   2.522   7.999   5.391
13956TIP3    H141790   2.468   8.021   5.471
13956TIP3    H241791   2.606   7.973   5.434
13957TIP3   OH241792   1.753   7.994   5.814
13957TIP3    H141793   1.709   7.935   5.748
13957TIP3    H241794   1.828   7.939   5.844
13958TIP3   OH241795   1.880   8.395   5.961
13958TIP3    H141796   1.863   8.368   5.870
13958TIP3    H241797   1.970   8.360   5.977
13959TIP3   OH241798   1.883   7.966   6.168
13959TIP3    H141799   1.917   7.938   6.080
13959TIP3    H241800   1.931   8.050   6.183
13960TIP3   OH241801   2.403   8.607   5.939
13960TIP3    H141802   2.391   8.689   5.991
13960TIP3    H241803   2.392   8.536   6.005
13961TIP3   OH241804   2.044   8.508   6.486
13961TIP3    H141805   1.984   8.569   6.533
13961TIP3    H241806   1.979   8.456   6.434
13962TIP3   OH241807   2.359   7.856   5.221
13962TIP3    H141808   2.419   7.915   5.271
13962TIP3    H241809   2.385   7.876   5.128
13963TIP3   OH241810   1.782   8.055   6.579
13963TIP3    H141811   1.785   8.145   6.617
13963TIP3    H241812   1.688   8.034   6.595
13964TIP3   OH241813   2.113   8.523   5.498
13964TIP3    H141814   2.191   8.579   5.517
13964TIP3    H241815   2.046   8.586   5.469
13965TIP3   OH241816   1.819   8.656   6.570
13965TIP3    H141817   1.784   8.635   6.481
13965TIP3    H241818   1.759   8.611   6.632
13966TIP3   OH241819   2.877   7.093   5.271
13966TIP3    H141820   2.795   7.115   5.320
13966TIP3    H241821   2.891   7.174   5.219
13967TIP3   OH241822   1.617   7.839   5.623
13967TIP3    H141823   1.548   7.878   5.565
13967TIP3    H241824   1.593   7.745   5.623
13968TIP3   OH241825   2.673   8.446   4.817
13968TIP3    H141826   2.676   8.543   4.798
13968TIP3    H241827   2.767   8.421   4.802
13969TIP3   OH241828   1.414   8.211   6.503
13969TIP3    H141829   1.340   8.176   6.451
13969TIP3    H241830   1.452   8.129   6.542
13970TIP3   OH241831   1.241   8.421   6.179
13970TIP3    H141832   1.322   8.388   6.138
13970TIP3    H241833   1.271   8.512   6.201
13971TIP3   OH241834   3.140   8.853   6.238
13971TIP3    H141835   3.135   8.759   6.262
13971TIP3    H241836   3.057   8.886   6.278
13972TIP3   OH241837   2.231   8.651   6.345
13972TIP3    H141838   2.227   8.744   6.375
13972TIP3    H241839   2.159   8.610   6.397
13973TIP3   OH241840   1.418   8.604   5.680
13973TIP3    H141841   1.474   8.605   5.762
13973TIP3    H241842   1.371   8.520   5.694
13974TIP3   OH241843   2.328   8.704   4.951
13974TIP3    H141844   2.352   8.617   4.913
13974TIP3    H241845   2.309   8.680   5.044
13975TIP3   OH241846   2.202   8.653   5.199
13975TIP3    H141847   2.149   8.727   5.232
13975TIP3    H241848   2.250   8.625   5.278
13976TIP3   OH241849   3.000   7.988   6.482
13976TIP3    H141850   2.904   7.980   6.490
13976TIP3    H241851   3.024   7.894   6.467
13977TIP3   OH241852   1.596   8.411   6.502
13977TIP3    H141853   1.649   8.374   6.576
13977TIP3    H241854   1.527   8.340   6.494
13978TIP3   OH241855   2.003   7.226   6.301
13978TIP3    H141856   1.915   7.196   6.269
13978TIP3    H241857   1.976   7.306   6.349
13979TIP3   OH241858   2.538   7.339   6.493
13979TIP3    H141859   2.608   7.312   6.555
13979TIP3    H241860   2.456   7.318   6.543
13980TIP3   OH241861   2.774   7.813   6.424
13980TIP3    H141862   2.731   7.780   6.506
13980TIP3    H241863   2.697   7.831   6.369
13981TIP3   OH241864   2.435   7.897   4.966
13981TIP3    H141865   2.401   7.873   4.877
13981TIP3    H241866   2.521   7.936   4.942
13982TIP3   OH241867   1.937   7.744   6.315
13982TIP3    H141868   1.885   7.761   6.396
13982TIP3    H241869   1.919   7.825   6.263
13983TIP3   OH241870   1.820   7.633   5.833
13983TIP3    H141871   1.727   7.603   5.850
13983TIP3    H241872   1.833   7.597   5.742
13984TIP3   OH241873   2.313   7.716   5.562
13984TIP3    H141874   2.261   7.786   5.516
13984TIP3    H241875   2.367   7.680   5.488
13985TIP3   OH241876   2.488   7.988   6.640
13985TIP3    H141877   2.464   7.917   6.703
13985TIP3    H241878   2.580   8.004   6.665
13986TIP3   OH241879   2.465   7.741   5.798
13986TIP3    H141880   2.402   7.767   5.728
13986TIP3    H241881   2.502   7.662   5.753
13987TIP3   OH241882   1.755   7.765   6.522
13987TIP3    H141883   1.783   7.834   6.585
13987TIP3    H241884   1.747   7.686   6.578
13988TIP3   OH241885   1.350   7.287   6.111
13988TIP3    H141886   1.424   7.324   6.164
13988TIP3    H241887   1.391   7.266   6.026
13989TIP3   OH241888   1.311   7.270   5.627
13989TIP3    H141889   1.355   7.306   5.548
13989TIP3    H241890   1.250   7.344   5.646
13990TIP3   OH241891   2.444   7.981   6.210
13990TIP3    H141892   2.498   7.919   6.156
13990TIP3    H241893   2.430   7.926   6.290
13991TIP3   OH241894   2.157   7.447   5.888
13991TIP3    H141895   2.074   7.447   5.939
13991TIP3    H241896   2.224   7.442   5.958
13992TIP3   OH241897   1.582   7.507   5.899
13992TIP3    H141898   1.488   7.514   5.868
13992TIP3    H241899   1.607   7.417   5.872
13993TIP3   OH241900   1.847   7.520   5.587
13993TIP3    H141901   1.941   7.516   5.562
13993TIP3    H241902   1.800   7.529   5.501
13994TIP3   OH241903   2.646   7.525   6.099
13994TIP3    H141904   2.613   7.538   6.191
13994TIP3    H241905   2.578   7.465   6.063
13995TIP3   OH241906   1.693   7.538   5.361
13995TIP3    H141907   1.627   7.488   5.308
13995TIP3    H241908   1.749   7.573   5.289
13996TIP3   OH241909   1.746   8.299   6.703
13996TIP3    H141910   1.825   8.324   6.756
13996TIP3    H241911   1.688   8.271   6.776
13997TIP3   OH241912   2.229   7.782   5.989
13997TIP3    H141913   2.300   7.740   5.938
13997TIP3    H241914   2.234   7.736   6.075
13998TIP3   OH241915   1.749   7.270   5.861
13998TIP3    H141916   1.720   7.188   5.906
13998TIP3    H241917   1.775   7.238   5.773
13999TIP3   OH241918   2.206   7.681   6.276
13999TIP3    H141919   2.115   7.714   6.290
13999TIP3    H241920   2.261   7.744   6.325
14000TIP3   OH241921   1.941   8.064   5.371
14000TIP3    H141922   1.869   7.999   5.360
14000TIP3    H241923   1.922   8.098   5.462
14001TIP3   OH241924   2.378   7.374   5.252
14001TIP3    H141925   2.281   7.372   5.241
14001TIP3    H241926   2.398   7.468   5.269
14002TIP3   OH241927   2.362   8.392   6.371
14002TIP3    H141928   2.370   8.360   6.462
14002TIP3    H241929   2.306   8.471   6.380
14003TIP3   OH241930   2.468   7.625   5.340
14003TIP3    H141931   2.565   7.631   5.354
14003TIP3    H241932   2.450   7.705   5.288
14004TIP3   OH241933   1.636   8.092   6.046
14004TIP3    H141934   1.674   8.063   5.960
14004TIP3    H241935   1.681   8.032   6.107
14005TIP3   OH241936   2.089   8.212   5.195
14005TIP3    H141937   2.039   8.297   5.200
14005TIP3    H241938   2.036   8.156   5.256
14006TIP3   OH241939   1.520   8.004   6.654
14006TIP3    H141940   1.530   8.003   6.751
14006TIP3    H241941   1.440   7.950   6.642
14007TIP3   OH241942   2.247   8.125   6.675
14007TIP3    H141943   2.185   8.062   6.634
14007TIP3    H241944   2.334   8.087   6.647
14008TIP3   OH241945   2.506   8.659   6.264
14008TIP3    H141946   2.409   8.645   6.274
14008TIP3    H241947   2.526   8.697   6.353
14009TIP3   OH241948   2.907   7.721   5.175
14009TIP3    H141949   2.845   7.677   5.112
14009TIP3    H241950   2.905   7.811   5.135
14010TIP3   OH241951   3.124   8.561   6.263
14010TIP3    H141952   3.030   8.567   6.243
14010TIP3    H241953   3.159   8.538   6.173
14011TIP3   OH241954   2.643   8.506   5.091
14011TIP3    H141955   2.602   8.441   5.151
14011TIP3    H241956   2.641   8.462   5.005
14012TIP3   OH241957   2.618   8.148   5.949
14012TIP3    H141958   2.523   8.131   5.947
14012TIP3    H241959   2.649   8.080   5.886
14013TIP3   OH241960   1.744   8.389   5.682
14013TIP3    H141961   1.739   8.472   5.629
14013TIP3    H241962   1.651   8.373   5.699
14014TIP3   OH241963   1.300   7.699   5.369
14014TIP3    H141964   1.349   7.780   5.396
14014TIP3    H241965   1.231   7.696   5.439
14015TIP3   OH241966   1.868   8.153   5.614
14015TIP3    H141967   1.837   8.244   5.636
14015TIP3    H241968   1.835   8.103   5.690
14016TIP3   OH241969   1.993   8.731   6.160
14016TIP3    H141970   2.001   8.819   6.117
14016TIP3    H241971   2.085   8.708   6.179
14017TIP3   OH241972   1.658   8.620   5.540
14017TIP3    H141973   1.568   8.622   5.577
14017TIP3    H241974   1.673   8.715   5.524
14018TIP3   OH241975   2.392   8.373   6.101
14018TIP3    H141976   2.382   8.370   6.199
14018TIP3    H241977   2.462   8.308   6.086
14019TIP3   OH241978   2.372   8.264   4.988
14019TIP3    H141979   2.427   8.241   5.066
14019TIP3    H241980   2.285   8.236   5.019
14020TIP3   OH241981   2.655   8.874   6.159
14020TIP3    H141982   2.590   8.804   6.184
14020TIP3    H241983   2.596   8.952   6.149
14021TIP3   OH241984   2.693   8.720   4.794
14021TIP3    H141985   2.766   8.784   4.785
14021TIP3    H241986   2.616   8.778   4.780
14022TIP3   OH241987   1.728   7.513   6.670
14022TIP3    H141988   1.632   7.508   6.685
14022TIP3    H241989   1.762   7.459   6.743
14023TIP3   OH241990   2.534   8.200   5.201
14023TIP3    H141991   2.522   8.131   5.270
14023TIP3    H241992   2.631   8.194   5.188
14024TIP3   OH241993   1.453   8.609   6.325
14024TIP3    H141994   1.510   8.534   6.350
14024TIP3    H241995   1.464   8.667   6.402
14025TIP3   OH241996   1.726   8.242   4.985
14025TIP3    H141997   1.742   8.149   4.960
14025TIP3    H241998   1.711   8.233   5.082
14026TIP3   OH241999   1.676   8.246   5.257
14026TIP3    H142000   1.753   8.218   5.308
14026TIP3    H242001   1.679   8.344   5.269
14027TIP3   OH242002   1.413   7.937   5.460
14027TIP3    H142003   1.345   7.983   5.515
14027TIP3    H242004   1.427   8.005   5.391
14028TIP3   OH242005   2.576   7.575   6.362
14028TIP3    H142006   2.641   7.602   6.428
14028TIP3    H242007   2.546   7.490   6.401
14029TIP3   OH242008   2.452   7.322   5.524
14029TIP3    H142009   2.425   7.341   5.431
14029TIP3    H242010   2.488   7.408   5.554
14030TIP3   OH242011   1.942   8.437   5.212
14030TIP3    H142012   1.854   8.463   5.247
14030TIP3    H242013   1.971   8.522   5.175
14031TIP3   OH242014   2.133   7.509   5.615
14031TIP3    H142015   2.197   7.582   5.601
14031TIP3    H242016   2.137   7.498   5.712
14032TIP3   OH242017   2.409   7.824   6.427
14032TIP3    H142018   2.431   7.879   6.505
14032TIP3    H242019   2.453   7.740   6.448
14033TIP3   OH242020   2.282   7.230   5.723
14033TIP3    H142021   2.263   7.312   5.772
14033TIP3    H242022   2.345   7.263   5.656
14034TIP3   OH242023   1.691   8.515   5.283
14034TIP3    H142024   1.682   8.586   5.216
14034TIP3    H242025   1.676   8.564   5.367
14035TIP3   OH242026   1.773   7.221   5.543
14035TIP3    H142027   1.774   7.318   5.536
14035TIP3    H242028   1.870   7.204   5.538
14036TIP3   OH242029   3.030   7.722   6.384
14036TIP3    H142030   2.935   7.741   6.398
14036TIP3    H242031   3.024   7.639   6.333
14037TIP3   OH242032   2.690   7.921   5.792
14037TIP3    H142033   2.614   7.861   5.802
14037TIP3    H242034   2.761   7.873   5.839
14038TIP3   OH242035   1.411   8.145   5.266
14038TIP3    H142036   1.483   8.210   5.272
14038TIP3    H242037   1.451   8.085   5.199
14039TIP3   OH242038   1.343   7.427   5.408
14039TIP3    H142039   1.356   7.523   5.397
14039TIP3    H242040   1.275   7.409   5.342
14040TIP3   OH242041   2.663   8.847   5.733
14040TIP3    H142042   2.627   8.932   5.703
14040TIP3    H242043   2.758   8.871   5.739
14041TIP3   OH242044   1.737   7.148   6.270
14041TIP3    H142045   1.708   7.114   6.182
14041TIP3    H242046   1.727   7.068   6.327
14042TIP3   OH242047   1.281   8.362   5.704
14042TIP3    H142048   1.187   8.385   5.697
14042TIP3    H242049   1.302   8.364   5.609
14043TIP3   OH242050   1.892   8.443   4.892
14043TIP3    H142051   1.842   8.369   4.932
14043TIP3    H242052   1.968   8.393   4.853
14044TIP3   OH242053   2.554   8.768   6.506
14044TIP3    H142054   2.559   8.705   6.581
14044TIP3    H242055   2.630   8.827   6.526
14045TIP3   OH242056   2.331   8.465   4.800
14045TIP3    H142057   2.364   8.394   4.860
14045TIP3    H242058   2.392   8.459   4.724
14046TIP3   OH242059   1.546   7.960   5.122
14046TIP3    H142060   1.601   7.928   5.195
14046TIP3    H242061   1.613   7.966   5.050
14047TIP3   OH242062   2.159   8.388   6.706
14047TIP3    H142063   2.129   8.416   6.617
14047TIP3    H242064   2.199   8.300   6.689
14048TIP3   OH242065   2.055   8.160   4.927
14048TIP3    H142066   2.060   8.172   5.024
14048TIP3    H242067   2.057   8.062   4.921
14049TIP3   OH242068   2.683   8.392   6.279
14049TIP3    H142069   2.732   8.470   6.249
14049TIP3    H242070   2.596   8.434   6.295
14050TIP3   OH242071   1.704   8.060   6.898
14050TIP3    H142072   1.772   7.992   6.893
14050TIP3    H242073   1.633   8.019   6.950
14051TIP3   OH242074   1.745   7.871   5.337
14051TIP3    H142075   1.723   7.826   5.420
14051TIP3    H242076   1.786   7.798   5.285
14052TIP3   OH242077   2.026   7.931   6.567
14052TIP3    H142078   1.943   7.984   6.563
14052TIP3    H242079   2.075   7.967   6.489
14053TIP3   OH242080   1.853   7.672   5.179
14053TIP3    H142081   1.828   7.673   5.085
14053TIP3    H242082   1.950   7.667   5.173
14054TIP3   OH242083   2.538   8.333   6.698
14054TIP3    H142084   2.619   8.300   6.659
14054TIP3    H242085   2.525   8.271   6.772
14055TIP3   OH242086   2.668   7.989   4.849
14055TIP3    H142087   2.652   7.944   4.764
14055TIP3    H242088   2.634   8.078   4.826
14056TIP3   OH242089   2.143   7.723   6.693
14056TIP3    H142090   2.143   7.644   6.635
14056TIP3    H242091   2.100   7.791   6.636
14057TIP3   OH242092   2.147   7.510   6.501
14057TIP3    H142093   2.174   7.551   6.417
14057TIP3    H242094   2.053   7.486   6.482
14058TIP3   OH242095   2.174   8.043   6.373
14058TIP3    H142096   2.257   8.050   6.325
14058TIP3    H242097   2.116   8.106   6.325
14059TIP3   OH242098   2.752   8.006   6.753
14059TIP3    H142099   2.797   7.929   6.792
14059TIP3    H242100   2.826   8.066   6.737
14060TIP3   OH242101   2.806   8.269   6.497
14060TIP3    H142102   2.741   8.306   6.434
14060TIP3    H242103   2.887   8.270   6.443
14061TIP3   OH242104   2.014   7.829   6.925
14061TIP3    H142105   1.952   7.756   6.942
14061TIP3    H242106   2.050   7.805   6.838
14062TIP3   OH242107   2.277   7.270   6.572
14062TIP3    H142108   2.227   7.351   6.549
14062TIP3    H242109   2.209   7.201   6.560
14063TIP3   OH242110   2.408   7.770   6.779
14063TIP3    H142111   2.396   7.756   6.875
14063TIP3    H242112   2.317   7.748   6.750
14064TIP3   OH242113   2.641   7.707   6.632
14064TIP3    H142114   2.568   7.717   6.697
14064TIP3    H242115   2.716   7.685   6.691
14065TIP3   OH242116   2.871   7.663   6.781
14065TIP3    H142117   2.885   7.568   6.802
14065TIP3    H242118   2.863   7.704   6.870
14066TIP3   OH242119   1.860   7.606   6.980
14066TIP3    H142120   1.865   7.513   6.951
14066TIP3    H242121   1.897   7.598   7.071
14067TIP3   OH242122   2.368   7.280   6.831
14067TIP3    H142123   2.436   7.209   6.824
14067TIP3    H242124   2.329   7.275   6.741
14068TIP3   OH242125   2.440   7.497   6.985
14068TIP3    H142126   2.418   7.423   6.923
14068TIP3    H242127   2.361   7.555   6.976
14069TIP3   OH242128   1.144   8.107   5.299
14069TIP3    H142129   1.239   8.131   5.287
14069TIP3    H242130   1.141   8.020   5.254
14070TIP3   OH242131   1.159   8.544   5.921
14070TIP3    H142132   1.228   8.487   5.883
14070TIP3    H242133   1.215   8.619   5.952
14071TIP3   OH242134   2.913   8.952   5.735
14071TIP3    H142135   2.940   9.025   5.792
14071TIP3    H242136   2.963   8.973   5.654
14072TIP3   OH242137   2.974   8.965   6.028
14072TIP3    H142138   2.922   8.889   5.996
14072TIP3    H242139   3.045   8.920   6.076
14073TIP3   OH242140   2.985   8.659   6.547
14073TIP3    H142141   2.917   8.672   6.616
14073TIP3    H242142   3.035   8.743   6.558
14074TIP3   OH242143   2.808   8.177   5.176
14074TIP3    H142144   2.874   8.242   5.144
14074TIP3    H242145   2.855   8.140   5.255
14075TIP3   OH242146   2.938   8.045   5.380
14075TIP3    H142147   2.872   8.005   5.440
14075TIP3    H242148   3.005   8.081   5.442
14076TIP3   OH242149   2.993   8.437   5.850
14076TIP3    H142150   3.036   8.363   5.802
14076TIP3    H242151   2.994   8.507   5.781
14077TIP3   OH242152   2.820   8.727   6.001
14077TIP3    H142153   2.750   8.783   6.041
14077TIP3    H242154   2.773   8.686   5.926
14078TIP3   OH242155   2.874   7.954   5.027
14078TIP3    H142156   2.802   7.955   4.960
14078TIP3    H242157   2.847   8.030   5.082
14079TIP3   OH242158   2.742   7.626   4.981
14079TIP3    H142159   2.700   7.659   4.901
14079TIP3    H242160   2.722   7.531   4.975
14080TIP3   OH242161   2.747   7.905   5.523
14080TIP3    H142162   2.755   7.808   5.514
14080TIP3    H242163   2.732   7.915   5.620
14081TIP3   OH242164   1.371   7.988   6.274
14081TIP3    H142165   1.368   7.947   6.184
14081TIP3    H242166   1.468   7.984   6.291
14082TIP3   OH242167   3.021   8.299   6.309
14082TIP3    H142168   3.095   8.239   6.337
14082TIP3    H242169   3.072   8.382   6.299
14083TIP3   OH242170   3.214   8.139   6.420
14083TIP3    H142171   3.142   8.077   6.445
14083TIP3    H242172   3.291   8.079   6.424
14084TIP3   OH242173   2.688   7.360   4.963
14084TIP3    H142174   2.758   7.325   5.020
14084TIP3    H242175   2.611   7.303   4.983
14085TIP3   OH242176   2.748   7.622   5.418
14085TIP3    H142177   2.789   7.533   5.432
14085TIP3    H242178   2.806   7.654   5.346
14086TIP3   OH242179   2.909   7.793   5.908
14086TIP3    H142180   2.989   7.836   5.872
14086TIP3    H242181   2.941   7.767   5.995
14087TIP3   OH242182   1.594   7.658   6.936
14087TIP3    H142183   1.691   7.656   6.948
14087TIP3    H242184   1.570   7.572   6.977
14088TIP3   OH242185   3.424   7.528   6.701
14088TIP3    H142186   3.489   7.464   6.663
14088TIP3    H242187   3.400   7.581   6.622
14089TIP3   OH242188   2.854   7.371   5.460
14089TIP3    H142189   2.902   7.353   5.543
14089TIP3    H242190   2.793   7.295   5.456
14090TIP3   OH242191   1.554   7.357   6.287
14090TIP3    H142192   1.615   7.281   6.291
14090TIP3    H242193   1.618   7.430   6.273
14091TIP3   OH242194   1.357   7.626   6.351
14091TIP3    H142195   1.406   7.623   6.266
14091TIP3    H242196   1.389   7.709   6.389
14092TIP3   OH242197   3.296   7.667   6.502
14092TIP3    H142198   3.216   7.707   6.540
14092TIP3    H242199   3.258   7.596   6.448
14093TIP3   OH242200   2.932   7.300   5.095
14093TIP3    H142201   2.971   7.231   5.037
14093TIP3    H242202   2.999   7.371   5.091
14094TIP3   OH242203   1.341   7.126   5.853
14094TIP3    H142204   1.248   7.124   5.883
14094TIP3    H242205   1.336   7.187   5.777
14095TIP3   OH242206   2.565   8.809   5.395
14095TIP3    H142207   2.609   8.767   5.318
14095TIP3    H242208   2.637   8.863   5.430
14096TIP3   OH242209   1.563   7.212   6.667
14096TIP3    H142210   1.512   7.206   6.750
14096TIP3    H242211   1.496   7.248   6.606
14097TIP3   OH242212   1.768   8.662   6.296
14097TIP3    H142213   1.705   8.713   6.244
14097TIP3    H242214   1.853   8.687   6.251
14098TIP3   OH242215   2.248   8.925   6.411
14098TIP3    H142216   2.252   8.918   6.509
14098TIP3    H242217   2.339   8.953   6.395
14099TIP3   OH242218   3.195   7.422   6.390
14099TIP3    H142219   3.106   7.397   6.360
14099TIP3    H242220   3.241   7.335   6.382
14100TIP3   OH242221   2.352   8.879   6.026
14100TIP3    H142222   2.277   8.926   5.989
14100TIP3    H242223   2.412   8.952   6.046
14101TIP3   OH242224   1.344   8.676   6.079
14101TIP3    H142225   1.392   8.666   6.163
14101TIP3    H242226   1.404   8.736   6.030
14102TIP3   OH242227   1.565   8.574   5.900
14102TIP3    H142228   1.569   8.502   5.966
14102TIP3    H242229   1.657   8.609   5.908
14103TIP3   OH242230   1.815   8.668   5.935
14103TIP3    H142231   1.856   8.580   5.938
14103TIP3    H242232   1.880   8.721   5.983
14104TIP3   OH242233   2.408   7.348   6.019
14104TIP3    H142234   2.362   7.275   6.064
14104TIP3    H242235   2.475   7.300   5.965
14105TIP3   OH242236   2.921   7.239   5.919
14105TIP3    H142237   2.957   7.281   5.838
14105TIP3    H242238   2.825   7.244   5.904
14106TIP3   OH242239   3.018   7.321   5.678
14106TIP3    H142240   3.091   7.268   5.639
14106TIP3    H242241   3.053   7.412   5.662
14107TIP3   OH242242   1.650   7.052   6.024
14107TIP3    H142243   1.557   7.020   6.027
14107TIP3    H242244   1.698   6.967   6.019
14108TIP3   OH242245   1.439   6.925   5.664
14108TIP3    H142246   1.473   6.983   5.594
14108TIP3    H242247   1.414   6.990   5.733
14109TIP3   OH242248   2.103   7.076   5.912
14109TIP3    H142249   2.145   7.127   5.840
14109TIP3    H242250   2.133   7.124   5.990
14110TIP3   OH242251   2.640   7.233   5.885
14110TIP3    H142252   2.638   7.190   5.798
14110TIP3    H242253   2.629   7.155   5.944
14111TIP3   OH242254   2.673   7.159   5.452
14111TIP3    H142255   2.587   7.204   5.470
14111TIP3    H242256   2.657   7.072   5.494
14112TIP3   OH242257   1.144   8.417   5.478
14112TIP3    H142258   1.065   8.388   5.430
14112TIP3    H242259   1.149   8.510   5.447
14113TIP3   OH242260   1.559   7.077   5.440
14113TIP3    H142261   1.609   7.024   5.375
14113TIP3    H242262   1.632   7.132   5.478
14114TIP3   OH242263   2.048   7.242   5.574
14114TIP3    H142264   2.129   7.213   5.618
14114TIP3    H242265   2.073   7.334   5.555
14115TIP3   OH242266   1.812   8.665   5.040
14115TIP3    H142267   1.870   8.737   5.009
14115TIP3    H242268   1.844   8.589   4.985
14116TIP3   OH242269   2.654   8.772   5.127
14116TIP3    H142270   2.656   8.673   5.125
14116TIP3    H242271   2.687   8.789   5.038
14117TIP3   OH242272   1.858   7.331   6.911
14117TIP3    H142273   1.822   7.263   6.969
14117TIP3    H242274   1.952   7.331   6.940
14118TIP3   OH242275   2.107   7.329   7.031
14118TIP3    H142276   2.195   7.308   6.994
14118TIP3    H242277   2.097   7.258   7.098
14119TIP3   OH242278   1.248   8.474   5.102
14119TIP3    H142279   1.249   8.552   5.158
14119TIP3    H242280   1.343   8.462   5.080
14120TIP3   OH242281   2.936   7.395   6.820
14120TIP3    H142282   2.953   7.365   6.912
14120TIP3    H242283   3.026   7.390   6.782
14121TIP3   OH242284   2.882   8.944   6.313
14121TIP3    H142285   2.811   8.904   6.259
14121TIP3    H242286   2.864   9.037   6.297
14122TIP3   OH242287   4.140   8.314   5.077
14122TIP3    H142288   4.113   8.407   5.061
14122TIP3    H242289   4.061   8.268   5.044
14123TIP3   OH242290   4.116   8.316   5.470
14123TIP3    H142291   4.164   8.300   5.554
14123TIP3    H242292   4.086   8.226   5.448
14124TIP3   OH242293   3.435   8.217   5.840
14124TIP3    H142294   3.467   8.145   5.898
14124TIP3    H242295   3.519   8.251   5.804
14125TIP3   OH242296   4.380   8.627   5.147
14125TIP3    H142297   4.382   8.558   5.214
14125TIP3    H242298   4.426   8.699   5.195
14126TIP3   OH242299   3.411   8.623   5.551
14126TIP3    H142300   3.402   8.525   5.552
14126TIP3    H242301   3.507   8.631   5.536
14127TIP3   OH242302   3.115   7.821   5.330
14127TIP3    H142303   3.070   7.905   5.349
14127TIP3    H242304   3.043   7.772   5.285
14128TIP3   OH242305   3.173   8.111   5.510
14128TIP3    H142306   3.223   8.033   5.543
14128TIP3    H242307   3.237   8.153   5.452
14129TIP3   OH242308   4.038   9.059   5.197
14129TIP3    H142309   4.078   9.014   5.120
14129TIP3    H242310   4.058   8.995   5.267
14130TIP3   OH242311   3.938   8.544   5.511
14130TIP3    H142312   3.983   8.465   5.475
14130TIP3    H242313   4.018   8.596   5.533
14131TIP3   OH242314   4.954   7.863   5.510
14131TIP3    H142315   4.978   7.947   5.555
14131TIP3    H242316   4.974   7.885   5.417
14132TIP3   OH242317   4.346   8.044   5.539
14132TIP3    H142318   4.392   7.960   5.561
14132TIP3    H242319   4.315   8.025   5.449
14133TIP3   OH242320   3.690   7.704   5.505
14133TIP3    H142321   3.672   7.777   5.441
14133TIP3    H242322   3.642   7.631   5.461
14134TIP3   OH242323   4.386   7.797   5.125
14134TIP3    H142324   4.456   7.784   5.193
14134TIP3    H242325   4.439   7.832   5.052
14135TIP3   OH242326   3.318   7.903   5.615
14135TIP3    H142327   3.402   7.885   5.662
14135TIP3    H242328   3.333   7.849   5.534
14136TIP3   OH242329   3.758   8.102   5.416
14136TIP3    H142330   3.854   8.081   5.423
14136TIP3    H242331   3.722   8.019   5.379
14137TIP3   OH242332   5.017   8.073   5.682
14137TIP3    H142333   4.943   8.132   5.657
14137TIP3    H242334   5.057   8.121   5.756
14138TIP3   OH242335   3.685   7.687   5.938
14138TIP3    H142336   3.626   7.725   5.870
14138TIP3    H242337   3.634   7.707   6.019
14139TIP3   OH242338   4.026   8.533   4.944
14139TIP3    H142339   3.987   8.524   4.856
14139TIP3    H242340   3.984   8.616   4.974
14140TIP3   OH242341   3.791   8.461   5.729
14140TIP3    H142342   3.735   8.533   5.765
14140TIP3    H242343   3.838   8.508   5.656
14141TIP3   OH242344   4.587   7.805   5.308
14141TIP3    H142345   4.566   7.769   5.395
14141TIP3    H242346   4.640   7.883   5.332
14142TIP3   OH242347   3.554   7.802   5.723
14142TIP3    H142348   3.616   7.875   5.747
14142TIP3    H242349   3.605   7.762   5.648
14143TIP3   OH242350   3.622   8.658   5.834
14143TIP3    H142351   3.598   8.745   5.798
14143TIP3    H242352   3.542   8.640   5.887
14144TIP3   OH242353   3.007   8.346   5.069
14144TIP3    H142354   2.971   8.387   4.989
14144TIP3    H242355   3.041   8.423   5.119
14145TIP3   OH242356   4.434   8.856   5.310
14145TIP3    H142357   4.341   8.849   5.341
14145TIP3    H242358   4.431   8.943   5.264
14146TIP3   OH242359   4.746   7.755   5.668
14146TIP3    H142360   4.661   7.790   5.639
14146TIP3    H242361   4.808   7.792   5.603
14147TIP3   OH242362   4.034   7.402   5.654
14147TIP3    H142363   4.020   7.308   5.675
14147TIP3    H242364   3.958   7.442   5.702
14148TIP3   OH242365   4.163   8.895   5.005
14148TIP3    H142366   4.199   8.805   4.990
14148TIP3    H242367   4.242   8.947   4.979
14149TIP3   OH242368   4.300   8.684   4.891
14149TIP3    H142369   4.261   8.601   4.860
14149TIP3    H242370   4.340   8.657   4.976
14150TIP3   OH242371   4.675   8.750   5.639
14150TIP3    H142372   4.730   8.690   5.586
14150TIP3    H242373   4.661   8.824   5.577
14151TIP3   OH242374   3.967   8.168   4.911
14151TIP3    H142375   3.889   8.223   4.890
14151TIP3    H242376   4.016   8.169   4.827
14152TIP3   OH242377   3.926   7.960   4.621
14152TIP3    H142378   3.992   8.011   4.672
14152TIP3    H242379   3.985   7.897   4.574
14153TIP3   OH242380   4.317   8.253   4.879
14153TIP3    H142381   4.264   8.276   4.958
14153TIP3    H242382   4.402   8.229   4.921
14154TIP3   OH242383   4.553   8.289   5.801
14154TIP3    H142384   4.553   8.371   5.856
14154TIP3    H242385   4.472   8.303   5.748
14155TIP3   OH242386   3.550   8.248   5.300
14155TIP3    H142387   3.510   8.190   5.232
14155TIP3    H242388   3.626   8.195   5.332
14156TIP3   OH242389   3.680   8.652   5.448
14156TIP3    H142390   3.664   8.624   5.357
14156TIP3    H242391   3.770   8.618   5.465
14157TIP3   OH242392   3.671   8.226   5.654
14157TIP3    H142393   3.710   8.196   5.569
14157TIP3    H242394   3.722   8.308   5.672
14158TIP3   OH242395   4.182   8.863   5.423
14158TIP3    H142396   4.189   8.941   5.480
14158TIP3    H242397   4.186   8.788   5.486
14159TIP3   OH242398   3.825   8.778   5.979
14159TIP3    H142399   3.765   8.840   6.026
14159TIP3    H242400   3.760   8.724   5.929
14160TIP3   OH242401   4.154   8.113   4.708
14160TIP3    H142402   4.214   8.173   4.758
14160TIP3    H242403   4.181   8.134   4.615
14161TIP3   OH242404   3.588   8.334   6.088
14161TIP3    H142405   3.587   8.421   6.134
14161TIP3    H242406   3.494   8.324   6.065
14162TIP3   OH242407   3.911   8.779   4.981
14162TIP3    H142408   3.991   8.833   5.002
14162TIP3    H242409   3.844   8.845   4.963
14163TIP3   OH242410   3.619   8.943   6.067
14163TIP3    H142411   3.581   8.944   5.977
14163TIP3    H242412   3.547   8.906   6.121
14164TIP3   OH242413   4.673   7.349   4.758
14164TIP3    H142414   4.591   7.371   4.807
14164TIP3    H242415   4.687   7.432   4.708
14165TIP3   OH242416   3.417   8.093   5.100
14165TIP3    H142417   3.347   8.137   5.048
14165TIP3    H242418   3.381   8.005   5.112
14166TIP3   OH242419   4.467   8.704   4.299
14166TIP3    H142420   4.470   8.801   4.283
14166TIP3    H242421   4.561   8.680   4.286
14167TIP3   OH242422   3.202   8.477   6.021
14167TIP3    H142423   3.138   8.462   5.947
14167TIP3    H242424   3.235   8.386   6.036
14168TIP3   OH242425   3.049   8.659   5.670
14168TIP3    H142426   3.135   8.667   5.627
14168TIP3    H242427   3.027   8.751   5.689
14169TIP3   OH242428   4.936   9.114   5.710
14169TIP3    H142429   4.932   9.016   5.715
14169TIP3    H242430   4.857   9.137   5.764
14170TIP3   OH242431   4.026   8.888   5.829
14170TIP3    H142432   4.029   8.983   5.854
14170TIP3    H242433   3.951   8.856   5.883
14171TIP3   OH242434   3.218   8.858   5.168
14171TIP3    H142435   3.268   8.861   5.254
14171TIP3    H242436   3.163   8.780   5.184
14172TIP3   OH242437   4.124   8.957   4.436
14172TIP3    H142438   4.147   8.870   4.398
14172TIP3    H242439   4.104   8.935   4.528
14173TIP3   OH242440   3.993   8.908   4.688
14173TIP3    H142441   3.955   8.990   4.722
14173TIP3    H242442   4.050   8.881   4.763
14174TIP3   OH242443   4.800   8.244   5.972
14174TIP3    H142444   4.720   8.256   5.920
14174TIP3    H242445   4.815   8.148   5.966
14175TIP3   OH242446   3.398   8.663   5.993
14175TIP3    H142447   3.445   8.658   6.078
14175TIP3    H242448   3.328   8.596   6.004
14176TIP3   OH242449   3.798   7.480   5.787
14176TIP3    H142450   3.709   7.453   5.756
14176TIP3    H242451   3.773   7.562   5.835
14177TIP3   OH242452   4.338   7.595   5.980
14177TIP3    H142453   4.408   7.570   6.043
14177TIP3    H242454   4.256   7.578   6.029
14178TIP3   OH242455   4.565   8.023   5.890
14178TIP3    H142456   4.519   8.023   5.978
14178TIP3    H242457   4.548   8.114   5.858
14179TIP3   OH242458   4.231   8.150   4.451
14179TIP3    H142459   4.198   8.129   4.362
14179TIP3    H242460   4.316   8.193   4.430
14180TIP3   OH242461   3.944   7.531   4.757
14180TIP3    H142462   3.910   7.527   4.848
14180TIP3    H242463   3.905   7.448   4.721
14181TIP3   OH242464   3.727   8.001   5.800
14181TIP3    H142465   3.692   8.028   5.886
14181TIP3    H242466   3.712   8.082   5.747
14182TIP3   OH242467   3.615   7.885   5.317
14182TIP3    H142468   3.523   7.859   5.336
14182TIP3    H242469   3.627   7.844   5.228
14183TIP3   OH242470   4.104   7.967   5.045
14183TIP3    H142471   4.055   8.041   5.002
14183TIP3    H242472   4.161   7.936   4.973
14184TIP3   OH242473   4.282   8.245   6.127
14184TIP3    H142474   4.262   8.172   6.191
14184TIP3    H242475   4.376   8.261   6.150
14185TIP3   OH242476   4.257   7.992   5.285
14185TIP3    H142477   4.199   8.025   5.214
14185TIP3    H242478   4.294   7.915   5.238
14186TIP3   OH242479   3.547   8.032   6.021
14186TIP3    H142480   3.609   8.084   6.074
14186TIP3    H242481   3.545   7.947   6.069
14187TIP3   OH242482   3.601   7.506   4.721
14187TIP3    H142483   3.592   7.505   4.818
14187TIP3    H242484   3.523   7.560   4.695
14188TIP3   OH242485   3.145   7.545   5.599
14188TIP3    H142486   3.222   7.580   5.648
14188TIP3    H242487   3.181   7.520   5.513
14189TIP3   OH242488   3.106   7.527   5.111
14189TIP3    H142489   3.153   7.563   5.032
14189TIP3    H242490   3.047   7.602   5.129
14190TIP3   OH242491   4.254   8.239   5.700
14190TIP3    H142492   4.296   8.172   5.642
14190TIP3    H242493   4.234   8.185   5.779
14191TIP3   OH242494   3.949   7.704   5.376
14191TIP3    H142495   3.870   7.704   5.433
14191TIP3    H242496   4.021   7.699   5.440
14192TIP3   OH242497   3.377   7.764   5.386
14192TIP3    H142498   3.283   7.770   5.355
14192TIP3    H242499   3.402   7.673   5.361
14193TIP3   OH242500   3.640   7.757   5.077
14193TIP3    H142501   3.735   7.772   5.057
14193TIP3    H242502   3.596   7.780   4.992
14194TIP3   OH242503   4.436   7.783   5.578
14194TIP3    H142504   4.406   7.796   5.671
14194TIP3    H242505   4.366   7.724   5.546
14195TIP3   OH242506   3.494   7.794   4.850
14195TIP3    H142507   3.424   7.748   4.799
14195TIP3    H242508   3.546   7.833   4.777
14196TIP3   OH242509   3.566   8.574   6.222
14196TIP3    H142510   3.648   8.605   6.267
14196TIP3    H242511   3.500   8.598   6.290
14197TIP3   OH242512   4.026   8.035   5.471
14197TIP3    H142513   4.101   8.000   5.420
14197TIP3    H242514   4.037   7.991   5.557
14198TIP3   OH242515   3.542   7.523   5.359
14198TIP3    H142516   3.507   7.445   5.407
14198TIP3    H242517   3.590   7.481   5.286
14199TIP3   OH242518   4.002   7.934   5.769
14199TIP3    H142519   3.914   7.974   5.780
14199TIP3    H242520   4.061   7.996   5.816
14200TIP3   OH242521   3.738   8.321   4.856
14200TIP3    H142522   3.665   8.256   4.845
14200TIP3    H242523   3.718   8.355   4.947
14201TIP3   OH242524   4.195   7.633   4.725
14201TIP3    H142525   4.099   7.614   4.735
14201TIP3    H242526   4.203   7.727   4.752
14202TIP3   OH242527   4.135   8.629   5.859
14202TIP3    H142528   4.180   8.628   5.944
14202TIP3    H242529   4.097   8.719   5.856
14203TIP3   OH242530   4.264   7.883   4.828
14203TIP3    H142531   4.360   7.889   4.845
14203TIP3    H242532   4.246   7.965   4.778
14204TIP3   OH242533   3.431   8.342   5.532
14204TIP3    H142534   3.467   8.319   5.443
14204TIP3    H242535   3.492   8.293   5.589
14205TIP3   OH242536   3.885   8.468   4.680
14205TIP3    H142537   3.834   8.552   4.684
14205TIP3    H242538   3.833   8.412   4.742
14206TIP3   OH242539   3.309   8.260   6.159
14206TIP3    H142540   3.352   8.276   6.245
14206TIP3    H242541   3.319   8.165   6.151
14207TIP3   OH242542   4.045   8.382   6.167
14207TIP3    H142543   3.990   8.329   6.108
14207TIP3    H242544   4.135   8.349   6.143
14208TIP3   OH242545   4.296   8.920   5.746
14208TIP3    H142546   4.201   8.898   5.754
14208TIP3    H242547   4.314   8.956   5.835
14209TIP3   OH242548   4.702   7.978   4.661
14209TIP3    H142549   4.641   7.934   4.597
14209TIP3    H242550   4.699   8.068   4.623
14210TIP3   OH242551   4.933   8.842   5.720
14210TIP3    H142552   4.837   8.827   5.735
14210TIP3    H242553   4.951   8.760   5.668
14211TIP3   OH242554   4.436   8.765   4.575
14211TIP3    H142555   4.403   8.702   4.641
14211TIP3    H242556   4.434   8.714   4.492
14212TIP3   OH242557   4.375   8.421   5.409
14212TIP3    H142558   4.285   8.385   5.405
14212TIP3    H242559   4.428   8.352   5.365
14213TIP3   OH242560   3.536   8.645   5.166
14213TIP3    H142561   3.531   8.727   5.114
14213TIP3    H242562   3.443   8.629   5.185
14214TIP3   OH242563   3.099   7.953   4.867
14214TIP3    H142564   3.144   8.037   4.889
14214TIP3    H242565   3.022   7.956   4.928
14215TIP3   OH242566   3.662   8.410   5.099
14215TIP3    H142567   3.630   8.500   5.120
14215TIP3    H242568   3.630   8.360   5.176
14216TIP3   OH242569   3.790   8.988   5.642
14216TIP3    H142570   3.806   9.076   5.602
14216TIP3    H242571   3.880   8.957   5.663
14217TIP3   OH242572   3.453   8.876   5.025
14217TIP3    H142573   3.364   8.872   5.065
14217TIP3    H242574   3.465   8.972   5.018
14218TIP3   OH242575   4.192   8.630   5.586
14218TIP3    H142576   4.187   8.614   5.683
14218TIP3    H242577   4.268   8.575   5.560
14219TIP3   OH242578   4.168   8.520   4.475
14219TIP3    H142579   4.225   8.496   4.552
14219TIP3    H242580   4.082   8.493   4.509
14220TIP3   OH242581   4.456   9.126   5.646
14220TIP3    H142582   4.396   9.053   5.672
14220TIP3    H242583   4.392   9.197   5.625
14221TIP3   OH242584   4.489   8.977   4.277
14221TIP3    H142585   4.561   9.042   4.271
14221TIP3    H242586   4.412   9.037   4.279
14222TIP3   OH242587   3.531   7.771   6.154
14222TIP3    H142588   3.434   7.771   6.163
14222TIP3    H242589   3.558   7.715   6.228
14223TIP3   OH242590   4.330   8.450   4.684
14223TIP3    H142591   4.320   8.386   4.757
14223TIP3    H242592   4.428   8.448   4.673
14224TIP3   OH242593   3.265   8.869   5.805
14224TIP3    H142594   3.301   8.780   5.822
14224TIP3    H242595   3.286   8.913   5.888
14225TIP3   OH242596   3.522   8.500   4.472
14225TIP3    H142597   3.539   8.407   4.447
14225TIP3    H242598   3.508   8.490   4.569
14226TIP3   OH242599   3.472   8.503   4.744
14226TIP3    H142600   3.548   8.476   4.797
14226TIP3    H242601   3.475   8.600   4.755
14227TIP3   OH242602   3.206   8.196   4.949
14227TIP3    H142603   3.139   8.241   5.005
14227TIP3    H242604   3.220   8.264   4.880
14228TIP3   OH242605   4.364   7.832   5.837
14228TIP3    H142606   4.442   7.877   5.873
14228TIP3    H242607   4.355   7.754   5.895
14229TIP3   OH242608   4.246   7.582   5.009
14229TIP3    H142609   4.232   7.606   4.916
14229TIP3    H242610   4.286   7.664   5.046
14230TIP3   OH242611   3.737   8.693   4.693
14230TIP3    H142612   3.651   8.720   4.729
14230TIP3    H242613   3.782   8.778   4.680
14231TIP3   OH242614   3.922   7.769   5.108
14231TIP3    H142615   3.988   7.840   5.090
14231TIP3    H242616   3.932   7.758   5.205
14232TIP3   OH242617   4.199   8.079   5.915
14232TIP3    H142618   4.227   8.133   5.991
14232TIP3    H242619   4.255   8.000   5.925
14233TIP3   OH242620   4.071   7.484   5.205
14233TIP3    H142621   4.066   7.561   5.266
14233TIP3    H242622   4.134   7.519   5.138
14234TIP3   OH242623   3.489   8.774   4.768
14234TIP3    H142624   3.472   8.845   4.704
14234TIP3    H242625   3.472   8.819   4.854
14235TIP3   OH242626   3.586   7.493   4.997
14235TIP3    H142627   3.583   7.583   5.035
14235TIP3    H242628   3.682   7.475   5.005
14236TIP3   OH242629   4.834   7.979   5.903
14236TIP3    H142630   4.736   7.972   5.898
14236TIP3    H242631   4.860   7.963   5.811
14237TIP3   OH242632   4.490   8.174   5.281
14237TIP3    H142633   4.415   8.116   5.301
14237TIP3    H242634   4.563   8.133   5.332
14238TIP3   OH242635   3.203   8.399   4.753
14238TIP3    H142636   3.272   8.467   4.763
14238TIP3    H242637   3.247   8.342   4.686
14239TIP3   OH242638   3.143   7.682   4.888
14239TIP3    H142639   3.148   7.779   4.886
14239TIP3    H242640   3.066   7.664   4.833
14240TIP3   OH242641   4.451   9.109   5.215
14240TIP3    H142642   4.424   9.198   5.185
14240TIP3    H242643   4.547   9.124   5.223
14241TIP3   OH242644   3.529   7.405   5.757
14241TIP3    H142645   3.503   7.369   5.670
14241TIP3    H242646   3.521   7.325   5.814
14242TIP3   OH242647   3.080   8.594   5.177
14242TIP3    H142648   3.021   8.641   5.238
14242TIP3    H242649   3.047   8.626   5.089
14243TIP3   OH242650   3.308   9.100   6.181
14243TIP3    H142651   3.378   9.123   6.247
14243TIP3    H242652   3.277   9.015   6.215
14244TIP3   OH242653   3.727   9.124   6.250
14244TIP3    H142654   3.815   9.086   6.260
14244TIP3    H242655   3.692   9.069   6.177
14245TIP3   OH242656   3.690   8.699   4.381
14245TIP3    H142657   3.639   8.626   4.421
14245TIP3    H242658   3.765   8.649   4.342
14246TIP3   OH242659   4.340   9.033   5.991
14246TIP3    H142660   4.335   8.961   6.058
14246TIP3    H242661   4.422   9.079   6.017
14247TIP3   OH242662   4.128   8.719   4.286
14247TIP3    H142663   4.160   8.649   4.348
14247TIP3    H242664   4.191   8.714   4.212
14248TIP3   OH242665   3.358   8.571   6.416
14248TIP3    H142666   3.385   8.478   6.417
14248TIP3    H242667   3.272   8.567   6.368
14249TIP3   OH242668   3.341   8.216   4.608
14249TIP3    H142669   3.399   8.188   4.682
14249TIP3    H242670   3.408   8.222   4.536
14250TIP3   OH242671   3.967   8.658   6.187
14250TIP3    H142672   3.931   8.679   6.098
14250TIP3    H242673   4.002   8.567   6.174
14251TIP3   OH242674   3.849   8.416   4.412
14251TIP3    H142675   3.855   8.429   4.509
14251TIP3    H242676   3.852   8.318   4.408
14252TIP3   OH242677   4.462   8.673   5.794
14252TIP3    H142678   4.539   8.697   5.738
14252TIP3    H242679   4.399   8.742   5.765
14253TIP3   OH242680   3.478   8.306   6.387
14253TIP3    H142681   3.561   8.269   6.355
14253TIP3    H242682   3.505   8.336   6.477
14254TIP3   OH242683   3.540   8.128   4.821
14254TIP3    H142684   3.517   8.089   4.907
14254TIP3    H242685   3.581   8.052   4.775
14255TIP3   OH242686   3.803   8.173   6.042
14255TIP3    H142687   3.737   8.245   6.054
14255TIP3    H242688   3.863   8.214   5.975
14256TIP3   OH242689   3.650   7.922   4.665
14256TIP3    H142690   3.625   7.931   4.571
14256TIP3    H242691   3.748   7.925   4.659
14257TIP3   OH242692   4.333   8.589   6.186
14257TIP3    H142693   4.413   8.562   6.139
14257TIP3    H242694   4.331   8.527   6.260
14258TIP3   OH242695   4.464   8.245   4.336
14258TIP3    H142696   4.446   8.201   4.250
14258TIP3    H242697   4.431   8.335   4.314
14259TIP3   OH242698   3.937   7.979   6.180
14259TIP3    H142699   3.943   7.900   6.123
14259TIP3    H242700   3.894   8.044   6.120
14260TIP3   OH242701   3.943   7.766   5.991
14260TIP3    H142702   3.973   7.808   5.908
14260TIP3    H242703   3.850   7.742   5.969
14261TIP3   OH242704   3.965   8.298   5.867
14261TIP3    H142705   4.052   8.309   5.827
14261TIP3    H242706   3.912   8.364   5.817
14262TIP3   OH242707   4.548   8.266   6.237
14262TIP3    H142708   4.598   8.185   6.254
14262TIP3    H242709   4.616   8.325   6.201
14263TIP3   OH242710   4.591   8.519   5.975
14263TIP3    H142711   4.536   8.578   5.917
14263TIP3    H242712   4.681   8.540   5.939
14264TIP3   OH242713   3.814   8.085   6.411
14264TIP3    H142714   3.748   8.016   6.428
14264TIP3    H242715   3.851   8.057   6.325
14265TIP3   OH242716   4.074   7.527   6.060
14265TIP3    H142717   4.025   7.608   6.036
14265TIP3    H242718   4.005   7.458   6.047
14266TIP3   OH242719   4.201   8.028   6.273
14266TIP3    H142720   4.192   8.015   6.369
14266TIP3    H242721   4.111   8.005   6.244
14267TIP3   OH242722   4.436   7.979   6.124
14267TIP3    H142723   4.364   7.982   6.189
14267TIP3    H242724   4.513   7.952   6.180
14268TIP3   OH242725   4.661   7.921   6.276
14268TIP3    H142726   4.678   7.826   6.292
14268TIP3    H242727   4.660   7.959   6.366
14269TIP3   OH242728   3.653   7.865   6.470
14269TIP3    H142729   3.661   7.773   6.438
14269TIP3    H242730   3.694   7.856   6.559
14270TIP3   OH242731   4.163   7.535   6.319
14270TIP3    H142732   4.232   7.465   6.311
14270TIP3    H242733   4.126   7.532   6.229
14271TIP3   OH242734   4.232   7.750   6.477
14271TIP3    H142735   4.211   7.680   6.412
14271TIP3    H242736   4.154   7.809   6.469
14272TIP3   OH242737   2.933   8.367   4.779
14272TIP3    H142738   3.029   8.387   4.773
14272TIP3    H242739   2.931   8.275   4.744
14273TIP3   OH242740   2.984   8.805   5.369
14273TIP3    H142741   2.958   8.745   5.440
14273TIP3    H242742   3.032   8.873   5.419
14274TIP3   OH242743   4.705   9.204   5.216
14274TIP3    H142744   4.742   9.258   5.288
14274TIP3    H242745   4.757   9.236   5.141
14275TIP3   OH242746   4.774   9.216   5.501
14275TIP3    H142747   4.720   9.137   5.479
14275TIP3    H242748   4.837   9.176   5.564
14276TIP3   OH242749   4.778   8.917   6.041
14276TIP3    H142750   4.713   8.923   6.114
14276TIP3    H242751   4.826   9.002   6.049
14277TIP3   OH242752   4.604   8.435   4.659
14277TIP3    H142753   4.672   8.500   4.632
14277TIP3    H242754   4.646   8.396   4.739
14278TIP3   OH242755   4.723   8.299   4.859
14278TIP3    H142756   4.664   8.262   4.927
14278TIP3    H242757   4.800   8.332   4.911
14279TIP3   OH242758   4.743   8.684   5.250
14279TIP3    H142759   4.814   8.654   5.307
14279TIP3    H242760   4.777   8.767   5.212
14280TIP3   OH242761   4.624   8.975   5.482
14280TIP3    H142762   4.550   9.021   5.526
14280TIP3    H242763   4.576   8.925   5.412
14281TIP3   OH242764   4.670   8.210   4.513
14281TIP3    H142765   4.597   8.214   4.448
14281TIP3    H242766   4.645   8.286   4.570
14282TIP3   OH242767   4.541   7.881   4.463
14282TIP3    H142768   4.491   7.917   4.388
14282TIP3    H242769   4.520   7.786   4.456
14283TIP3   OH242770   4.540   8.161   5.014
14283TIP3    H142771   4.554   8.065   5.010
14283TIP3    H242772   4.527   8.177   5.110
14284TIP3   OH242773   3.169   8.234   5.762
14284TIP3    H142774   3.169   8.204   5.669
14284TIP3    H242775   3.265   8.237   5.781
14285TIP3   OH242776   4.840   8.574   5.870
14285TIP3    H142777   4.918   8.516   5.883
14285TIP3    H242778   4.847   8.587   5.773
14286TIP3   OH242779   5.026   8.390   5.953
14286TIP3    H142780   4.945   8.334   5.955
14286TIP3    H242781   5.091   8.326   5.919
14287TIP3   OH242782   4.486   7.614   4.445
14287TIP3    H142783   4.557   7.585   4.505
14287TIP3    H242784   4.411   7.558   4.470
14288TIP3   OH242785   4.541   7.874   4.904
14288TIP3    H142786   4.584   7.786   4.917
14288TIP3    H242787   4.600   7.911   4.835
14289TIP3   OH242788   4.705   8.048   5.408
14289TIP3    H142789   4.789   8.074   5.363
14289TIP3    H242790   4.718   8.097   5.491
14290TIP3   OH242791   4.779   8.222   5.626
14290TIP3    H142792   4.699   8.243   5.677
14290TIP3    H242793   4.809   8.311   5.602
14291TIP3   OH242794   3.387   7.918   6.428
14291TIP3    H142795   3.485   7.917   6.436
14291TIP3    H242796   3.367   7.833   6.472
14292TIP3   OH242797   5.224   7.786   6.190
14292TIP3    H142798   5.285   7.724   6.146
14292TIP3    H242799   5.192   7.839   6.114
14293TIP3   OH242800   4.654   7.626   4.944
14293TIP3    H142801   4.701   7.610   5.028
14293TIP3    H242802   4.592   7.550   4.944
14294TIP3   OH242803   3.348   7.615   5.783
14294TIP3    H142804   3.408   7.538   5.783
14294TIP3    H242805   3.411   7.687   5.765
14295TIP3   OH242806   3.148   7.913   5.841
14295TIP3    H142807   3.199   7.882   5.764
14295TIP3    H242808   3.172   8.006   5.841
14296TIP3   OH242809   5.092   7.922   5.996
14296TIP3    H142810   5.008   7.967   6.022
14296TIP3    H242811   5.055   7.852   5.938
14297TIP3   OH242812   4.726   7.558   4.581
14297TIP3    H142813   4.768   7.489   4.524
14297TIP3    H242814   4.793   7.629   4.579
14298TIP3   OH242815   3.138   7.393   5.343
14298TIP3    H142816   3.044   7.383   5.368
14298TIP3    H242817   3.131   7.449   5.263
14299TIP3   OH242818   4.360   9.063   4.884
14299TIP3    H142819   4.405   9.023   4.807
14299TIP3    H242820   4.431   9.115   4.923
14300TIP3   OH242821   3.357   7.473   6.156
14300TIP3    H142822   3.305   7.466   6.238
14300TIP3    H242823   3.290   7.504   6.093
14301TIP3   OH242824   3.424   8.839   6.242
14301TIP3    H142825   3.327   8.833   6.232
14301TIP3    H242826   3.434   8.869   6.333
14302TIP3   OH242827   3.569   8.928   5.789
14302TIP3    H142828   3.502   8.957   5.726
14302TIP3    H242829   3.652   8.947   5.739
14303TIP3   OH242830   4.057   9.157   5.886
14303TIP3    H142831   4.045   9.165   5.983
14303TIP3    H242832   4.146   9.194   5.877
14304TIP3   OH242833   4.994   7.686   5.874
14304TIP3    H142834   4.904   7.681   5.837
14304TIP3    H242835   5.025   7.594   5.864
14305TIP3   OH242836   4.153   9.140   5.510
14305TIP3    H142837   4.073   9.183   5.476
14305TIP3    H242838   4.206   9.216   5.539
14306TIP3   OH242839   3.134   8.938   5.569
14306TIP3    H142840   3.182   8.921   5.652
14306TIP3    H242841   3.205   8.980   5.515
14307TIP3   OH242842   3.360   8.842   5.396
14307TIP3    H142843   3.363   8.764   5.455
14307TIP3    H242844   3.455   8.870   5.399
14308TIP3   OH242845   3.615   8.923   5.422
14308TIP3    H142846   3.655   8.834   5.425
14308TIP3    H242847   3.680   8.974   5.474
14309TIP3   OH242848   4.196   7.600   5.492
14309TIP3    H142849   4.157   7.527   5.544
14309TIP3    H242850   4.273   7.557   5.451
14310TIP3   OH242851   4.717   7.478   5.395
14310TIP3    H142852   4.754   7.532   5.322
14310TIP3    H242853   4.623   7.505   5.395
14311TIP3   OH242854   4.816   7.578   5.162
14311TIP3    H142855   4.891   7.527   5.124
14311TIP3    H242856   4.850   7.669   5.148
14312TIP3   OH242857   3.446   7.308   5.510
14312TIP3    H142858   3.354   7.276   5.513
14312TIP3    H242859   3.494   7.222   5.505
14313TIP3   OH242860   3.237   7.182   5.162
14313TIP3    H142861   3.267   7.237   5.087
14313TIP3    H242862   3.211   7.250   5.227
14314TIP3   OH242863   3.894   7.342   5.394
14314TIP3    H142864   3.947   7.388   5.327
14314TIP3    H242865   3.928   7.379   5.476
14315TIP3   OH242866   4.430   7.490   5.376
14315TIP3    H142867   4.438   7.449   5.289
14315TIP3    H242868   4.421   7.410   5.434
14316TIP3   OH242869   4.468   7.415   4.938
14316TIP3    H142870   4.383   7.459   4.957
14316TIP3    H242871   4.454   7.329   4.982
14317TIP3   OH242872   2.961   8.675   4.952
14317TIP3    H142873   2.884   8.634   4.910
14317TIP3    H242874   2.953   8.767   4.921
14318TIP3   OH242875   3.355   7.338   4.921
14318TIP3    H142876   3.402   7.275   4.863
14318TIP3    H242877   3.430   7.391   4.956
14319TIP3   OH242878   3.862   7.518   5.020
14319TIP3    H142879   3.923   7.471   5.080
14319TIP3    H242880   3.882   7.610   5.045
14320TIP3   OH242881   3.595   8.930   4.512
14320TIP3    H142882   3.672   8.987   4.511
14320TIP3    H242883   3.634   8.844   4.478
14321TIP3   OH242884   4.454   9.029   4.619
14321TIP3    H142885   4.455   8.931   4.608
14321TIP3    H242886   4.488   9.057   4.533
14322TIP3   OH242887   3.654   7.588   6.399
14322TIP3    H142888   3.619   7.518   6.457
14322TIP3    H242889   3.748   7.588   6.427
14323TIP3   OH242890   3.904   7.588   6.518
14323TIP3    H142891   3.990   7.567   6.479
14323TIP3    H242892   3.894   7.517   6.585
14324TIP3   OH242893   3.043   8.732   4.586
14324TIP3    H142894   3.048   8.804   4.649
14324TIP3    H242895   3.138   8.717   4.564
14325TIP3   OH242896   4.732   7.652   6.306
14325TIP3    H142897   4.750   7.622   6.398
14325TIP3    H242898   4.822   7.648   6.267
14326TIP3   OH242899   4.680   9.202   5.798
14326TIP3    H142900   4.615   9.155   5.742
14326TIP3    H242901   4.649   9.293   5.788
14327TIP3   OH242902   5.937   8.575   4.561
14327TIP3    H142903   5.908   8.667   4.541
14327TIP3    H242904   5.857   8.526   4.537
14328TIP3   OH242905   5.934   8.574   4.952
14328TIP3    H142906   5.971   8.556   5.040
14328TIP3    H242907   5.889   8.490   4.932
14329TIP3   OH242908   5.253   8.455   5.281
14329TIP3    H142909   5.258   8.390   5.352
14329TIP3    H242910   5.298   8.530   5.321
14330TIP3   OH242911   6.179   8.880   4.630
14330TIP3    H142912   6.166   8.814   4.699
14330TIP3    H242913   6.211   8.956   4.682
14331TIP3   OH242914   5.208   8.886   5.039
14331TIP3    H142915   5.197   8.789   5.040
14331TIP3    H242916   5.304   8.892   5.027
14332TIP3   OH242917   4.917   8.071   4.814
14332TIP3    H142918   4.888   8.159   4.844
14332TIP3    H242919   4.835   8.037   4.773
14333TIP3   OH242920   4.969   8.351   4.963
14333TIP3    H142921   5.014   8.296   5.031
14333TIP3    H242922   5.028   8.428   4.957
14334TIP3   OH242923   5.834   9.320   4.685
14334TIP3    H142924   5.875   9.274   4.609
14334TIP3    H242925   5.850   9.257   4.756
14335TIP3   OH242926   5.734   8.802   4.994
14335TIP3    H142927   5.776   8.724   4.954
14335TIP3    H242928   5.816   8.850   5.020
14336TIP3   OH242929   6.748   8.121   4.996
14336TIP3    H142930   6.776   8.202   5.043
14336TIP3    H242931   6.768   8.145   4.903
14337TIP3   OH242932   6.147   8.301   5.024
14337TIP3    H142933   6.188   8.216   5.046
14337TIP3    H242934   6.113   8.283   4.934
14338TIP3   OH242935   5.490   7.961   4.989
14338TIP3    H142936   5.468   8.035   4.929
14338TIP3    H242937   5.437   7.889   4.948
14339TIP3   OH242938   6.182   8.051   4.611
14339TIP3    H142939   6.252   8.038   4.680
14339TIP3    H242940   6.236   8.088   4.539
14340TIP3   OH242941   5.114   8.162   5.107
14340TIP3    H142942   5.199   8.148   5.152
14340TIP3    H242943   5.130   8.113   5.024
14341TIP3   OH242944   5.561   8.361   4.880
14341TIP3    H142945   5.653   8.335   4.902
14341TIP3    H242946   5.521   8.275   4.856
14342TIP3   OH242947   6.817   8.325   5.169
14342TIP3    H142948   6.736   8.378   5.155
14342TIP3    H242949   6.858   8.371   5.246
14343TIP3   OH242950   5.480   7.943   5.428
14343TIP3    H142951   5.423   7.984   5.360
14343TIP3    H242952   5.426   7.962   5.508
14344TIP3   OH242953   5.830   8.796   4.427
14344TIP3    H142954   5.781   8.780   4.344
14344TIP3    H242955   5.785   8.877   4.458
14345TIP3   OH242956   5.589   8.724   5.219
14345TIP3    H142957   5.527   8.791   5.256
14345TIP3    H242958   5.629   8.773   5.144
14346TIP3   OH242959   6.383   8.059   4.796
14346TIP3    H142960   6.356   8.027   4.883
14346TIP3    H242961   6.435   8.139   4.819
14347TIP3   OH242962   5.354   8.058   5.210
14347TIP3    H142963   5.412   8.133   5.235
14347TIP3    H242964   5.406   8.021   5.135
14348TIP3   OH242965   5.416   8.914   5.325
14348TIP3    H142966   5.389   9.002   5.292
14348TIP3    H242967   5.335   8.891   5.376
14349TIP3   OH242968   4.805   8.603   4.556
14349TIP3    H142969   4.766   8.649   4.480
14349TIP3    H242970   4.840   8.678   4.608
14350TIP3   OH242971   6.236   9.103   4.790
14350TIP3    H142972   6.146   9.102   4.829
14350TIP3    H242973   6.234   9.190   4.744
14351TIP3   OH242974   6.542   8.012   5.157
14351TIP3    H142975   6.457   8.047   5.127
14351TIP3    H242976   6.604   8.049   5.090
14352TIP3   OH242977   5.833   7.662   5.144
14352TIP3    H142978   5.814   7.568   5.162
14352TIP3    H242979   5.757   7.704   5.191
14353TIP3   OH242980   5.961   9.151   4.496
14353TIP3    H142981   5.999   9.063   4.478
14353TIP3    H242982   6.035   9.207   4.465
14354TIP3   OH242983   6.100   8.940   4.374
14354TIP3    H142984   6.042   8.865   4.354
14354TIP3    H242985   6.140   8.912   4.460
14355TIP3   OH242986   6.472   9.033   5.145
14355TIP3    H142987   6.470   8.950   5.092
14355TIP3    H242988   6.459   9.101   5.076
14356TIP3   OH242989   5.763   8.422   4.399
14356TIP3    H142990   5.684   8.477   4.381
14356TIP3    H242991   5.811   8.428   4.314
14357TIP3   OH242992   5.722   8.217   4.107
14357TIP3    H142993   5.786   8.267   4.161
14357TIP3    H242994   5.782   8.156   4.061
14358TIP3   OH242995   6.666   8.665   4.980
14358TIP3    H142996   6.587   8.721   4.996
14358TIP3    H242997   6.694   8.697   4.892
14359TIP3   OH242998   6.115   8.509   4.365
14359TIP3    H142999   6.059   8.533   4.443
14359TIP3    H243000   6.199   8.486   4.410
14360TIP3   OH243001   6.342   8.531   5.277
14360TIP3    H143002   6.347   8.614   5.329
14360TIP3    H243003   6.255   8.543   5.234
14361TIP3   OH243004   5.347   8.503   4.784
14361TIP3    H143005   5.308   8.445   4.715
14361TIP3    H243006   5.425   8.451   4.813
14362TIP3   OH243007   5.480   8.913   4.934
14362TIP3    H143008   5.458   8.877   4.846
14362TIP3    H243009   5.570   8.877   4.949
14363TIP3   OH243010   5.521   8.468   5.138
14363TIP3    H143011   5.531   8.460   5.041
14363TIP3    H243012   5.538   8.563   5.154
14364TIP3   OH243013   5.994   9.117   4.911
14364TIP3    H143014   5.988   9.198   4.964
14364TIP3    H243015   5.985   9.046   4.978
14365TIP3   OH243016   5.619   9.038   5.466
14365TIP3    H143017   5.558   9.097   5.513
14365TIP3    H243018   5.555   8.983   5.416
14366TIP3   OH243019   5.952   8.368   4.194
14366TIP3    H143020   6.011   8.429   4.245
14366TIP3    H243021   5.978   8.389   4.102
14367TIP3   OH243022   5.358   8.581   5.564
14367TIP3    H143023   5.373   8.665   5.613
14367TIP3    H243024   5.261   8.576   5.569
14368TIP3   OH243025   5.707   9.037   4.464
14368TIP3    H143026   5.781   9.095   4.491
14368TIP3    H243027   5.634   9.098   4.449
14369TIP3   OH243028   5.414   9.205   5.559
14369TIP3    H143029   5.376   9.204   5.468
14369TIP3    H243030   5.341   9.168   5.613
14370TIP3   OH243031   6.468   7.606   4.244
14370TIP3    H143032   6.387   7.629   4.294
14370TIP3    H243033   6.483   7.689   4.195
14371TIP3   OH243034   5.219   8.347   4.573
14371TIP3    H143035   5.144   8.392   4.529
14371TIP3    H243036   5.174   8.271   4.613
14372TIP3   OH243037   6.263   8.959   3.787
14372TIP3    H143038   6.266   9.056   3.772
14372TIP3    H243039   6.358   8.935   3.776
14373TIP3   OH243040   4.849   8.925   5.144
14373TIP3    H143041   4.939   8.935   5.110
14373TIP3    H243042   4.826   9.016   5.170
14374TIP3   OH243043   5.822   9.147   5.316
14374TIP3    H143044   5.820   9.244   5.333
14374TIP3    H243045   5.745   9.116   5.370
14375TIP3   OH243046   5.014   9.115   4.655
14375TIP3    H143047   5.062   9.120   4.741
14375TIP3    H243048   4.956   9.039   4.673
14376TIP3   OH243049   5.923   9.215   3.923
14376TIP3    H143050   5.943   9.125   3.891
14376TIP3    H243051   5.902   9.199   4.016
14377TIP3   OH243052   5.801   9.164   4.175
14377TIP3    H143053   5.740   9.234   4.200
14377TIP3    H243054   5.838   9.138   4.261
14378TIP3   OH243055   6.610   8.510   5.457
14378TIP3    H143056   6.525   8.526   5.413
14378TIP3    H243057   6.620   8.413   5.445
14379TIP3   OH243058   5.189   8.902   5.486
14379TIP3    H143059   5.244   8.901   5.567
14379TIP3    H243060   5.122   8.836   5.507
14380TIP3   OH243061   5.597   7.740   5.275
14380TIP3    H143062   5.508   7.711   5.245
14380TIP3    H243063   5.571   7.821   5.323
14381TIP3   OH243064   6.133   7.851   5.467
14381TIP3    H143065   6.202   7.827   5.532
14381TIP3    H243066   6.049   7.835   5.516
14382TIP3   OH243067   6.365   8.277   5.383
14382TIP3    H143068   6.314   8.279   5.467
14382TIP3    H243069   6.344   8.365   5.344
14383TIP3   OH243070   6.025   8.405   3.936
14383TIP3    H143071   5.994   8.385   3.846
14383TIP3    H243072   6.109   8.451   3.917
14384TIP3   OH243073   5.737   7.788   4.241
14384TIP3    H143074   5.707   7.785   4.334
14384TIP3    H243075   5.700   7.704   4.209
14385TIP3   OH243076   5.529   8.252   5.294
14385TIP3    H143077   5.474   8.276   5.372
14385TIP3    H243078   5.521   8.333   5.239
14386TIP3   OH243079   5.413   8.141   4.803
14386TIP3    H143080   5.320   8.118   4.825
14386TIP3    H243081   5.421   8.098   4.715
14387TIP3   OH243082   5.902   8.225   4.533
14387TIP3    H143083   5.851   8.297   4.490
14387TIP3    H243084   5.957   8.193   4.460
14388TIP3   OH243085   6.075   8.498   5.608
14388TIP3    H143086   6.052   8.429   5.674
14388TIP3    H243087   6.162   8.525   5.640
14389TIP3   OH243088   6.058   8.251   4.770
14389TIP3    H143089   5.995   8.281   4.702
14389TIP3    H243090   6.093   8.172   4.723
14390TIP3   OH243091   5.349   8.280   5.501
14390TIP3    H143092   5.360   8.352   5.565
14390TIP3    H243093   5.339   8.201   5.557
14391TIP3   OH243094   5.392   7.760   4.208
14391TIP3    H143095   5.390   7.757   4.306
14391TIP3    H243096   5.317   7.821   4.192
14392TIP3   OH243097   4.942   7.799   5.080
14392TIP3    H143098   5.012   7.838   5.138
14392TIP3    H243099   4.989   7.783   4.998
14393TIP3   OH243100   4.902   7.785   4.594
14393TIP3    H143101   4.951   7.824   4.518
14393TIP3    H243102   4.845   7.861   4.618
14394TIP3   OH243103   6.062   8.499   5.187
14394TIP3    H143104   6.098   8.427   5.129
14394TIP3    H243105   6.033   8.445   5.263
14395TIP3   OH243106   5.744   7.955   4.861
14395TIP3    H143107   5.662   7.960   4.915
14395TIP3    H243108   5.813   7.959   4.930
14396TIP3   OH243109   5.176   8.024   4.873
14396TIP3    H143110   5.082   8.033   4.844
14396TIP3    H243111   5.197   7.932   4.850
14397TIP3   OH243112   5.438   8.010   4.564
14397TIP3    H143113   5.531   8.031   4.544
14397TIP3    H243114   5.390   8.034   4.481
14398TIP3   OH243115   6.231   8.038   5.060
14398TIP3    H143116   6.205   8.051   5.155
14398TIP3    H243117   6.158   7.980   5.031
14399TIP3   OH243118   5.291   8.041   4.338
14399TIP3    H143119   5.212   8.009   4.292
14399TIP3    H243120   5.341   8.083   4.265
14400TIP3   OH243121   5.363   8.833   5.703
14400TIP3    H143122   5.440   8.864   5.754
14400TIP3    H243123   5.296   8.830   5.774
14401TIP3   OH243124   5.821   8.293   4.962
14401TIP3    H143125   5.899   8.255   4.919
14401TIP3    H243126   5.823   8.252   5.051
14402TIP3   OH243127   5.339   7.778   4.847
14402TIP3    H143128   5.301   7.703   4.897
14402TIP3    H243129   5.384   7.733   4.775
14403TIP3   OH243130   5.797   8.195   5.249
14403TIP3    H143131   5.707   8.229   5.265
14403TIP3    H243132   5.853   8.257   5.300
14404TIP3   OH243133   5.537   8.576   4.345
14404TIP3    H143134   5.462   8.513   4.333
14404TIP3    H243135   5.516   8.612   4.435
14405TIP3   OH243136   6.434   8.816   4.974
14405TIP3    H143137   6.461   8.868   4.895
14405TIP3    H243138   6.349   8.776   4.945
14406TIP3   OH243139   5.990   7.891   4.208
14406TIP3    H143140   5.894   7.872   4.221
14406TIP3    H243141   5.999   7.984   4.238
14407TIP3   OH243142   5.935   8.893   5.344
14407TIP3    H143143   5.961   8.878   5.435
14407TIP3    H243144   5.892   8.980   5.347
14408TIP3   OH243145   6.060   8.138   4.314
14408TIP3    H143146   6.156   8.146   4.332
14408TIP3    H243147   6.041   8.221   4.265
14409TIP3   OH243148   5.231   8.609   5.027
14409TIP3    H143149   5.274   8.566   4.951
14409TIP3    H243150   5.244   8.545   5.100
14410TIP3   OH243151   5.680   8.726   4.167
14410TIP3    H143152   5.630   8.811   4.171
14410TIP3    H243153   5.626   8.671   4.228
14411TIP3   OH243154   5.834   8.636   5.654
14411TIP3    H143155   5.770   8.575   5.613
14411TIP3    H243156   5.919   8.598   5.622
14412TIP3   OH243157   6.088   9.174   5.225
14412TIP3    H143158   5.994   9.151   5.239
14412TIP3    H243159   6.110   9.211   5.314
14413TIP3   OH243160   6.500   8.233   4.148
14413TIP3    H143161   6.439   8.190   4.084
14413TIP3    H243162   6.496   8.324   4.110
14414TIP3   OH243163   6.724   9.121   5.214
14414TIP3    H143164   6.629   9.099   5.211
14414TIP3    H243165   6.757   9.072   5.136
14415TIP3   OH243166   6.235   9.021   4.065
14415TIP3    H143167   6.191   8.963   4.129
14415TIP3    H243168   6.227   8.973   3.981
14416TIP3   OH243169   6.197   8.681   4.885
14416TIP3    H143170   6.104   8.655   4.900
14416TIP3    H243171   6.232   8.600   4.843
14417TIP3   OH243172   5.330   8.900   4.649
14417TIP3    H143173   5.322   8.983   4.599
14417TIP3    H243174   5.238   8.885   4.675
14418TIP3   OH243175   4.895   8.210   4.354
14418TIP3    H143176   4.939   8.294   4.376
14418TIP3    H243177   4.818   8.213   4.415
14419TIP3   OH243178   5.461   8.667   4.586
14419TIP3    H143179   5.425   8.756   4.606
14419TIP3    H243180   5.427   8.617   4.663
14420TIP3   OH243181   5.584   9.246   5.125
14420TIP3    H143182   5.597   9.334   5.084
14420TIP3    H243183   5.674   9.217   5.144
14421TIP3   OH243184   5.248   9.134   4.513
14421TIP3    H143185   5.159   9.128   4.554
14421TIP3    H243186   5.256   9.230   4.505
14422TIP3   OH243187   5.986   8.885   5.077
14422TIP3    H143188   5.974   8.878   5.174
14422TIP3    H243189   6.067   8.834   5.064
14423TIP3   OH243190   5.964   8.775   3.960
14423TIP3    H143191   6.020   8.751   4.037
14423TIP3    H243192   5.876   8.753   3.994
14424TIP3   OH243193   6.252   9.384   5.131
14424TIP3    H143194   6.188   9.314   5.155
14424TIP3    H243195   6.193   9.459   5.110
14425TIP3   OH243196   6.285   9.233   3.769
14425TIP3    H143197   6.357   9.297   3.762
14425TIP3    H243198   6.208   9.290   3.752
14426TIP3   OH243199   5.319   8.021   5.643
14426TIP3    H143200   5.223   8.026   5.658
14426TIP3    H243201   5.349   7.969   5.720
14427TIP3   OH243202   6.127   8.702   4.166
14427TIP3    H143203   6.116   8.642   4.243
14427TIP3    H243204   6.225   8.703   4.160
14428TIP3   OH243205   5.068   9.128   5.289
14428TIP3    H143206   5.091   9.035   5.306
14428TIP3    H243207   5.071   9.164   5.378
14429TIP3   OH243208   5.322   8.758   3.958
14429TIP3    H143209   5.335   8.664   3.934
14429TIP3    H243210   5.307   8.751   4.055
14430TIP3   OH243211   5.271   8.759   4.228
14430TIP3    H143212   5.339   8.733   4.291
14430TIP3    H243213   5.269   8.856   4.241
14431TIP3   OH243214   5.001   8.453   4.435
14431TIP3    H143215   4.935   8.497   4.493
14431TIP3    H243216   5.013   8.522   4.367
14432TIP3   OH243217   6.166   8.084   5.321
14432TIP3    H143218   6.241   8.130   5.363
14432TIP3    H243219   6.152   8.007   5.380
14433TIP3   OH243220   6.044   7.837   4.496
14433TIP3    H143221   6.029   7.863   4.403
14433TIP3    H243222   6.083   7.919   4.534
14434TIP3   OH243223   5.533   8.952   4.183
14434TIP3    H143224   5.447   8.972   4.224
14434TIP3    H243225   5.557   9.039   4.150
14435TIP3   OH243226   5.722   8.024   4.594
14435TIP3    H143227   5.785   8.097   4.578
14435TIP3    H243228   5.728   8.014   4.691
14436TIP3   OH243229   5.996   8.337   5.396
14436TIP3    H143230   6.019   8.394   5.473
14436TIP3    H243231   6.049   8.257   5.414
14437TIP3   OH243232   5.867   7.741   4.693
14437TIP3    H143233   5.857   7.818   4.752
14437TIP3    H243234   5.931   7.776   4.627
14438TIP3   OH243235   5.283   9.026   4.260
14438TIP3    H143236   5.271   9.098   4.195
14438TIP3    H243237   5.266   9.073   4.345
14439TIP3   OH243238   5.385   7.747   4.483
14439TIP3    H143239   5.379   7.837   4.521
14439TIP3    H243240   5.482   7.733   4.494
14440TIP3   OH243241   6.634   8.242   5.393
14440TIP3    H143242   6.535   8.234   5.392
14440TIP3    H243243   6.655   8.216   5.302
14441TIP3   OH243244   6.286   8.434   4.768
14441TIP3    H143245   6.209   8.376   4.785
14441TIP3    H243246   6.357   8.388   4.819
14442TIP3   OH243247   4.997   8.657   4.240
14442TIP3    H143248   5.061   8.729   4.251
14442TIP3    H243249   5.045   8.602   4.174
14443TIP3   OH243250   4.944   7.939   4.368
14443TIP3    H143251   4.945   8.037   4.370
14443TIP3    H243252   4.855   7.922   4.333
14444TIP3   OH243253   6.250   9.357   4.699
14444TIP3    H143254   6.216   9.445   4.674
14444TIP3    H243255   6.345   9.379   4.706
14445TIP3   OH243256   5.334   7.659   5.241
14445TIP3    H143257   5.301   7.625   5.155
14445TIP3    H243258   5.321   7.582   5.299
14446TIP3   OH243259   4.876   8.848   4.663
14446TIP3    H143260   4.826   8.897   4.731
14446TIP3    H243261   4.839   8.884   4.580
14447TIP3   OH243262   5.108   9.362   5.661
14447TIP3    H143263   5.176   9.378   5.730
14447TIP3    H243264   5.088   9.268   5.678
14448TIP3   OH243265   5.535   9.379   5.736
14448TIP3    H143266   5.615   9.324   5.738
14448TIP3    H243267   5.483   9.330   5.669
14449TIP3   OH243268   5.489   8.957   3.864
14449TIP3    H143269   5.435   8.886   3.905
14449TIP3    H243270   5.560   8.904   3.823
14450TIP3   OH243271   6.139   9.277   5.470
14450TIP3    H143272   6.127   9.204   5.533
14450TIP3    H243273   6.217   9.320   5.506
14451TIP3   OH243274   5.924   8.978   3.774
14451TIP3    H143275   5.957   8.907   3.833
14451TIP3    H243276   5.984   8.973   3.697
14452TIP3   OH243277   5.151   8.827   5.892
14452TIP3    H143278   5.177   8.733   5.895
14452TIP3    H243279   5.067   8.823   5.841
14453TIP3   OH243280   5.139   8.474   4.095
14453TIP3    H143281   5.195   8.448   4.171
14453TIP3    H243282   5.207   8.483   4.025
14454TIP3   OH243283   5.759   8.906   5.672
14454TIP3    H143284   5.720   8.929   5.586
14454TIP3    H243285   5.789   8.813   5.659
14455TIP3   OH243286   5.649   8.671   3.899
14455TIP3    H143287   5.651   8.686   3.996
14455TIP3    H243288   5.646   8.573   3.896
14456TIP3   OH243289   6.246   8.938   5.269
14456TIP3    H143290   6.326   8.974   5.227
14456TIP3    H243291   6.180   9.006   5.246
14457TIP3   OH243292   5.287   8.589   5.881
14457TIP3    H143293   5.335   8.509   5.859
14457TIP3    H243294   5.317   8.607   5.972
14458TIP3   OH243295   5.336   8.386   4.311
14458TIP3    H143296   5.308   8.355   4.400
14458TIP3    H243297   5.375   8.305   4.273
14459TIP3   OH243298   5.617   8.453   5.547
14459TIP3    H143299   5.533   8.503   5.541
14459TIP3    H243300   5.664   8.485   5.466
14460TIP3   OH243301   5.448   8.175   4.157
14460TIP3    H143302   5.425   8.196   4.065
14460TIP3    H243303   5.546   8.180   4.153
14461TIP3   OH243304   6.132   8.846   5.676
14461TIP3    H143305   6.211   8.816   5.629
14461TIP3    H243306   6.123   8.778   5.745
14462TIP3   OH243307   6.262   8.501   3.822
14462TIP3    H143308   6.240   8.458   3.737
14462TIP3    H243309   6.228   8.591   3.802
14463TIP3   OH243310   5.738   8.236   5.663
14463TIP3    H143311   5.736   8.159   5.603
14463TIP3    H243312   5.694   8.306   5.609
14464TIP3   OH243313   5.740   8.020   5.472
14464TIP3    H143314   5.766   8.065   5.390
14464TIP3    H243315   5.645   8.000   5.455
14465TIP3   OH243316   5.764   8.557   5.348
14465TIP3    H143317   5.848   8.573   5.303
14465TIP3    H243318   5.704   8.619   5.300
14466TIP3   OH243319   6.367   8.526   5.739
14466TIP3    H143320   6.413   8.443   5.717
14466TIP3    H243321   6.433   8.593   5.716
14467TIP3   OH243322   6.383   8.760   5.419
14467TIP3    H143323   6.321   8.822   5.375
14467TIP3    H243324   6.464   8.776   5.365
14468TIP3   OH243325   5.617   8.338   5.900
14468TIP3    H143326   5.546   8.273   5.916
14468TIP3    H243327   5.646   8.314   5.810
14469TIP3   OH243328   5.869   7.783   5.546
14469TIP3    H143329   5.821   7.865   5.521
14469TIP3    H243330   5.799   7.715   5.535
14470TIP3   OH243331   5.996   8.284   5.758
14470TIP3    H143332   5.979   8.272   5.853
14470TIP3    H243333   5.907   8.262   5.723
14471TIP3   OH243334   6.234   8.235   5.615
14471TIP3    H143335   6.158   8.240   5.677
14471TIP3    H243336   6.307   8.209   5.675
14472TIP3   OH243337   6.464   8.185   5.770
14472TIP3    H143338   6.476   8.089   5.784
14472TIP3    H243339   6.462   8.219   5.862
14473TIP3   OH243340   5.447   8.122   5.954
14473TIP3    H143341   5.456   8.030   5.924
14473TIP3    H243342   5.485   8.114   6.045
14474TIP3   OH243343   5.962   7.792   5.804
14474TIP3    H143344   6.029   7.721   5.795
14474TIP3    H243345   5.922   7.789   5.715
14475TIP3   OH243346   6.030   8.007   5.962
14475TIP3    H143347   6.007   7.937   5.897
14475TIP3    H243348   5.953   8.068   5.954
14476TIP3   OH243349   4.727   8.625   4.262
14476TIP3    H143350   4.823   8.645   4.260
14476TIP3    H243351   4.726   8.533   4.229
14477TIP3   OH243352   4.789   9.052   4.857
14477TIP3    H143353   4.755   8.999   4.931
14477TIP3    H243354   4.832   9.125   4.906
14478TIP3   OH243355   6.504   9.452   4.704
14478TIP3    H143356   6.543   9.492   4.783
14478TIP3    H243357   6.550   9.499   4.632
14479TIP3   OH243358   6.588   9.462   4.986
14479TIP3    H143359   6.522   9.391   4.971
14479TIP3    H243360   6.652   9.414   5.041
14480TIP3   OH243361   6.403   8.688   4.150
14480TIP3    H143362   6.468   8.756   4.120
14480TIP3    H243363   6.448   8.653   4.229
14481TIP3   OH243364   6.531   8.556   4.354
14481TIP3    H143365   6.464   8.518   4.415
14481TIP3    H243366   6.596   8.594   4.416
14482TIP3   OH243367   6.579   8.947   4.784
14482TIP3    H143368   6.637   8.883   4.737
14482TIP3    H243369   6.586   9.026   4.726
14483TIP3   OH243370   6.418   9.238   4.968
14483TIP3    H143371   6.349   9.287   5.017
14483TIP3    H243372   6.366   9.192   4.900
14484TIP3   OH243373   6.467   8.466   4.000
14484TIP3    H143374   6.394   8.469   3.934
14484TIP3    H243375   6.441   8.542   4.056
14485TIP3   OH243376   6.340   8.137   3.949
14485TIP3    H143377   6.285   8.174   3.879
14485TIP3    H243378   6.318   8.042   3.942
14486TIP3   OH243379   6.341   8.419   4.501
14486TIP3    H143380   6.349   8.323   4.496
14486TIP3    H243381   6.325   8.433   4.597
14487TIP3   OH243382   6.609   8.797   5.273
14487TIP3    H143383   6.690   8.756   5.308
14487TIP3    H243384   6.629   8.891   5.287
14488TIP3   OH243385   6.826   8.651   5.367
14488TIP3    H143386   6.749   8.602   5.404
14488TIP3    H243387   6.894   8.581   5.374
14489TIP3   OH243388   6.283   7.870   3.931
14489TIP3    H143389   6.354   7.841   3.991
14489TIP3    H243390   6.207   7.815   3.956
14490TIP3   OH243391   6.338   8.133   4.391
14490TIP3    H143392   6.380   8.044   4.405
14490TIP3    H243393   6.397   8.168   4.322
14491TIP3   OH243394   6.497   8.301   4.891
14491TIP3    H143395   6.583   8.325   4.850
14491TIP3    H243396   6.512   8.341   4.979
14492TIP3   OH243397   6.570   8.449   5.121
14492TIP3    H143398   6.491   8.482   5.168
14492TIP3    H243399   6.601   8.530   5.076
14493TIP3   OH243400   5.181   8.166   5.897
14493TIP3    H143401   5.278   8.167   5.912
14493TIP3    H243402   5.157   8.084   5.946
14494TIP3   OH243403   7.012   8.011   5.680
14494TIP3    H143404   7.078   7.966   5.624
14494TIP3    H243405   6.990   8.090   5.626
14495TIP3   OH243406   6.449   7.884   4.431
14495TIP3    H143407   6.497   7.868   4.515
14495TIP3    H243408   6.387   7.808   4.430
14496TIP3   OH243409   5.147   7.868   5.252
14496TIP3    H143410   5.212   7.795   5.260
14496TIP3    H243411   5.207   7.944   5.243
14497TIP3   OH243412   4.947   8.150   5.330
14497TIP3    H143413   4.999   8.149   5.247
14497TIP3    H243414   4.968   8.238   5.363
14498TIP3   OH243415   6.879   8.172   5.494
14498TIP3    H143416   6.794   8.218   5.477
14498TIP3    H243417   6.866   8.095   5.436
14499TIP3   OH243418   6.523   7.814   4.067
14499TIP3    H143419   6.565   7.745   4.012
14499TIP3    H243420   6.590   7.885   4.067
14500TIP3   OH243421   4.933   7.635   4.818
14500TIP3    H143422   4.844   7.637   4.855
14500TIP3    H243423   4.926   7.700   4.745
14501TIP3   OH243424   6.158   9.321   4.366
14501TIP3    H143425   6.206   9.281   4.292
14501TIP3    H243426   6.227   9.374   4.409
14502TIP3   OH243427   5.153   7.715   5.636
14502TIP3    H143428   5.105   7.720   5.720
14502TIP3    H243429   5.089   7.760   5.576
14503TIP3   OH243430   5.217   9.106   5.727
14503TIP3    H143431   5.125   9.077   5.714
14503TIP3    H243432   5.223   9.105   5.824
14504TIP3   OH243433   5.367   9.186   5.281
14504TIP3    H143434   5.293   9.204   5.221
14504TIP3    H243435   5.445   9.206   5.223
14505TIP3   OH243436   5.850   9.425   5.349
14505TIP3    H143437   5.836   9.436   5.445
14505TIP3    H243438   5.942   9.454   5.341
14506TIP3   OH243439   6.792   7.941   5.360
14506TIP3    H143440   6.703   7.936   5.323
14506TIP3    H243441   6.824   7.848   5.350
14507TIP3   OH243442   5.948   9.395   4.991
14507TIP3    H143443   5.863   9.438   4.974
14507TIP3    H243444   6.001   9.469   5.026
14508TIP3   OH243445   4.933   9.200   5.056
14508TIP3    H143446   4.983   9.181   5.138
14508TIP3    H243447   5.003   9.237   5.000
14509TIP3   OH243448   5.156   9.103   4.883
14509TIP3    H143449   5.158   9.025   4.942
14509TIP3    H243450   5.251   9.129   4.885
14510TIP3   OH243451   5.413   9.178   4.907
14510TIP3    H143452   5.449   9.087   4.912
14510TIP3    H243453   5.477   9.225   4.963
14511TIP3   OH243454   5.997   7.858   4.983
14511TIP3    H143455   5.954   7.787   5.034
14511TIP3    H243456   6.072   7.812   4.940
14512TIP3   OH243457   6.513   7.732   4.880
14512TIP3    H143458   6.551   7.788   4.809
14512TIP3    H243459   6.420   7.762   4.882
14513TIP3   OH243460   6.612   7.836   4.647
14513TIP3    H143461   6.687   7.785   4.611
14513TIP3    H243462   6.646   7.928   4.634
14514TIP3   OH243463   5.243   7.565   4.994
14514TIP3    H143464   5.150   7.532   4.999
14514TIP3    H243465   5.291   7.479   4.990
14515TIP3   OH243466   5.034   7.438   4.647
14515TIP3    H143467   5.060   7.497   4.574
14515TIP3    H243468   5.003   7.502   4.714
14516TIP3   OH243469   5.692   7.593   4.878
14516TIP3    H143470   5.746   7.644   4.815
14516TIP3    H243471   5.712   7.639   4.962
14517TIP3   OH243472   6.227   7.746   4.862
14517TIP3    H143473   6.233   7.707   4.774
14517TIP3    H243474   6.218   7.667   4.919
14518TIP3   OH243475   6.264   7.672   4.424
14518TIP3    H143476   6.180   7.718   4.445
14518TIP3    H243477   6.249   7.586   4.468
14519TIP3   OH243478   4.758   8.932   4.437
14519TIP3    H143479   4.677   8.895   4.400
14519TIP3    H243480   4.753   9.025   4.405
14520TIP3   OH243481   5.152   7.596   4.406
14520TIP3    H143482   5.201   7.534   4.349
14520TIP3    H243483   5.225   7.650   4.443
14521TIP3   OH243484   5.661   7.773   4.506
14521TIP3    H143485   5.722   7.729   4.569
14521TIP3    H243486   5.678   7.867   4.531
14522TIP3   OH243487   5.398   9.175   4.012
14522TIP3    H143488   5.460   9.246   3.994
14522TIP3    H243489   5.431   9.101   3.956
14523TIP3   OH243490   6.250   9.286   4.098
14523TIP3    H143491   6.252   9.188   4.097
14523TIP3    H243492   6.271   9.303   4.005
14524TIP3   OH243493   5.451   7.843   5.884
14524TIP3    H143494   5.414   7.775   5.943
14524TIP3    H243495   5.544   7.844   5.914
14525TIP3   OH243496   5.699   7.843   6.006
14525TIP3    H143497   5.786   7.820   5.969
14525TIP3    H243498   5.687   7.773   6.073
14526TIP3   OH243499   4.839   8.990   4.070
14526TIP3    H143500   4.838   9.060   4.138
14526TIP3    H243501   4.935   8.979   4.052
14527TIP3   OH243502   6.526   7.913   5.793
14527TIP3    H143503   6.545   7.881   5.884
14527TIP3    H243504   6.615   7.908   5.752
14528TIP3   OH243505   7.648   8.839   4.413
14528TIP3    H143506   7.711   8.861   4.483
14528TIP3    H243507   7.669   8.746   4.399
14529TIP3   OH243508   7.032   8.716   4.793
14529TIP3    H143509   7.055   8.659   4.870
14529TIP3    H243510   7.104   8.780   4.795
14530TIP3   OH243511   6.985   9.136   4.526
14530TIP3    H143512   6.979   9.038   4.527
14530TIP3    H243513   7.080   9.145   4.505
14531TIP3   OH243514   6.710   8.335   4.301
14531TIP3    H143515   6.665   8.419   4.325
14531TIP3    H243516   6.636   8.287   4.260
14532TIP3   OH243517   6.765   8.626   4.483
14532TIP3    H143518   6.816   8.549   4.518
14532TIP3    H243519   6.830   8.671   4.429
14533TIP3   OH243520   7.900   8.514   4.565
14533TIP3    H143521   7.959   8.448   4.526
14533TIP3    H243522   7.904   8.587   4.500
14534TIP3   OH243523   7.285   8.217   4.476
14534TIP3    H143524   7.263   8.291   4.415
14534TIP3    H243525   7.233   8.145   4.435
14535TIP3   OH243526   7.966   8.300   4.091
14535TIP3    H143527   8.011   8.282   4.176
14535TIP3    H243528   8.046   8.314   4.037
14536TIP3   OH243529   6.914   8.421   4.586
14536TIP3    H143530   6.996   8.403   4.636
14536TIP3    H243531   6.929   8.365   4.507
14537TIP3   OH243532   7.351   8.612   4.385
14537TIP3    H143533   7.445   8.587   4.397
14537TIP3    H243534   7.312   8.529   4.350
14538TIP3   OH243535   7.272   8.200   4.915
14538TIP3    H143536   7.212   8.239   4.848
14538TIP3    H243537   7.220   8.217   4.997
14539TIP3   OH243538   8.132   8.306   4.309
14539TIP3    H143539   8.094   8.268   4.392
14539TIP3    H243540   8.166   8.390   4.342
14540TIP3   OH243541   7.149   8.317   4.696
14540TIP3    H143542   7.209   8.391   4.721
14540TIP3    H243543   7.201   8.277   4.622
14541TIP3   OH243544   6.602   8.859   4.043
14541TIP3    H143545   6.563   8.903   3.965
14541TIP3    H243546   6.635   8.937   4.094
14542TIP3   OH243547   7.627   7.918   4.630
14542TIP3    H143548   7.609   7.824   4.647
14542TIP3    H243549   7.551   7.959   4.678
14543TIP3   OH243550   7.580   8.696   3.841
14543TIP3    H143551   7.492   8.735   3.863
14543TIP3    H243552   7.580   8.710   3.745
14544TIP3   OH243553   7.511   8.446   3.617
14544TIP3    H143554   7.574   8.492   3.673
14544TIP3    H243555   7.568   8.388   3.564
14545TIP3   OH243556   7.142   8.759   4.273
14545TIP3    H143557   7.104   8.701   4.205
14545TIP3    H243558   7.218   8.707   4.305
14546TIP3   OH243559   7.239   9.160   4.429
14546TIP3    H143560   7.247   9.124   4.340
14546TIP3    H243561   7.335   9.168   4.453
14547TIP3   OH243562   7.295   8.745   4.621
14547TIP3    H143563   7.314   8.703   4.534
14547TIP3    H243564   7.342   8.829   4.612
14548TIP3   OH243565   8.241   7.822   3.726
14548TIP3    H143566   8.164   7.834   3.785
14548TIP3    H243567   8.228   7.904   3.673
14549TIP3   OH243568   7.013   8.604   4.066
14549TIP3    H143569   6.941   8.650   4.019
14549TIP3    H243570   6.970   8.522   4.092
14550TIP3   OH243571   6.787   8.989   4.988
14550TIP3    H143572   6.725   8.959   4.919
14550TIP3    H243573   6.837   8.908   5.010
14551TIP3   OH243574   6.639   9.173   4.629
14551TIP3    H143575   6.729   9.187   4.596
14551TIP3    H243576   6.613   9.262   4.657
14552TIP3   OH243577   6.816   9.373   4.149
14552TIP3    H143578   6.877   9.375   4.226
14552TIP3    H243579   6.762   9.295   4.170
14553TIP3   OH243580   7.392   7.996   4.761
14553TIP3    H143581   7.302   7.969   4.733
14553TIP3    H243582   7.369   8.077   4.811
14554TIP3   OH243583   7.915   8.110   4.966
14554TIP3    H143584   7.949   8.100   5.056
14554TIP3    H243585   7.821   8.086   4.981
14555TIP3   OH243586   7.530   8.051   3.723
14555TIP3    H143587   7.501   8.046   3.817
14555TIP3    H243588   7.497   7.965   3.691
14556TIP3   OH243589   7.320   8.519   4.776
14556TIP3    H143590   7.272   8.539   4.860
14556TIP3    H243591   7.307   8.603   4.726
14557TIP3   OH243592   7.208   8.397   4.289
14557TIP3    H143593   7.116   8.372   4.310
14557TIP3    H243594   7.218   8.355   4.200
14558TIP3   OH243595   7.685   8.498   4.010
14558TIP3    H143596   7.641   8.572   3.961
14558TIP3    H243597   7.754   8.473   3.948
14559TIP3   OH243598   7.809   8.462   4.252
14559TIP3    H143599   7.749   8.491   4.180
14559TIP3    H243600   7.849   8.384   4.208
14560TIP3   OH243601   7.156   8.547   4.998
14560TIP3    H143602   7.154   8.604   5.076
14560TIP3    H243603   7.144   8.459   5.040
14561TIP3   OH243604   7.189   8.017   3.694
14561TIP3    H143605   7.183   8.016   3.792
14561TIP3    H243606   7.114   8.075   3.672
14562TIP3   OH243607   6.739   8.058   4.564
14562TIP3    H143608   6.809   8.094   4.623
14562TIP3    H243609   6.787   8.033   4.485
14563TIP3   OH243610   6.699   8.041   4.083
14563TIP3    H143611   6.746   8.078   4.005
14563TIP3    H243612   6.640   8.116   4.104
14564TIP3   OH243613   7.540   8.210   4.347
14564TIP3    H143614   7.457   8.210   4.399
14564TIP3    H243615   7.603   8.239   4.415
14565TIP3   OH243616   6.971   8.279   4.357
14565TIP3    H143617   6.876   8.286   4.329
14565TIP3    H243618   6.993   8.186   4.335
14566TIP3   OH243619   7.234   8.269   4.049
14566TIP3    H143620   7.327   8.285   4.026
14566TIP3    H243621   7.186   8.291   3.966
14567TIP3   OH243622   8.021   8.256   4.551
14567TIP3    H143623   7.996   8.279   4.642
14567TIP3    H243624   7.945   8.200   4.525
14568TIP3   OH243625   7.086   8.302   3.823
14568TIP3    H143626   7.013   8.262   3.773
14568TIP3    H243627   7.137   8.343   3.751
14569TIP3   OH243628   7.610   8.526   4.441
14569TIP3    H143629   7.692   8.504   4.394
14569TIP3    H243630   7.630   8.496   4.532
14570TIP3   OH243631   7.134   8.035   4.333
14570TIP3    H143632   7.098   7.959   4.384
14570TIP3    H243633   7.181   7.990   4.262
14571TIP3   OH243634   7.582   8.443   4.735
14571TIP3    H143635   7.489   8.473   4.743
14571TIP3    H243636   7.631   8.513   4.779
14572TIP3   OH243637   7.333   8.821   3.826
14572TIP3    H143638   7.257   8.760   3.816
14572TIP3    H243639   7.310   8.864   3.912
14573TIP3   OH243640   7.795   8.151   3.723
14573TIP3    H143641   7.699   8.142   3.706
14573TIP3    H243642   7.817   8.241   3.693
14574TIP3   OH243643   7.019   8.856   4.506
14574TIP3    H143644   7.063   8.831   4.422
14574TIP3    H243645   7.064   8.799   4.571
14575TIP3   OH243646   6.897   8.760   5.111
14575TIP3    H143647   6.896   8.744   5.207
14575TIP3    H243648   6.815   8.714   5.083
14576TIP3   OH243649   7.121   9.155   4.128
14576TIP3    H143650   7.137   9.248   4.109
14576TIP3    H243651   7.027   9.153   4.148
14577TIP3   OH243652   6.688   8.466   3.836
14577TIP3    H143653   6.735   8.550   3.859
14577TIP3    H243654   6.614   8.470   3.900
14578TIP3   OH243655   7.245   8.918   4.061
14578TIP3    H143656   7.211   9.007   4.082
14578TIP3    H243657   7.220   8.870   4.143
14579TIP3   OH243658   7.118   8.280   5.132
14579TIP3    H143659   7.023   8.285   5.150
14579TIP3    H243660   7.149   8.225   5.206
14580TIP3   OH243661   6.851   9.380   4.779
14580TIP3    H143662   6.872   9.286   4.781
14580TIP3    H243663   6.862   9.404   4.872
14581TIP3   OH243664   7.076   8.980   3.460
14581TIP3    H143665   7.073   8.883   3.454
14581TIP3    H243666   7.060   8.996   3.555
14582TIP3   OH243667   7.074   9.030   3.735
14582TIP3    H143668   7.134   8.978   3.790
14582TIP3    H243669   7.119   9.116   3.735
14583TIP3   OH243670   6.798   8.709   3.922
14583TIP3    H143671   6.731   8.754   3.979
14583TIP3    H243672   6.811   8.777   3.854
14584TIP3   OH243673   7.826   8.088   3.987
14584TIP3    H143674   7.813   8.107   3.891
14584TIP3    H243675   7.872   8.169   4.016
14585TIP3   OH243676   7.519   8.282   4.081
14585TIP3    H143677   7.577   8.359   4.064
14585TIP3    H243678   7.525   8.272   4.178
14586TIP3   OH243679   7.657   7.997   4.186
14586TIP3    H143680   7.640   8.078   4.239
14586TIP3    H243681   7.721   8.032   4.119
14587TIP3   OH243682   7.179   8.005   3.970
14587TIP3    H143683   7.175   8.095   4.009
14587TIP3    H243684   7.275   7.989   3.978
14588TIP3   OH243685   6.796   8.918   3.731
14588TIP3    H143686   6.869   8.981   3.742
14588TIP3    H243687   6.835   8.857   3.664
14589TIP3   OH243688   6.736   8.196   3.858
14589TIP3    H143689   6.743   8.293   3.856
14589TIP3    H243690   6.648   8.182   3.822
14590TIP3   OH243691   7.129   7.916   4.729
14590TIP3    H143692   7.097   7.881   4.643
14590TIP3    H243693   7.118   7.838   4.788
14591TIP3   OH243694   6.672   9.107   4.151
14591TIP3    H143695   6.618   9.157   4.215
14591TIP3    H243696   6.639   9.141   4.065
14592TIP3   OH243697   6.923   8.721   3.597
14592TIP3    H143698   6.984   8.693   3.668
14592TIP3    H243699   6.983   8.714   3.520
14593TIP3   OH243700   7.128   8.639   3.796
14593TIP3    H143701   7.103   8.603   3.883
14593TIP3    H243702   7.167   8.562   3.751
14594TIP3   OH243703   7.236   8.435   3.640
14594TIP3    H143704   7.214   8.443   3.545
14594TIP3    H243705   7.335   8.434   3.636
14595TIP3   OH243706   7.539   8.254   4.940
14595TIP3    H143707   7.558   8.314   4.865
14595TIP3    H243708   7.441   8.250   4.939
14596TIP3   OH243709   7.661   8.023   5.004
14596TIP3    H143710   7.611   8.107   4.986
14596TIP3    H243711   7.587   7.959   5.011
14597TIP3   OH243712   7.834   8.037   5.235
14597TIP3    H143713   7.779   7.957   5.232
14597TIP3    H243714   7.764   8.103   5.221
14598TIP3   OH243715   6.524   8.881   3.753
14598TIP3    H143716   6.620   8.904   3.749
14598TIP3    H243717   6.524   8.790   3.717
14599TIP3   OH243718   6.583   9.312   4.345
14599TIP3    H143719   6.548   9.258   4.417
14599TIP3    H243720   6.630   9.381   4.395
14600TIP3   OH243721   6.764   8.745   4.735
14600TIP3    H143722   6.760   8.713   4.643
14600TIP3    H243723   6.861   8.744   4.751
14601TIP3   OH243724   6.976   8.422   5.379
14601TIP3    H143725   7.064   8.463   5.388
14601TIP3    H243726   6.976   8.355   5.450
14602TIP3   OH243727   8.264   8.082   3.878
14602TIP3    H143728   8.237   8.153   3.937
14602TIP3    H243729   8.187   8.021   3.883
14603TIP3   OH243730   6.944   8.125   4.735
14603TIP3    H143731   7.006   8.050   4.746
14603TIP3    H243732   7.006   8.200   4.729
14604TIP3   OH243733   6.743   8.394   4.812
14604TIP3    H143734   6.795   8.401   4.729
14604TIP3    H243735   6.760   8.480   4.853
14605TIP3   OH243736   6.730   7.893   4.307
14605TIP3    H143737   6.640   7.893   4.343
14605TIP3    H243738   6.722   7.957   4.233
14606TIP3   OH243739   6.946   7.969   5.119
14606TIP3    H143740   6.903   7.976   5.205
14606TIP3    H243741   6.881   8.015   5.062
14607TIP3   OH243742   6.735   9.452   4.538
14607TIP3    H143743   6.781   9.434   4.623
14607TIP3    H243744   6.798   9.512   4.493
14608TIP3   OH243745   6.990   9.362   4.366
14608TIP3    H143746   6.958   9.290   4.425
14608TIP3    H243747   7.085   9.355   4.384
14609TIP3   OH243748   7.802   8.106   4.480
14609TIP3    H143749   7.743   8.043   4.525
14609TIP3    H243750   7.858   8.049   4.425
14610TIP3   OH243751   8.324   8.048   4.363
14610TIP3    H143752   8.336   8.015   4.273
14610TIP3    H243753   8.227   8.038   4.372
14611TIP3   OH243754   7.039   7.821   4.481
14611TIP3    H143755   6.947   7.788   4.487
14611TIP3    H243756   7.088   7.736   4.478
14612TIP3   OH243757   6.826   7.694   4.133
14612TIP3    H143758   6.857   7.752   4.061
14612TIP3    H243759   6.798   7.759   4.201
14613TIP3   OH243760   7.486   7.853   4.366
14613TIP3    H143761   7.542   7.901   4.303
14613TIP3    H243762   7.508   7.895   4.450
14614TIP3   OH243763   8.042   7.997   4.343
14614TIP3    H143764   8.047   7.952   4.257
14614TIP3    H243765   8.028   7.921   4.404
14615TIP3   OH243766   8.047   7.907   3.911
14615TIP3    H143767   7.962   7.954   3.920
14615TIP3    H243768   8.029   7.825   3.962
14616TIP3   OH243769   6.555   9.187   3.923
14616TIP3    H143770   6.472   9.151   3.891
14616TIP3    H243771   6.548   9.280   3.893
14617TIP3   OH243772   6.949   7.853   3.894
14617TIP3    H143773   6.997   7.789   3.837
14617TIP3    H243774   7.023   7.906   3.930
14618TIP3   OH243775   7.456   8.031   3.992
14618TIP3    H143776   7.514   7.983   4.053
14618TIP3    H243777   7.478   8.123   4.017
14619TIP3   OH243778   7.243   8.068   5.337
14619TIP3    H143779   7.224   8.017   5.418
14619TIP3    H243780   7.334   8.097   5.355
14620TIP3   OH243781   6.625   9.243   3.568
14620TIP3    H143782   6.601   9.325   3.614
14620TIP3    H243783   6.721   9.240   3.577
14621TIP3   OH243784   4.577   1.649   8.054
14621TIP3    H143785   4.585   1.744   8.030
14621TIP3    H243786   4.669   1.617   8.040
14622TIP3   OH243787   4.086   1.873   8.159
14622TIP3    H143788   4.141   1.798   8.129
14622TIP3    H243789   4.105   1.877   8.255
14623TIP3   OH243790   4.109   1.927   8.433
14623TIP3    H143791   4.028   1.935   8.485
14623TIP3    H243792   4.176   1.908   8.500
14624TIP3   OH243793   4.322   1.064   8.186
14624TIP3    H143794   4.294   1.048   8.094
14624TIP3    H243795   4.405   1.113   8.173
14625TIP3   OH243796   4.817   0.897   8.242
14625TIP3    H143797   4.761   0.857   8.311
14625TIP3    H243798   4.802   0.993   8.257
14626TIP3   OH243799   4.514   1.711   8.315
14626TIP3    H143800   4.488   1.628   8.356
14626TIP3    H243801   4.530   1.684   8.223
14627TIP3   OH243802   4.272   1.440   8.222
14627TIP3    H143803   4.304   1.417   8.311
14627TIP3    H243804   4.190   1.389   8.218
14628TIP3   OH243805   4.602   1.923   8.030
14628TIP3    H143806   4.639   1.992   7.973
14628TIP3    H243807   4.521   1.970   8.060
14629TIP3   OH243808   3.655   1.423   8.238
14629TIP3    H143809   3.674   1.339   8.191
14629TIP3    H243810   3.570   1.403   8.279
14630TIP3   OH243811   3.795   1.629   8.123
14630TIP3    H143812   3.751   1.554   8.168
14630TIP3    H243813   3.874   1.585   8.087
14631TIP3   OH243814   4.229   1.667   8.040
14631TIP3    H143815   4.273   1.602   8.098
14631TIP3    H243816   4.282   1.664   7.958
14632TIP3   OH243817   3.970   1.349   8.159
14632TIP3    H143818   3.967   1.335   8.255
14632TIP3    H243819   3.967   1.255   8.129
14633TIP3   OH243820   4.555   1.176   8.074
14633TIP3    H143821   4.541   1.133   7.987
14633TIP3    H243822   4.522   1.266   8.051
14634TIP3   OH243823   3.555   1.879   8.293
14634TIP3    H143824   3.653   1.882   8.280
14634TIP3    H243825   3.529   1.944   8.226
14635TIP3   OH243826   4.706   1.366   8.418
14635TIP3    H143827   4.774   1.424   8.378
14635TIP3    H243828   4.748   1.339   8.502
14636TIP3   OH243829   4.768   1.165   8.239
14636TIP3    H143830   4.692   1.168   8.177
14636TIP3    H243831   4.736   1.226   8.309
14637TIP3   OH243832   4.541   0.771   8.197
14637TIP3    H143833   4.561   0.865   8.183
14637TIP3    H243834   4.585   0.731   8.120
14638TIP3   OH243835   4.365   1.973   8.545
14638TIP3    H143836   4.430   1.959   8.473
14638TIP3    H243837   4.314   2.047   8.509
14639TIP3   OH243838   3.821   1.874   8.245
14639TIP3    H143839   3.910   1.898   8.214
14639TIP3    H243840   3.812   1.785   8.205
14640TIP3   OH243841   4.550   1.981   8.344
14640TIP3    H143842   4.547   1.884   8.326
14640TIP3    H243843   4.507   2.016   8.263
14641TIP3   OH243844   6.031   1.505   8.311
14641TIP3    H143845   6.005   1.596   8.287
14641TIP3    H243846   5.956   1.456   8.275
14642TIP3   OH243847   6.043   1.514   8.689
14642TIP3    H143848   6.034   1.456   8.766
14642TIP3    H243849   6.018   1.450   8.620
14643TIP3   OH243850   6.282   1.815   8.370
14643TIP3    H143851   6.268   1.744   8.436
14643TIP3    H243852   6.309   1.889   8.426
14644TIP3   OH243853   5.933   2.271   8.389
14644TIP3    H143854   5.975   2.199   8.338
14644TIP3    H243855   5.917   2.227   8.474
14645TIP3   OH243856   5.839   1.706   8.702
14645TIP3    H143857   5.905   1.639   8.679
14645TIP3    H243858   5.892   1.785   8.718
14646TIP3   OH243859   6.227   1.011   8.354
14646TIP3    H143860   6.311   0.965   8.371
14646TIP3    H243861   6.230   1.028   8.259
14647TIP3   OH243862   5.676   1.284   8.565
14647TIP3    H143863   5.771   1.272   8.580
14647TIP3    H243864   5.644   1.192   8.556
14648TIP3   OH243865   5.930   1.728   8.172
14648TIP3    H143866   5.881   1.707   8.092
14648TIP3    H243867   5.882   1.808   8.202
14649TIP3   OH243868   4.894   1.535   8.303
14649TIP3    H143869   4.862   1.553   8.213
14649TIP3    H243870   4.931   1.622   8.328
14650TIP3   OH243871   6.348   2.049   8.530
14650TIP3    H143872   6.259   2.039   8.571
14650TIP3    H243873   6.340   2.139   8.494
14651TIP3   OH243874   6.047   2.096   8.207
14651TIP3    H143875   6.098   2.014   8.191
14651TIP3    H243876   6.110   2.161   8.168
14652TIP3   OH243877   6.192   1.881   8.121
14652TIP3    H143878   6.140   1.803   8.096
14652TIP3    H243879   6.232   1.850   8.206
14653TIP3   OH243880   5.862   1.368   8.138
14653TIP3    H143881   5.780   1.416   8.117
14653TIP3    H243882   5.906   1.362   8.051
14654TIP3   OH243883   5.821   1.148   7.847
14654TIP3    H143884   5.885   1.204   7.895
14654TIP3    H243885   5.872   1.066   7.838
14655TIP3   OH243886   6.205   1.447   8.106
14655TIP3    H143887   6.149   1.466   8.185
14655TIP3    H243888   6.288   1.422   8.151
14656TIP3   OH243889   5.470   1.451   8.503
14656TIP3    H143890   5.408   1.379   8.488
14656TIP3    H243891   5.551   1.402   8.529
14657TIP3   OH243892   5.600   1.893   8.609
14657TIP3    H143893   5.541   1.851   8.543
14657TIP3    H243894   5.646   1.815   8.645
14658TIP3   OH243895   6.108   2.046   8.657
14658TIP3    H143896   6.085   2.132   8.699
14658TIP3    H243897   6.106   1.984   8.732
14659TIP3   OH243898   6.038   1.314   7.929
14659TIP3    H143899   6.098   1.371   7.981
14659TIP3    H243900   6.070   1.332   7.837
14660TIP3   OH243901   5.802   1.972   8.206
14660TIP3    H143902   5.883   2.025   8.217
14660TIP3    H243903   5.738   2.038   8.174
14661TIP3   OH243904   5.322   1.262   8.288
14661TIP3    H143905   5.239   1.303   8.256
14661TIP3    H243906   5.295   1.221   8.371
14662TIP3   OH243907   6.370   1.903   7.535
14662TIP3    H143908   6.378   2.000   7.520
14662TIP3    H243909   6.463   1.874   7.523
14663TIP3   OH243910   5.680   2.221   8.015
14663TIP3    H143911   5.632   2.206   7.932
14663TIP3    H243912   5.646   2.309   8.043
14664TIP3   OH243913   5.116   2.073   8.394
14664TIP3    H143914   5.175   2.074   8.473
14664TIP3    H243915   5.056   2.001   8.418
14665TIP3   OH243916   5.878   2.124   7.653
14665TIP3    H143917   5.937   2.054   7.618
14665TIP3    H243918   5.913   2.135   7.744
14666TIP3   OH243919   5.931   2.173   7.922
14666TIP3    H143920   5.843   2.182   7.965
14666TIP3    H243921   5.982   2.133   7.995
14667TIP3   OH243922   6.132   1.335   7.676
14667TIP3    H143923   6.094   1.321   7.587
14667TIP3    H243924   6.215   1.381   7.654
14668TIP3   OH243925   5.542   1.044   8.540
14668TIP3    H143926   5.447   1.051   8.554
14668TIP3    H243927   5.546   1.014   8.446
14669TIP3   OH243928   5.981   1.171   8.283
14669TIP3    H143929   5.934   1.242   8.233
14669TIP3    H243930   6.049   1.144   8.217
14670TIP3   OH243931   6.170   1.233   8.500
14670TIP3    H143932   6.109   1.262   8.429
14670TIP3    H243933   6.186   1.142   8.467
14671TIP3   OH243934   5.073   0.818   8.343
14671TIP3    H143935   5.104   0.848   8.256
14671TIP3    H243936   4.987   0.863   8.346
14672TIP3   OH243937   5.554   0.954   8.285
14672TIP3    H143938   5.646   0.957   8.253
14672TIP3    H243939   5.499   0.959   8.204
14673TIP3   OH243940   5.382   0.964   8.064
14673TIP3    H143941   5.314   0.933   8.001
14673TIP3    H243942   5.440   1.014   8.004
14674TIP3   OH243943   6.472   2.701   9.019
14674TIP3    H143944   6.487   2.683   8.925
14674TIP3    H243945   6.560   2.727   9.048
14675TIP3   OH243946   5.947   1.239   8.659
14675TIP3    H143947   6.030   1.214   8.615
14675TIP3    H243948   5.924   1.158   8.708
14676TIP3   OH243949   5.632   1.509   8.076
14676TIP3    H143950   5.559   1.444   8.070
14676TIP3    H243951   5.616   1.547   8.166
14677TIP3   OH243952   6.527   1.735   8.696
14677TIP3    H143953   6.578   1.807   8.652
14677TIP3    H243954   6.442   1.739   8.647
14678TIP3   OH243955   6.012   0.903   7.936
14678TIP3    H143956   6.019   0.814   7.969
14678TIP3    H243957   6.103   0.901   7.885
14679TIP3   OH243958   6.164   1.121   8.094
14679TIP3    H143959   6.260   1.120   8.071
14679TIP3    H243960   6.126   1.172   8.020
14680TIP3   OH243961   5.781   1.659   7.907
14680TIP3    H143962   5.731   1.744   7.912
14680TIP3    H243963   5.726   1.602   7.966
14681TIP3   OH243964   6.577   1.170   7.888
14681TIP3    H143965   6.518   1.130   7.821
14681TIP3    H243966   6.587   1.259   7.850
14682TIP3   OH243967   6.306   1.980   7.802
14682TIP3    H143968   6.278   1.912   7.865
14682TIP3    H243969   6.318   1.930   7.719
14683TIP3   OH243970   6.271   1.637   8.578
14683TIP3    H143971   6.186   1.596   8.605
14683TIP3    H243972   6.330   1.559   8.585
14684TIP3   OH243973   5.427   1.842   8.383
14684TIP3    H143974   5.414   1.921   8.326
14684TIP3    H243975   5.337   1.816   8.405
14685TIP3   OH243976   4.993   1.149   8.084
14685TIP3    H143977   5.044   1.229   8.111
14685TIP3    H243978   4.917   1.156   8.145
14686TIP3   OH243979   5.574   1.617   8.312
14686TIP3    H143980   5.538   1.703   8.341
14686TIP3    H243981   5.543   1.559   8.385
14687TIP3   OH243982   5.706   2.181   8.822
14687TIP3    H143983   5.750   2.257   8.778
14687TIP3    H243984   5.777   2.146   8.877
14688TIP3   OH243985   5.346   2.080   8.236
14688TIP3    H143986   5.261   2.089   8.282
14688TIP3    H243987   5.381   2.172   8.243
14689TIP3   OH243988   6.136   1.816   8.830
14689TIP3    H143989   6.047   1.825   8.868
14689TIP3    H243990   6.130   1.737   8.775
14690TIP3   OH243991   6.061   1.711   7.701
14690TIP3    H143992   6.117   1.685   7.778
14690TIP3    H243993   5.974   1.683   7.733
14691TIP3   OH243994   6.289   2.353   8.892
14691TIP3    H143995   6.221   2.300   8.846
14691TIP3    H243996   6.324   2.404   8.817
14692TIP3   OH243997   6.400   2.180   7.519
14692TIP3    H143998   6.438   2.255   7.470
14692TIP3    H243999   6.319   2.223   7.554
14693TIP3   OH244000   6.219   1.637   7.909
14693TIP3    H144001   6.211   1.576   7.985
14693TIP3    H244002   6.316   1.638   7.896
14694TIP3   OH244003   5.423   1.687   7.703
14694TIP3    H144004   5.438   1.594   7.678
14694TIP3    H244005   5.404   1.678   7.798
14695TIP3   OH244006   5.365   1.693   7.975
14695TIP3    H144007   5.440   1.662   8.028
14695TIP3    H244008   5.373   1.791   7.984
14696TIP3   OH244009   5.097   1.387   8.179
14696TIP3    H144010   5.034   1.434   8.237
14696TIP3    H244011   5.116   1.456   8.112
14697TIP3   OH244012   5.636   1.887   7.917
14697TIP3    H144013   5.550   1.911   7.957
14697TIP3    H244014   5.654   1.968   7.866
14698TIP3   OH244015   5.850   0.943   8.343
14698TIP3    H144016   5.896   1.026   8.320
14698TIP3    H244017   5.848   0.950   8.439
14699TIP3   OH244018   5.383   1.965   7.990
14699TIP3    H144019   5.354   2.037   7.929
14699TIP3    H244020   5.370   2.009   8.077
14700TIP3   OH244021   6.408   1.371   8.514
14700TIP3    H144022   6.322   1.324   8.516
14700TIP3    H244023   6.467   1.311   8.562
14701TIP3   OH244024   5.102   1.591   7.979
14701TIP3    H144025   5.179   1.651   7.988
14701TIP3    H244026   5.142   1.528   7.915
14702TIP3   OH244027   5.039   0.878   8.076
14702TIP3    H144028   5.052   0.974   8.071
14702TIP3    H244029   4.944   0.874   8.101
14703TIP3   OH244030   6.350   2.324   8.457
14703TIP3    H144031   6.310   2.373   8.382
14703TIP3    H244032   6.445   2.340   8.440
14704TIP3   OH244033   4.960   1.790   8.366
14704TIP3    H144034   4.888   1.844   8.400
14704TIP3    H244035   4.973   1.833   8.280
14705TIP3   OH244036   5.586   1.888   7.608
14705TIP3    H144037   5.531   1.817   7.649
14705TIP3    H244038   5.664   1.836   7.581
14706TIP3   OH244039   6.023   1.927   7.526
14706TIP3    H144040   6.061   1.861   7.588
14706TIP3    H244041   6.083   1.921   7.450
14707TIP3   OH244042   5.237   1.402   7.840
14707TIP3    H144043   5.296   1.372   7.913
14707TIP3    H244044   5.304   1.408   7.768
14708TIP3   OH244045   5.749   1.606   7.640
14708TIP3    H144046   5.752   1.618   7.737
14708TIP3    H244047   5.750   1.508   7.635
14709TIP3   OH244048   5.432   1.321   8.043
14709TIP3    H144049   5.404   1.291   8.132
14709TIP3    H244050   5.473   1.240   8.006
14710TIP3   OH244051   5.543   1.109   7.897
14710TIP3    H144052   5.519   1.114   7.803
14710TIP3    H244053   5.641   1.108   7.891
14711TIP3   OH244054   6.363   1.433   7.559
14711TIP3    H144055   6.344   1.394   7.472
14711TIP3    H244056   6.329   1.524   7.543
14712TIP3   OH244057   5.354   2.170   7.803
14712TIP3    H144058   5.449   2.157   7.784
14712TIP3    H244059   5.328   2.222   7.724
14713TIP3   OH244060   4.834   1.548   8.024
14713TIP3    H144061   4.927   1.570   8.004
14713TIP3    H244062   4.826   1.460   7.979
14714TIP3   OH244063   4.738   2.164   8.430
14714TIP3    H144064   4.672   2.106   8.387
14714TIP3    H244065   4.800   2.098   8.464
14715TIP3   OH244066   4.909   2.014   8.582
14715TIP3    H144067   4.836   2.026   8.647
14715TIP3    H244068   4.965   2.091   8.602
14716TIP3   OH244069   6.611   2.396   8.421
14716TIP3    H144070   6.638   2.427   8.511
14716TIP3    H244071   6.671   2.448   8.364
14717TIP3   OH244072   6.640   2.440   8.691
14717TIP3    H144073   6.593   2.354   8.683
14717TIP3    H244074   6.646   2.441   8.790
14718TIP3   OH244075   6.492   1.633   7.873
14718TIP3    H144076   6.564   1.695   7.851
14718TIP3    H244077   6.527   1.591   7.955
14719TIP3   OH244078   6.589   1.492   8.077
14719TIP3    H144079   6.526   1.450   8.140
14719TIP3    H244080   6.657   1.527   8.137
14720TIP3   OH244081   6.683   1.880   8.515
14720TIP3    H144082   6.688   1.835   8.431
14720TIP3    H244083   6.660   1.970   8.487
14721TIP3   OH244084   6.516   2.199   8.710
14721TIP3    H144085   6.513   2.154   8.796
14721TIP3    H244086   6.470   2.135   8.652
14722TIP3   OH244087   6.561   1.399   7.743
14722TIP3    H144088   6.492   1.402   7.674
14722TIP3    H244089   6.534   1.477   7.796
14723TIP3   OH244090   6.428   1.061   7.684
14723TIP3    H144091   6.409   1.127   7.616
14723TIP3    H244092   6.378   0.985   7.653
14724TIP3   OH244093   6.425   1.365   8.244
14724TIP3    H144094   6.426   1.269   8.225
14724TIP3    H244095   6.426   1.368   8.343
14725TIP3   OH244096   6.436   1.120   8.113
14725TIP3    H144097   6.467   1.028   8.105
14725TIP3    H244098   6.488   1.157   8.038
14726TIP3   OH244099   6.191   2.282   8.074
14726TIP3    H144100   6.245   2.272   7.993
14726TIP3    H244101   6.243   2.346   8.125
14727TIP3   OH244102   6.122   2.546   9.003
14727TIP3    H144103   6.168   2.468   8.965
14727TIP3    H244104   6.191   2.613   8.994
14728TIP3   OH244105   5.812   2.390   8.677
14728TIP3    H144106   5.735   2.400   8.618
14728TIP3    H244107   5.813   2.477   8.722
14729TIP3   OH244108   6.069   2.312   8.731
14729TIP3    H144109   5.977   2.339   8.709
14729TIP3    H244110   6.120   2.385   8.691
14730TIP3   OH244111   6.288   2.507   8.656
14730TIP3    H144112   6.272   2.589   8.604
14730TIP3    H244113   6.314   2.443   8.586
14731TIP3   OH244114   5.252   2.047   8.624
14731TIP3    H144115   5.281   1.955   8.641
14731TIP3    H244116   5.337   2.095   8.634
14732TIP3   OH244117   5.513   2.148   8.632
14732TIP3    H144118   5.547   2.058   8.610
14732TIP3    H244119   5.567   2.165   8.712
14733TIP3   OH244120   4.841   1.955   8.176
14733TIP3    H144121   4.758   1.917   8.141
14733TIP3    H244122   4.835   2.044   8.135
14734TIP3   OH244123   5.619   2.121   7.749
14734TIP3    H144124   5.707   2.144   7.713
14734TIP3    H244125   5.597   2.046   7.689
14735TIP3   OH244126   6.341   2.247   7.844
14735TIP3    H144127   6.333   2.149   7.834
14735TIP3    H244128   6.294   2.277   7.763
14736TIP3   OH244129   4.923   1.959   7.803
14736TIP3    H144130   4.934   1.984   7.896
14736TIP3    H244131   5.009   1.916   7.783
14737TIP3   OH244132   6.559   2.436   8.946
14737TIP3    H144133   6.494   2.365   8.953
14737TIP3    H244134   6.560   2.471   9.036
14738TIP3   OH244135   6.813   1.321   8.047
14738TIP3    H144136   6.722   1.349   8.028
14738TIP3    H244137   6.799   1.241   8.101
14739TIP3   OH244138   6.832   1.544   8.190
14739TIP3    H144139   6.838   1.456   8.145
14739TIP3    H244140   6.880   1.599   8.128
14740TIP3   OH244141   7.727   1.956   7.616
14740TIP3    H144142   7.675   1.937   7.535
14740TIP3    H244143   7.730   2.052   7.614
14741TIP3   OH244144   6.703   1.796   7.784
14741TIP3    H144145   6.664   1.821   7.698
14741TIP3    H244146   6.735   1.883   7.817
14742TIP3   OH244147   7.626   1.394   7.328
14742TIP3    H144148   7.667   1.467   7.382
14742TIP3    H244149   7.681   1.320   7.357
14743TIP3   OH244150   7.629   2.327   7.676
14743TIP3    H144151   7.635   2.248   7.733
14743TIP3    H244152   7.539   2.324   7.641
14744TIP3   OH244153   7.083   1.551   7.848
14744TIP3    H144154   7.019   1.568   7.776
14744TIP3    H244155   7.092   1.454   7.848
14745TIP3   OH244156   8.165   2.165   7.015
14745TIP3    H144157   8.166   2.262   6.998
14745TIP3    H244158   8.259   2.144   7.016
14746TIP3   OH244159   6.742   2.132   8.361
14746TIP3    H144160   6.836   2.151   8.369
14746TIP3    H244161   6.702   2.207   8.408
14747TIP3   OH244162   7.443   2.476   7.500
14747TIP3    H144163   7.420   2.467   7.406
14747TIP3    H244164   7.427   2.571   7.518
14748TIP3   OH244165   6.910   2.327   7.883
14748TIP3    H144166   6.953   2.320   7.971
14748TIP3    H244167   6.859   2.244   7.880
14749TIP3   OH244168   7.675   2.382   7.140
14749TIP3    H144169   7.734   2.312   7.105
14749TIP3    H244170   7.707   2.391   7.232
14750TIP3   OH244171   7.721   2.431   7.412
14750TIP3    H144172   7.646   2.416   7.474
14750TIP3    H244173   7.796   2.425   7.475
14751TIP3   OH244174   7.939   1.568   7.169
14751TIP3    H144175   7.886   1.546   7.090
14751TIP3    H244176   8.008   1.624   7.127
14752TIP3   OH244177   6.841   1.053   7.824
14752TIP3    H144178   6.854   1.094   7.735
14752TIP3    H244179   6.793   1.125   7.869
14753TIP3   OH244180   7.164   1.240   7.561
14753TIP3    H144181   7.102   1.196   7.500
14753TIP3    H244182   7.232   1.271   7.499
14754TIP3   OH244183   7.418   1.775   7.560
14754TIP3    H144184   7.360   1.697   7.552
14754TIP3    H244185   7.397   1.805   7.651
14755TIP3   OH244186   7.572   1.915   7.391
14755TIP3    H144187   7.520   1.999   7.396
14755TIP3    H244188   7.516   1.856   7.449
14756TIP3   OH244189   8.058   2.251   7.262
14756TIP3    H144190   8.088   2.195   7.335
14756TIP3    H244191   8.097   2.206   7.185
14757TIP3   OH244192   7.214   2.114   7.875
14757TIP3    H144193   7.205   2.194   7.820
14757TIP3    H244194   7.124   2.081   7.877
14758TIP3   OH244195   6.779   1.408   7.572
14758TIP3    H144196   6.829   1.488   7.598
14758TIP3    H244197   6.708   1.408   7.640
14759TIP3   OH244198   7.343   1.876   7.799
14759TIP3    H144199   7.306   1.958   7.836
14759TIP3    H244200   7.397   1.842   7.873
14760TIP3   OH244201   7.141   2.340   7.725
14760TIP3    H144202   7.054   2.349   7.770
14760TIP3    H244203   7.173   2.433   7.727
14761TIP3   OH244204   7.854   1.962   7.186
14761TIP3    H144205   7.883   1.963   7.278
14761TIP3    H244206   7.764   1.927   7.193
14762TIP3   OH244207   8.181   2.440   6.997
14762TIP3    H144208   8.200   2.517   6.940
14762TIP3    H244209   8.106   2.478   7.048
14763TIP3   OH244210   6.924   2.343   8.510
14763TIP3    H144211   6.981   2.269   8.481
14763TIP3    H244212   6.984   2.396   8.563
14764TIP3   OH244213   7.223   1.943   7.189
14764TIP3    H144214   7.232   1.849   7.163
14764TIP3    H244215   7.200   1.934   7.284
14765TIP3   OH244216   7.163   1.949   7.460
14765TIP3    H144217   7.234   1.915   7.517
14765TIP3    H244218   7.171   2.046   7.472
14766TIP3   OH244219   6.894   1.640   7.659
14766TIP3    H144220   6.833   1.687   7.718
14766TIP3    H244221   6.914   1.710   7.594
14767TIP3   OH244222   7.438   2.149   7.414
14767TIP3    H144223   7.348   2.170   7.446
14767TIP3    H244224   7.454   2.226   7.357
14768TIP3   OH244225   7.181   2.222   7.478
14768TIP3    H144226   7.152   2.291   7.415
14768TIP3    H244227   7.167   2.267   7.564
14769TIP3   OH244228   6.898   1.847   7.464
14769TIP3    H144229   6.972   1.910   7.474
14769TIP3    H244230   6.939   1.786   7.399
14770TIP3   OH244231   6.826   1.139   7.570
14770TIP3    H144232   6.829   1.237   7.566
14770TIP3    H244233   6.752   1.119   7.511
14771TIP3   OH244234   6.762   2.066   7.852
14771TIP3    H144235   6.699   2.095   7.919
14771TIP3    H244236   6.727   2.108   7.771
14772TIP3   OH244237   7.384   2.145   7.097
14772TIP3    H144238   7.330   2.073   7.135
14772TIP3    H244239   7.460   2.095   7.061
14773TIP3   OH244240   7.820   2.186   7.009
14773TIP3    H144241   7.867   2.132   7.074
14773TIP3    H244242   7.876   2.178   6.930
14774TIP3   OH244243   7.033   1.659   7.324
14774TIP3    H144244   7.089   1.629   7.398
14774TIP3    H244245   7.100   1.665   7.253
14775TIP3   OH244246   7.554   1.861   7.125
14775TIP3    H144247   7.547   1.872   7.222
14775TIP3    H244248   7.546   1.763   7.118
14776TIP3   OH244249   7.233   1.570   7.535
14776TIP3    H144250   7.212   1.537   7.623
14776TIP3    H244251   7.270   1.491   7.491
14777TIP3   OH244252   7.343   1.363   7.384
14777TIP3    H144253   7.309   1.366   7.292
14777TIP3    H244254   7.439   1.367   7.367
14778TIP3   OH244255   8.129   1.712   7.048
14778TIP3    H144256   8.138   1.658   6.967
14778TIP3    H244257   8.098   1.797   7.010
14779TIP3   OH244258   7.150   2.424   7.289
14779TIP3    H144259   7.245   2.414   7.271
14779TIP3    H244260   7.124   2.476   7.210
14780TIP3   OH244261   6.629   1.807   7.504
14780TIP3    H144262   6.724   1.828   7.488
14780TIP3    H244263   6.622   1.718   7.462
14781TIP3   OH244264   6.545   2.419   7.920
14781TIP3    H144265   6.479   2.357   7.881
14781TIP3    H244266   6.589   2.359   7.984
14782TIP3   OH244267   6.678   2.264   8.105
14782TIP3    H144268   6.663   2.197   8.174
14782TIP3    H244269   6.730   2.328   8.155
14783TIP3   OH244270   7.945   2.493   7.571
14783TIP3    H144271   8.022   2.461   7.520
14783TIP3    H244272   7.974   2.582   7.599
14784TIP3   OH244273   6.948   2.654   8.531
14784TIP3    H144274   6.858   2.687   8.508
14784TIP3    H244275   6.934   2.626   8.622
14785TIP3   OH244276   7.120   2.554   8.328
14785TIP3    H144277   7.059   2.596   8.392
14785TIP3    H244278   7.131   2.625   8.262
14786TIP3   OH244279   6.846   2.429   8.260
14786TIP3    H144280   6.873   2.417   8.353
14786TIP3    H244281   6.925   2.390   8.216
14787TIP3   OH244282   7.046   2.301   8.119
14787TIP3    H144283   7.074   2.225   8.172
14787TIP3    H244284   7.132   2.345   8.102
14788TIP3   OH244285   7.318   2.379   8.137
14788TIP3    H144286   7.324   2.284   8.160
14788TIP3    H244287   7.291   2.419   8.222
14789TIP3   OH244288   6.643   2.200   7.651
14789TIP3    H144289   6.557   2.166   7.620
14789TIP3    H244290   6.634   2.293   7.625
14790TIP3   OH244291   7.416   2.381   7.233
14790TIP3    H144292   7.505   2.401   7.198
14790TIP3    H244293   7.394   2.304   7.175
14791TIP3   OH244294   8.157   2.499   7.337
14791TIP3    H144295   8.125   2.408   7.319
14791TIP3    H244296   8.112   2.546   7.264
14792TIP3   OH244297   6.719   2.218   7.289
14792TIP3    H144298   6.724   2.234   7.385
14792TIP3    H244299   6.806   2.174   7.272
14793TIP3   OH244300   8.905   2.630   6.708
14793TIP3    H144301   8.966   2.670   6.773
14793TIP3    H244302   8.912   2.696   6.636
14794TIP3   OH244303   8.452   2.417   7.047
14794TIP3    H144304   8.354   2.417   7.035
14794TIP3    H244305   8.461   2.498   7.102
14795TIP3   OH244306   8.512   2.481   6.781
14795TIP3    H144307   8.494   2.469   6.877
14795TIP3    H244308   8.598   2.434   6.772
14796TIP3   OH244309   2.412   3.212   8.172
14796TIP3    H144310   2.422   3.308   8.174
14796TIP3    H244311   2.504   3.182   8.155
14797TIP3   OH244312   1.893   3.383   8.261
14797TIP3    H144313   1.954   3.311   8.239
14797TIP3    H244314   1.935   3.421   8.340
14798TIP3   OH244315   2.442   3.488   8.179
14798TIP3    H144316   2.489   3.543   8.114
14798TIP3    H244317   2.352   3.517   8.157
14799TIP3   OH244318   2.084   3.203   8.176
14799TIP3    H144319   2.162   3.221   8.231
14799TIP3    H244320   2.122   3.210   8.085
14800TIP3   OH244321   2.403   2.738   8.235
14800TIP3    H144322   2.387   2.684   8.155
14800TIP3    H244323   2.377   2.826   8.200
14801TIP3   OH244324   2.433   3.582   8.459
14801TIP3    H144325   2.460   3.510   8.399
14801TIP3    H244326   2.404   3.647   8.393
14802TIP3   OH244327   3.868   3.076   8.468
14802TIP3    H144328   3.839   3.162   8.428
14802TIP3    H244329   3.801   3.018   8.427
14803TIP3   OH244330   4.116   3.372   8.520
14803TIP3    H144331   4.138   3.300   8.580
14803TIP3    H244332   4.142   3.451   8.572
14804TIP3   OH244333   3.746   3.824   8.515
14804TIP3    H144334   3.796   3.752   8.471
14804TIP3    H244335   3.790   3.825   8.604
14805TIP3   OH244336   4.133   2.577   8.507
14805TIP3    H144337   4.205   2.553   8.566
14805TIP3    H244338   4.178   2.582   8.420
14806TIP3   OH244339   3.760   3.282   8.323
14806TIP3    H144340   3.723   3.273   8.234
14806TIP3    H244341   3.717   3.365   8.352
14807TIP3   OH244342   2.759   3.097   8.389
14807TIP3    H144343   2.711   3.100   8.303
14807TIP3    H244344   2.758   3.191   8.413
14808TIP3   OH244345   4.165   3.607   8.675
14808TIP3    H144346   4.088   3.616   8.731
14808TIP3    H244347   4.172   3.697   8.637
14809TIP3   OH244348   3.889   3.654   8.356
14809TIP3    H144349   3.939   3.571   8.335
14809TIP3    H244350   3.952   3.720   8.319
14810TIP3   OH244351   4.030   3.439   8.269
14810TIP3    H144352   3.999   3.357   8.228
14810TIP3    H244353   4.065   3.407   8.355
14811TIP3   OH244354   3.714   2.921   8.295
14811TIP3    H144355   3.631   2.969   8.274
14811TIP3    H244356   3.755   2.913   8.207
14812TIP3   OH244357   3.665   2.703   8.002
14812TIP3    H144358   3.734   2.757   8.046
14812TIP3    H244359   3.722   2.640   7.953
14813TIP3   OH244360   4.628   3.106   8.801
14813TIP3    H144361   4.565   3.158   8.853
14813TIP3    H244362   4.647   3.165   8.726
14814TIP3   OH244363   4.051   3.000   8.265
14814TIP3    H144364   4.002   3.032   8.343
14814TIP3    H244365   4.137   2.974   8.304
14815TIP3   OH244366   3.892   2.856   8.087
14815TIP3    H144367   3.951   2.918   8.136
14815TIP3    H244368   3.919   2.876   7.994
14816TIP3   OH244369   3.640   3.530   8.361
14816TIP3    H144370   3.721   3.584   8.374
14816TIP3    H244371   3.580   3.593   8.320
14817TIP3   OH244372   4.412   2.094   8.134
14817TIP3    H144373   4.332   2.117   8.185
14817TIP3    H244374   4.426   2.176   8.083
14818TIP3   OH244375   3.216   2.831   8.427
14818TIP3    H144376   3.131   2.871   8.402
14818TIP3    H244377   3.187   2.761   8.487
14819TIP3   OH244378   4.210   3.462   7.687
14819TIP3    H144379   4.218   3.558   7.670
14819TIP3    H244380   4.303   3.433   7.673
14820TIP3   OH244381   3.521   3.777   8.167
14820TIP3    H144382   3.475   3.761   8.082
14820TIP3    H244383   3.487   3.864   8.193
14821TIP3   OH244384   2.954   3.615   8.551
14821TIP3    H144385   3.030   3.598   8.608
14821TIP3    H244386   2.929   3.525   8.522
14822TIP3   OH244387   3.720   3.683   7.803
14822TIP3    H144388   3.778   3.613   7.768
14822TIP3    H244389   3.756   3.693   7.894
14823TIP3   OH244390   3.772   3.732   8.074
14823TIP3    H144391   3.683   3.740   8.115
14823TIP3    H244392   3.823   3.693   8.147
14824TIP3   OH244393   3.972   2.896   7.833
14824TIP3    H144394   3.934   2.876   7.746
14824TIP3    H244395   4.056   2.940   7.807
14825TIP3   OH244396   3.684   2.274   8.141
14825TIP3    H144397   3.656   2.263   8.234
14825TIP3    H244398   3.643   2.194   8.103
14826TIP3   OH244399   3.834   2.711   8.425
14826TIP3    H144400   3.782   2.783   8.382
14826TIP3    H244401   3.889   2.680   8.351
14827TIP3   OH244402   4.047   2.824   8.587
14827TIP3    H144403   3.984   2.856   8.521
14827TIP3    H244404   4.074   2.738   8.547
14828TIP3   OH244405   3.345   2.250   8.098
14828TIP3    H144406   3.332   2.242   8.195
14828TIP3    H244407   3.264   2.301   8.075
14829TIP3   OH244408   3.379   2.489   8.431
14829TIP3    H144409   3.461   2.525   8.395
14829TIP3    H244410   3.312   2.519   8.365
14830TIP3   OH244411   3.212   2.550   8.224
14830TIP3    H144412   3.153   2.495   8.168
14830TIP3    H244413   3.272   2.585   8.155
14831TIP3   OH244414   3.484   3.062   8.228
14831TIP3    H144415   3.409   3.002   8.208
14831TIP3    H244416   3.455   3.105   8.312
14832TIP3   OH244417   3.925   2.386   8.093
14832TIP3    H144418   3.831   2.360   8.109
14832TIP3    H244419   3.928   2.478   8.126
14833TIP3   OH244420   3.996   2.631   8.215
14833TIP3    H144421   4.093   2.633   8.221
14833TIP3    H244422   3.977   2.709   8.158
14834TIP3   OH244423   3.630   3.221   8.062
14834TIP3    H144424   3.576   3.304   8.065
14834TIP3    H244425   3.576   3.162   8.118
14835TIP3   OH244426   4.438   2.723   8.042
14835TIP3    H144427   4.379   2.678   7.977
14835TIP3    H244428   4.436   2.812   8.001
14836TIP3   OH244429   4.149   3.538   7.952
14836TIP3    H144430   4.118   3.469   8.011
14836TIP3    H244431   4.159   3.491   7.867
14837TIP3   OH244432   3.274   3.421   8.541
14837TIP3    H144433   3.254   3.492   8.477
14837TIP3    H244434   3.190   3.377   8.553
14838TIP3   OH244435   2.811   2.709   8.237
14838TIP3    H144436   2.867   2.787   8.252
14838TIP3    H244437   2.734   2.728   8.293
14839TIP3   OH244438   3.403   3.183   8.457
14839TIP3    H144439   3.378   3.271   8.491
14839TIP3    H244440   3.368   3.123   8.526
14840TIP3   OH244441   3.188   3.641   8.387
14840TIP3    H144442   3.099   3.667   8.416
14840TIP3    H244443   3.233   3.729   8.391
14841TIP3   OH244444   3.906   3.269   7.852
14841TIP3    H144445   3.957   3.243   7.932
14841TIP3    H244446   3.817   3.239   7.878
14842TIP3   OH244447   4.240   3.737   7.668
14842TIP3    H144448   4.273   3.810   7.613
14842TIP3    H244449   4.160   3.780   7.706
14843TIP3   OH244450   4.065   3.199   8.069
14843TIP3    H144451   4.055   3.131   8.138
14843TIP3    H244452   4.162   3.196   8.054
14844TIP3   OH244453   3.267   3.244   7.854
14844TIP3    H144454   3.278   3.152   7.825
14844TIP3    H244455   3.243   3.232   7.948
14845TIP3   OH244456   3.206   3.251   8.128
14845TIP3    H144457   3.286   3.227   8.177
14845TIP3    H244458   3.210   3.350   8.131
14846TIP3   OH244459   2.965   2.933   8.329
14846TIP3    H144460   2.894   2.995   8.358
14846TIP3    H244461   2.998   2.983   8.252
14847TIP3   OH244462   4.026   2.340   8.358
14847TIP3    H144463   3.978   2.351   8.273
14847TIP3    H244464   4.002   2.420   8.406
14848TIP3   OH244465   3.478   3.445   8.071
14848TIP3    H144466   3.391   3.471   8.107
14848TIP3    H244467   3.494   3.518   8.010
14849TIP3   OH244468   3.677   2.500   8.500
14849TIP3    H144469   3.731   2.576   8.470
14849TIP3    H244470   3.713   2.482   8.588
14850TIP3   OH244471   3.225   3.523   8.140
14850TIP3    H144472   3.197   3.592   8.075
14850TIP3    H244473   3.212   3.570   8.225
14851TIP3   OH244474   3.328   2.230   8.371
14851TIP3    H144475   3.337   2.320   8.408
14851TIP3    H244476   3.415   2.194   8.393
14852TIP3   OH244477   4.284   2.939   8.656
14852TIP3    H144478   4.192   2.907   8.649
14852TIP3    H244479   4.312   2.896   8.739
14853TIP3   OH244480   2.940   3.148   8.121
14853TIP3    H144481   3.014   3.212   8.131
14853TIP3    H244482   2.983   3.086   8.058
14854TIP3   OH244483   2.861   2.430   8.190
14854TIP3    H144484   2.872   2.521   8.222
14854TIP3    H244485   2.868   2.381   8.273
14855TIP3   OH244486   4.194   3.882   8.607
14855TIP3    H144487   4.148   3.931   8.535
14855TIP3    H244488   4.287   3.901   8.582
14856TIP3   OH244489   2.811   3.372   8.502
14856TIP3    H144490   2.738   3.384   8.564
14856TIP3    H244491   2.775   3.415   8.421
14857TIP3   OH244492   3.430   3.447   7.761
14857TIP3    H144493   3.376   3.374   7.799
14857TIP3    H244494   3.504   3.397   7.724
14858TIP3   OH244495   3.865   3.485   7.676
14858TIP3    H144496   3.905   3.419   7.736
14858TIP3    H244497   3.922   3.480   7.597
14859TIP3   OH244498   3.081   2.959   7.991
14859TIP3    H144499   3.147   2.928   8.058
14859TIP3    H244500   3.141   2.967   7.914
14860TIP3   OH244501   3.596   3.165   7.794
14860TIP3    H144502   3.597   3.177   7.891
14860TIP3    H244503   3.595   3.067   7.787
14861TIP3   OH244504   3.281   2.880   8.169
14861TIP3    H144505   3.266   2.849   8.261
14861TIP3    H244506   3.321   2.800   8.129
14862TIP3   OH244507   3.389   2.660   8.043
14862TIP3    H144508   3.363   2.666   7.949
14862TIP3    H244509   3.487   2.661   8.036
14863TIP3   OH244510   4.204   2.991   7.715
14863TIP3    H144511   4.184   2.948   7.629
14863TIP3    H244512   4.171   3.082   7.694
14864TIP3   OH244513   3.195   3.725   7.955
14864TIP3    H144514   3.290   3.717   7.932
14864TIP3    H244515   3.165   3.777   7.878
14865TIP3   OH244516   2.669   3.116   8.125
14865TIP3    H144517   2.766   3.132   8.117
14865TIP3    H244518   2.661   3.025   8.088
14866TIP3   OH244519   4.440   3.982   8.538
14866TIP3    H144520   4.477   4.005   8.626
14866TIP3    H244521   4.513   4.007   8.480
14867TIP3   OH244522   4.534   3.999   8.790
14867TIP3    H144523   4.479   3.918   8.799
14867TIP3    H244524   4.570   4.007   8.878
14868TIP3   OH244525   4.342   3.180   8.042
14868TIP3    H144526   4.408   3.245   8.012
14868TIP3    H244527   4.388   3.141   8.120
14869TIP3   OH244528   4.469   3.047   8.243
14869TIP3    H144529   4.404   3.006   8.304
14869TIP3    H244530   4.538   3.081   8.304
14870TIP3   OH244531   4.553   3.458   8.696
14870TIP3    H144532   4.592   3.383   8.646
14870TIP3    H244533   4.524   3.516   8.623
14871TIP3   OH244534   4.383   3.768   8.814
14871TIP3    H144535   4.293   3.799   8.833
14871TIP3    H244536   4.364   3.681   8.774
14872TIP3   OH244537   4.407   2.955   7.894
14872TIP3    H144538   4.335   2.957   7.826
14872TIP3    H244539   4.379   3.031   7.948
14873TIP3   OH244540   4.278   2.626   7.846
14873TIP3    H144541   4.231   2.662   7.769
14873TIP3    H244542   4.256   2.531   7.838
14874TIP3   OH244543   4.283   2.906   8.386
14874TIP3    H144544   4.295   2.810   8.380
14874TIP3    H244545   4.296   2.921   8.483
14875TIP3   OH244546   4.221   2.361   7.829
14875TIP3    H144547   4.290   2.326   7.888
14875TIP3    H244548   4.144   2.304   7.847
14876TIP3   OH244549   4.280   2.623   8.276
14876TIP3    H144550   4.321   2.534   8.286
14876TIP3    H244551   4.337   2.660   8.207
14877TIP3   OH244552   4.390   2.376   8.313
14877TIP3    H144553   4.439   2.358   8.396
14877TIP3    H244554   4.329   2.299   8.313
14878TIP3   OH244555   4.466   2.301   7.962
14878TIP3    H144556   4.505   2.234   7.902
14878TIP3    H244557   4.531   2.374   7.958
14879TIP3   OH244558   4.036   3.841   8.227
14879TIP3    H144559   4.085   3.828   8.143
14879TIP3    H244560   4.092   3.905   8.273
14880TIP3   OH244561   3.874   3.841   8.749
14880TIP3    H144562   3.821   3.824   8.828
14880TIP3    H244563   3.950   3.890   8.784
14881TIP3   OH244564   4.131   4.094   8.782
14881TIP3    H144565   4.118   4.171   8.722
14881TIP3    H244566   4.160   4.024   8.720
14882TIP3   OH244567   4.534   2.326   8.536
14882TIP3    H144568   4.610   2.269   8.511
14882TIP3    H244569   4.577   2.414   8.526
14883TIP3   OH244570   4.217   2.158   8.321
14883TIP3    H144571   4.144   2.225   8.332
14883TIP3    H244572   4.166   2.076   8.340
14884TIP3   OH244573   2.695   3.502   8.296
14884TIP3    H144574   2.617   3.464   8.252
14884TIP3    H244575   2.687   3.594   8.264
14885TIP3   OH244576   3.086   2.132   8.275
14885TIP3    H144577   3.125   2.043   8.287
14885TIP3    H244578   3.155   2.185   8.319
14886TIP3   OH244579   3.622   2.244   8.410
14886TIP3    H144580   3.693   2.208   8.467
14886TIP3    H244581   3.623   2.337   8.441
14887TIP3   OH244582   3.462   3.680   7.901
14887TIP3    H144583   3.549   3.704   7.863
14887TIP3    H244584   3.439   3.606   7.840
14888TIP3   OH244585   4.181   3.805   7.995
14888TIP3    H144586   4.174   3.707   7.984
14888TIP3    H244587   4.134   3.835   7.915
14889TIP3   OH244588   2.764   3.514   7.955
14889TIP3    H144589   2.781   3.551   8.042
14889TIP3    H244590   2.850   3.469   7.935
14890TIP3   OH244591   5.677   3.315   7.945
14890TIP3    H144592   5.655   3.408   7.926
14890TIP3    H244593   5.597   3.270   7.915
14891TIP3   OH244594   5.671   3.313   8.328
14891TIP3    H144595   5.709   3.302   8.417
14891TIP3    H244596   5.630   3.226   8.313
14892TIP3   OH244597   4.960   3.184   8.652
14892TIP3    H144598   4.980   3.117   8.719
14892TIP3    H244599   5.031   3.248   8.670
14893TIP3   OH244600   5.921   3.615   7.999
14893TIP3    H144601   5.904   3.551   8.068
14893TIP3    H244602   5.851   3.682   8.017
14894TIP3   OH244603   4.948   3.625   8.414
14894TIP3    H144604   4.939   3.527   8.415
14894TIP3    H244605   5.045   3.633   8.401
14895TIP3   OH244606   4.648   2.821   8.194
14895TIP3    H144607   4.605   2.905   8.216
14895TIP3    H244608   4.575   2.775   8.150
14896TIP3   OH244609   4.706   3.110   8.362
14896TIP3    H144610   4.752   3.035   8.405
14896TIP3    H244611   4.776   3.147   8.305
14897TIP3   OH244612   5.563   4.089   8.021
14897TIP3    H144613   5.617   4.006   8.009
14897TIP3    H244614   5.530   4.070   8.110
14898TIP3   OH244615   5.463   3.548   8.373
14898TIP3    H144616   5.508   3.475   8.327
14898TIP3    H244617   5.545   3.594   8.403
14899TIP3   OH244618   6.485   2.865   8.374
14899TIP3    H144619   6.513   2.949   8.416
14899TIP3    H244620   6.507   2.883   8.281
14900TIP3   OH244621   5.884   3.044   8.405
14900TIP3    H144622   5.927   2.959   8.424
14900TIP3    H244623   5.850   3.028   8.315
14901TIP3   OH244624   5.224   2.708   8.368
14901TIP3    H144625   5.204   2.779   8.304
14901TIP3    H244626   5.175   2.634   8.327
14902TIP3   OH244627   5.918   2.798   7.990
14902TIP3    H144628   5.988   2.784   8.058
14902TIP3    H244629   5.972   2.833   7.917
14903TIP3   OH244630   4.848   2.910   8.480
14903TIP3    H144631   4.935   2.906   8.524
14903TIP3    H244632   4.866   2.853   8.402
14904TIP3   OH244633   5.294   3.106   8.272
14904TIP3    H144634   5.389   3.083   8.285
14904TIP3    H244635   5.257   3.021   8.241
14905TIP3   OH244636   6.559   3.078   8.538
14905TIP3    H144637   6.471   3.121   8.526
14905TIP3    H244638   6.581   3.108   8.628
14906TIP3   OH244639   5.241   2.693   8.788
14906TIP3    H144640   5.181   2.748   8.735
14906TIP3    H244641   5.179   2.653   8.853
14907TIP3   OH244642   5.589   3.542   7.799
14907TIP3    H144643   5.509   3.534   7.746
14907TIP3    H244644   5.570   3.626   7.846
14908TIP3   OH244645   5.330   3.466   8.596
14908TIP3    H144646   5.272   3.539   8.627
14908TIP3    H244647   5.376   3.508   8.520
14909TIP3   OH244648   6.119   2.806   8.171
14909TIP3    H144649   6.104   2.761   8.256
14909TIP3    H244650   6.171   2.884   8.199
14910TIP3   OH244651   5.093   2.825   8.582
14910TIP3    H144652   5.155   2.895   8.613
14910TIP3    H244653   5.147   2.782   8.512
14911TIP3   OH244654   5.152   3.663   8.699
14911TIP3    H144655   5.148   3.749   8.653
14911TIP3    H244656   5.062   3.664   8.737
14912TIP3   OH244657   4.542   3.352   7.934
14912TIP3    H144658   4.501   3.380   7.850
14912TIP3    H244659   4.574   3.437   7.969
14913TIP3   OH244660   5.958   3.888   8.208
14913TIP3    H144661   5.876   3.841   8.183
14913TIP3    H244662   5.953   3.964   8.147
14914TIP3   OH244663   6.276   2.763   8.538
14914TIP3    H144664   6.190   2.789   8.503
14914TIP3    H244665   6.338   2.797   8.470
14915TIP3   OH244666   5.578   2.401   8.516
14915TIP3    H144667   5.555   2.309   8.542
14915TIP3    H244668   5.505   2.448   8.563
14916TIP3   OH244669   5.843   3.676   7.718
14916TIP3    H144670   5.767   3.620   7.740
14916TIP3    H244671   5.882   3.685   7.807
14917TIP3   OH244672   6.212   3.777   8.516
14917TIP3    H144673   6.196   3.699   8.457
14917TIP3    H244674   6.190   3.851   8.457
14918TIP3   OH244675   5.502   3.169   7.779
14918TIP3    H144676   5.423   3.221   7.755
14918TIP3    H244677   5.552   3.167   7.695
14919TIP3   OH244678   5.459   2.965   7.485
14919TIP3    H144679   5.526   3.013   7.536
14919TIP3    H244680   5.516   2.900   7.439
14920TIP3   OH244681   6.405   3.418   8.367
14920TIP3    H144682   6.320   3.468   8.369
14920TIP3    H244683   6.435   3.442   8.276
14921TIP3   OH244684   5.850   3.253   7.744
14921TIP3    H144685   5.798   3.278   7.823
14921TIP3    H244686   5.936   3.233   7.786
14922TIP3   OH244687   6.084   3.289   8.667
14922TIP3    H144688   6.080   3.372   8.718
14922TIP3    H244689   5.999   3.295   8.618
14923TIP3   OH244690   5.085   3.251   8.163
14923TIP3    H144691   5.045   3.191   8.096
14923TIP3    H244692   5.161   3.197   8.196
14924TIP3   OH244693   5.212   3.663   8.314
14924TIP3    H144694   5.199   3.625   8.226
14924TIP3    H244695   5.302   3.630   8.335
14925TIP3   OH244696   5.224   3.225   8.515
14925TIP3    H144697   5.257   3.201   8.427
14925TIP3    H244698   5.267   3.311   8.533
14926TIP3   OH244699   5.365   3.792   8.841
14926TIP3    H144700   5.300   3.843   8.893
14926TIP3    H244701   5.307   3.725   8.799
14927TIP3   OH244702   5.685   3.118   7.573
14927TIP3    H144703   5.747   3.175   7.624
14927TIP3    H244704   5.713   3.140   7.481
14928TIP3   OH244705   5.042   3.377   8.848
14928TIP3    H144706   5.085   3.453   8.805
14928TIP3    H244707   4.947   3.401   8.841
14929TIP3   OH244708   5.454   3.788   7.837
14929TIP3    H144709   5.521   3.801   7.908
14929TIP3    H244710   5.406   3.871   7.840
14930TIP3   OH244711   5.149   3.957   8.914
14930TIP3    H144712   5.137   3.963   8.817
14930TIP3    H244713   5.074   3.903   8.940
14931TIP3   OH244714   6.205   2.350   7.624
14931TIP3    H144715   6.124   2.372   7.674
14931TIP3    H244716   6.220   2.433   7.574
14932TIP3   OH244717   4.952   3.095   7.963
14932TIP3    H144718   4.878   3.137   7.913
14932TIP3    H244719   4.917   3.007   7.981
14933TIP3   OH244720   6.014   3.718   7.179
14933TIP3    H144721   6.021   3.814   7.160
14933TIP3    H244722   6.106   3.689   7.163
14934TIP3   OH244723   4.777   3.445   8.848
14934TIP3    H144724   4.696   3.457   8.794
14934TIP3    H244725   4.751   3.369   8.902
14935TIP3   OH244726   4.582   3.678   8.498
14935TIP3    H144727   4.677   3.665   8.495
14935TIP3    H244728   4.574   3.747   8.566
14936TIP3   OH244729   6.446   4.129   8.564
14936TIP3    H144730   6.448   4.033   8.581
14936TIP3    H244731   6.365   4.153   8.613
14937TIP3   OH244732   5.556   3.913   8.693
14937TIP3    H144733   5.553   4.004   8.728
14937TIP3    H244734   5.488   3.870   8.749
14938TIP3   OH244735   5.315   4.041   7.649
14938TIP3    H144736   5.261   4.034   7.569
14938TIP3    H244737   5.287   4.128   7.685
14939TIP3   OH244738   4.755   3.884   8.040
14939TIP3    H144739   4.801   3.875   8.126
14939TIP3    H244740   4.703   3.801   8.038
14940TIP3   OH244741   5.553   3.894   7.303
14940TIP3    H144742   5.645   3.917   7.281
14940TIP3    H244743   5.551   3.925   7.397
14941TIP3   OH244744   5.564   3.977   7.558
14941TIP3    H144745   5.481   3.989   7.610
14941TIP3    H244746   5.630   3.970   7.630
14942TIP3   OH244747   6.331   3.253   8.848
14942TIP3    H144748   6.254   3.262   8.790
14942TIP3    H244749   6.354   3.159   8.832
14943TIP3   OH244750   4.912   3.682   8.835
14943TIP3    H144751   4.938   3.662   8.928
14943TIP3    H244752   4.849   3.608   8.822
14944TIP3   OH244753   5.357   2.496   8.635
14944TIP3    H144754   5.269   2.457   8.619
14944TIP3    H244755   5.332   2.571   8.693
14945TIP3   OH244756   5.883   2.613   8.841
14945TIP3    H144757   5.942   2.587   8.913
14945TIP3    H244758   5.794   2.591   8.877
14946TIP3   OH244759   6.098   3.028   8.766
14946TIP3    H144760   6.062   3.028   8.857
14946TIP3    H244761   6.078   3.118   8.733
14947TIP3   OH244762   5.763   3.160   7.317
14947TIP3    H144763   5.732   3.135   7.228
14947TIP3    H244764   5.851   3.198   7.297
14948TIP3   OH244765   5.477   2.532   7.623
14948TIP3    H144766   5.443   2.529   7.715
14948TIP3    H244767   5.438   2.450   7.588
14949TIP3   OH244768   5.268   3.011   8.676
14949TIP3    H144769   5.279   3.060   8.761
14949TIP3    H244770   5.249   3.087   8.616
14950TIP3   OH244771   5.147   2.889   8.181
14950TIP3    H144772   5.056   2.861   8.202
14950TIP3    H244773   5.159   2.845   8.093
14951TIP3   OH244774   5.638   2.968   7.913
14951TIP3    H144775   5.590   3.042   7.870
14951TIP3    H244776   5.695   2.936   7.841
14952TIP3   OH244777   5.839   3.253   8.950
14952TIP3    H144778   5.805   3.223   9.037
14952TIP3    H244779   5.930   3.278   8.975
14953TIP3   OH244780   5.796   2.996   8.150
14953TIP3    H144781   5.732   3.027   8.083
14953TIP3    H244782   5.829   2.917   8.103
14954TIP3   OH244783   5.134   2.507   7.587
14954TIP3    H144784   5.125   2.506   7.684
14954TIP3    H244785   5.057   2.561   7.562
14955TIP3   OH244786   4.674   2.542   8.456
14955TIP3    H144787   4.753   2.583   8.497
14955TIP3    H244788   4.708   2.516   8.369
14956TIP3   OH244789   4.639   2.529   7.977
14956TIP3    H144790   4.686   2.566   7.899
14956TIP3    H244791   4.580   2.604   7.996
14957TIP3   OH244792   5.804   3.243   8.567
14957TIP3    H144793   5.839   3.173   8.508
14957TIP3    H244794   5.772   3.188   8.641
14958TIP3   OH244795   5.482   2.706   8.243
14958TIP3    H144796   5.402   2.705   8.300
14958TIP3    H244797   5.553   2.699   8.309
14959TIP3   OH244798   4.911   2.767   8.250
14959TIP3    H144799   4.816   2.772   8.221
14959TIP3    H244800   4.935   2.675   8.228
14960TIP3   OH244801   5.173   2.757   7.943
14960TIP3    H144802   5.268   2.772   7.924
14960TIP3    H244803   5.129   2.780   7.859
14961TIP3   OH244804   5.968   2.783   8.449
14961TIP3    H144805   5.933   2.799   8.539
14961TIP3    H244806   5.901   2.722   8.414
14962TIP3   OH244807   5.026   2.796   7.716
14962TIP3    H144808   4.956   2.750   7.667
14962TIP3    H244809   5.079   2.834   7.642
14963TIP3   OH244810   6.143   4.474   8.670
14963TIP3    H144811   6.140   4.496   8.575
14963TIP3    H244812   6.225   4.519   8.698
14964TIP3   OH244813   5.556   3.040   8.340
14964TIP3    H144814   5.632   2.997   8.299
14964TIP3    H244815   5.555   3.000   8.430
14965TIP3   OH244816   5.075   2.525   8.223
14965TIP3    H144817   5.042   2.447   8.273
14965TIP3    H244818   5.129   2.484   8.155
14966TIP3   OH244819   5.535   2.953   8.605
14966TIP3    H144820   5.445   2.977   8.634
14966TIP3    H244821   5.592   3.002   8.667
14967TIP3   OH244822   5.273   3.320   7.723
14967TIP3    H144823   5.201   3.255   7.710
14967TIP3    H244824   5.251   3.354   7.814
14968TIP3   OH244825   6.170   3.559   8.352
14968TIP3    H144826   6.188   3.611   8.271
14968TIP3    H244827   6.085   3.515   8.328
14969TIP3   OH244828   5.728   2.635   7.590
14969TIP3    H144829   5.632   2.615   7.602
14969TIP3    H244830   5.735   2.729   7.618
14970TIP3   OH244831   5.668   3.643   8.732
14970TIP3    H144832   5.700   3.635   8.823
14970TIP3    H244833   5.636   3.735   8.728
14971TIP3   OH244834   5.796   2.886   7.694
14971TIP3    H144835   5.893   2.890   7.711
14971TIP3    H244836   5.780   2.968   7.643
14972TIP3   OH244837   4.969   3.348   8.396
14972TIP3    H144838   5.009   3.319   8.311
14972TIP3    H244839   5.005   3.283   8.458
14973TIP3   OH244840   5.405   3.490   7.565
14973TIP3    H144841   5.342   3.565   7.578
14973TIP3    H244842   5.361   3.421   7.620
14974TIP3   OH244843   5.565   3.385   9.009
14974TIP3    H144844   5.541   3.361   8.917
14974TIP3    H244845   5.658   3.362   9.009
14975TIP3   OH244846   5.841   3.896   8.630
14975TIP3    H144847   5.745   3.899   8.617
14975TIP3    H244848   5.853   3.956   8.707
14976TIP3   OH244849   6.237   2.978   7.528
14976TIP3    H144850   6.175   2.935   7.465
14976TIP3    H244851   6.234   3.068   7.489
14977TIP3   OH244852   6.461   3.837   8.605
14977TIP3    H144853   6.363   3.831   8.596
14977TIP3    H244854   6.488   3.806   8.516
14978TIP3   OH244855   5.904   3.794   7.437
14978TIP3    H144856   5.903   3.737   7.516
14978TIP3    H244857   5.947   3.739   7.369
14979TIP3   OH244858   5.940   3.419   8.275
14979TIP3    H144859   5.845   3.401   8.288
14979TIP3    H244860   5.968   3.340   8.226
14980TIP3   OH244861   5.067   3.652   8.022
14980TIP3    H144862   5.059   3.735   7.971
14980TIP3    H244863   4.975   3.635   8.044
14981TIP3   OH244864   4.633   2.954   7.735
14981TIP3    H144865   4.676   3.039   7.757
14981TIP3    H244866   4.555   2.957   7.795
14982TIP3   OH244867   5.194   3.414   7.961
14982TIP3    H144868   5.161   3.503   7.985
14982TIP3    H244869   5.166   3.362   8.038
14983TIP3   OH244870   5.342   3.992   8.492
14983TIP3    H144871   5.385   4.063   8.440
14983TIP3    H244872   5.419   3.951   8.536
14984TIP3   OH244873   4.982   3.892   7.878
14984TIP3    H144874   4.897   3.900   7.926
14984TIP3    H244875   5.015   3.984   7.882
14985TIP3   OH244876   5.710   3.605   8.463
14985TIP3    H144877   5.711   3.612   8.561
14985TIP3    H244878   5.804   3.597   8.442
14986TIP3   OH244879   5.974   4.161   8.505
14986TIP3    H144880   5.892   4.108   8.496
14986TIP3    H244881   5.959   4.227   8.434
14987TIP3   OH244882   6.037   3.995   7.155
14987TIP3    H144883   6.075   4.069   7.105
14987TIP3    H244884   5.957   4.039   7.189
14988TIP3   OH244885   5.852   3.434   7.523
14988TIP3    H144886   5.840   3.387   7.608
14988TIP3    H244887   5.949   3.447   7.525
14989TIP3   OH244888   4.779   3.855   8.640
14989TIP3    H144889   4.834   3.793   8.691
14989TIP3    H244890   4.791   3.937   8.689
14990TIP3   OH244891   5.069   3.497   7.342
14990TIP3    H144892   5.065   3.404   7.314
14990TIP3    H244893   5.042   3.490   7.436
14991TIP3   OH244894   5.008   3.507   7.608
14991TIP3    H144895   5.069   3.476   7.677
14991TIP3    H244896   5.009   3.605   7.621
14992TIP3   OH244897   4.739   3.198   7.816
14992TIP3    H144898   4.672   3.243   7.872
14992TIP3    H244899   4.751   3.267   7.747
14993TIP3   OH244900   5.892   2.850   8.708
14993TIP3    H144901   5.979   2.887   8.733
14993TIP3    H244902   5.888   2.766   8.759
14994TIP3   OH244903   5.778   2.583   7.875
14994TIP3    H144904   5.766   2.607   7.782
14994TIP3    H244905   5.818   2.665   7.912
14995TIP3   OH244906   5.274   3.719   7.548
14995TIP3    H144907   5.188   3.729   7.594
14995TIP3    H244908   5.284   3.810   7.515
14996TIP3   OH244909   5.455   2.770   7.975
14996TIP3    H144910   5.521   2.841   7.958
14996TIP3    H244911   5.465   2.759   8.072
14997TIP3   OH244912   5.728   3.075   8.766
14997TIP3    H144913   5.769   3.128   8.838
14997TIP3    H244914   5.785   2.995   8.762
14998TIP3   OH244915   5.603   2.487   8.072
14998TIP3    H144916   5.599   2.562   8.133
14998TIP3    H244917   5.667   2.521   8.005
14999TIP3   OH244918   5.021   3.778   7.631
14999TIP3    H144919   4.990   3.848   7.570
14999TIP3    H244920   5.005   3.821   7.719
15000TIP3   OH244921   5.118   2.494   7.862
15000TIP3    H144922   5.116   2.583   7.902
15000TIP3    H244923   5.215   2.476   7.871
15001TIP3   OH244924   6.366   2.992   8.758
15001TIP3    H144925   6.268   2.987   8.762
15001TIP3    H244926   6.384   2.935   8.682
15002TIP3   OH244927   6.023   3.176   8.146
15002TIP3    H144928   5.946   3.119   8.162
15002TIP3    H244929   6.093   3.130   8.197
15003TIP3   OH244930   4.738   3.402   7.618
15003TIP3    H144931   4.805   3.471   7.626
15003TIP3    H244932   4.782   3.344   7.552
15004TIP3   OH244933   4.676   2.682   7.753
15004TIP3    H144934   4.680   2.780   7.752
15004TIP3    H244935   4.596   2.666   7.702
15005TIP3   OH244936   5.992   4.150   8.099
15005TIP3    H144937   5.949   4.192   8.021
15005TIP3    H244938   6.086   4.161   8.075
15006TIP3   OH244939   5.094   2.410   8.605
15006TIP3    H144940   5.058   2.368   8.525
15006TIP3    H244941   5.030   2.387   8.674
15007TIP3   OH244942   4.602   3.622   8.001
15007TIP3    H144943   4.542   3.652   8.071
15007TIP3    H244944   4.564   3.667   7.921
15008TIP3   OH244945   5.257   4.098   9.129
15008TIP3    H144946   5.339   4.136   9.097
15008TIP3    H244947   5.221   4.055   9.049
15009TIP3   OH244948   5.242   3.682   7.241
15009TIP3    H144949   5.171   3.641   7.295
15009TIP3    H244950   5.289   3.601   7.216
15010TIP3   OH244951   5.876   4.043   8.866
15010TIP3    H144952   5.879   3.972   8.934
15010TIP3    H244953   5.958   4.093   8.886
15011TIP3   OH244954   4.876   3.218   7.474
15011TIP3    H144955   4.931   3.187   7.548
15011TIP3    H244956   4.943   3.221   7.402
15012TIP3   OH244957   5.553   3.674   9.053
15012TIP3    H144958   5.462   3.685   9.018
15012TIP3    H244959   5.565   3.578   9.037
15013TIP3   OH244960   5.397   3.439   7.283
15013TIP3    H144961   5.345   3.415   7.362
15013TIP3    H244962   5.413   3.348   7.249
15014TIP3   OH244963   5.996   3.671   8.657
15014TIP3    H144964   6.072   3.713   8.612
15014TIP3    H244965   5.929   3.742   8.646
15015TIP3   OH244966   5.077   3.130   7.688
15015TIP3    H144967   5.051   3.094   7.775
15015TIP3    H244968   5.115   3.052   7.644
15016TIP3   OH244969   5.310   3.187   8.871
15016TIP3    H144970   5.301   3.253   8.940
15016TIP3    H244971   5.391   3.219   8.826
15017TIP3   OH244972   5.183   2.924   7.531
15017TIP3    H144973   5.158   2.931   7.436
15017TIP3    H244974   5.281   2.925   7.525
15018TIP3   OH244975   5.872   3.594   9.021
15018TIP3    H144976   5.949   3.550   8.980
15018TIP3    H244977   5.865   3.547   9.106
15019TIP3   OH244978   5.999   3.246   7.199
15019TIP3    H144979   5.980   3.201   7.115
15019TIP3    H244980   5.973   3.338   7.174
15020TIP3   OH244981   5.504   2.769   8.826
15020TIP3    H144982   5.523   2.815   8.743
15020TIP3    H244983   5.408   2.754   8.821
15021TIP3   OH244984   5.511   3.317   8.745
15021TIP3    H144985   5.593   3.316   8.693
15021TIP3    H244986   5.452   3.372   8.688
15022TIP3   OH244987   6.090   3.288   9.057
15022TIP3    H144988   6.124   3.205   9.095
15022TIP3    H244989   6.166   3.322   9.008
15023TIP3   OH244990   6.122   3.517   8.836
15023TIP3    H144991   6.063   3.573   8.780
15023TIP3    H244992   6.209   3.543   8.799
15024TIP3   OH244993   5.629   2.531   8.887
15024TIP3    H144994   5.584   2.619   8.877
15024TIP3    H244995   5.554   2.476   8.913
15025TIP3   OH244996   5.998   2.962   9.012
15025TIP3    H144997   5.906   2.985   9.035
15025TIP3    H244998   5.998   2.872   9.050
15026TIP3   OH244999   4.992   3.979   7.441
15026TIP3    H145000   5.086   3.973   7.415
15026TIP3    H245001   4.958   4.031   7.366
15027TIP3   OH245002   4.468   3.365   7.651
15027TIP3    H145003   4.563   3.384   7.638
15027TIP3    H245004   4.461   3.276   7.611
15028TIP3   OH245005   4.386   3.975   8.073
15028TIP3    H145006   4.320   3.915   8.033
15028TIP3    H245007   4.429   3.914   8.137
15029TIP3   OH245008   4.520   3.816   8.255
15029TIP3    H145009   4.510   3.750   8.326
15029TIP3    H245010   4.573   3.883   8.303
15030TIP3   OH245011   6.251   4.227   8.058
15030TIP3    H145012   6.275   4.252   8.149
15030TIP3    H245013   6.320   4.268   8.005
15031TIP3   OH245014   6.279   4.245   8.339
15031TIP3    H145015   6.228   4.161   8.335
15031TIP3    H245016   6.349   4.217   8.401
15032TIP3   OH245017   6.318   3.928   8.911
15032TIP3    H145018   6.249   3.940   8.980
15032TIP3    H245019   6.363   4.016   8.913
15033TIP3   OH245020   6.140   3.437   7.528
15033TIP3    H145021   6.208   3.502   7.501
15033TIP3    H245022   6.181   3.400   7.609
15034TIP3   OH245023   6.267   3.303   7.734
15034TIP3    H145024   6.199   3.263   7.792
15034TIP3    H245025   6.330   3.340   7.799
15035TIP3   OH245026   6.329   3.701   8.170
15035TIP3    H145027   6.376   3.630   8.123
15035TIP3    H245028   6.310   3.765   8.099
15036TIP3   OH245029   6.149   4.001   8.363
15036TIP3    H145030   6.081   4.042   8.420
15036TIP3    H245031   6.090   3.954   8.299
15037TIP3   OH245032   6.203   3.212   7.380
15037TIP3    H145033   6.130   3.214   7.314
15037TIP3    H245034   6.176   3.288   7.436
15038TIP3   OH245035   6.072   2.884   7.332
15038TIP3    H145036   6.030   2.915   7.251
15038TIP3    H245037   6.051   2.788   7.328
15039TIP3   OH245038   6.078   3.164   7.878
15039TIP3    H145039   6.085   3.067   7.873
15039TIP3    H245040   6.062   3.177   7.975
15040TIP3   OH245041   4.704   3.260   8.590
15040TIP3    H145042   4.695   3.218   8.501
15040TIP3    H245043   4.799   3.242   8.607
15041TIP3   OH245044   6.365   3.591   8.735
15041TIP3    H145045   6.437   3.525   8.725
15041TIP3    H245046   6.389   3.658   8.669
15042TIP3   OH245047   6.544   3.393   8.750
15042TIP3    H145048   6.471   3.341   8.789
15042TIP3    H245049   6.617   3.328   8.763
15043TIP3   OH245050   6.018   2.618   7.315
15043TIP3    H145051   6.091   2.586   7.372
15043TIP3    H245052   5.944   2.559   7.338
15044TIP3   OH245053   6.075   2.877   7.770
15044TIP3    H145054   6.116   2.789   7.785
15044TIP3    H245055   6.134   2.912   7.701
15045TIP3   OH245056   6.235   3.045   8.271
15045TIP3    H145057   6.320   3.070   8.229
15045TIP3    H245058   6.249   3.085   8.360
15046TIP3   OH245059   6.307   3.196   8.499
15046TIP3    H145060   6.230   3.230   8.547
15046TIP3    H245061   6.340   3.278   8.455
15047TIP3   OH245062   6.184   2.628   7.810
15047TIP3    H145063   6.232   2.612   7.894
15047TIP3    H245064   6.123   2.552   7.810
15048TIP3   OH245065   4.910   2.612   8.581
15048TIP3    H145066   4.990   2.557   8.573
15048TIP3    H245067   4.951   2.701   8.589
15049TIP3   OH245068   4.725   2.860   8.747
15049TIP3    H145069   4.755   2.879   8.656
15049TIP3    H245070   4.686   2.947   8.772
15050TIP3   OH245071   6.629   2.922   8.865
15050TIP3    H145072   6.544   2.955   8.899
15050TIP3    H245073   6.599   2.842   8.818
15051TIP3   OH245074   6.260   2.559   7.446
15051TIP3    H145075   6.301   2.489   7.391
15051TIP3    H245076   6.328   2.629   7.445
15052TIP3   OH245077   4.670   2.386   8.203
15052TIP3    H145078   4.577   2.382   8.229
15052TIP3    H245079   4.666   2.446   8.125
15053TIP3   OH245080   5.794   4.116   7.688
15053TIP3    H145081   5.865   4.089   7.626
15053TIP3    H245082   5.845   4.135   7.768
15054TIP3   OH245083   5.119   3.937   8.640
15054TIP3    H145084   5.068   4.011   8.601
15054TIP3    H245085   5.204   3.953   8.594
15055TIP3   OH245086   5.547   4.178   8.787
15055TIP3    H145087   5.593   4.177   8.874
15055TIP3    H245088   5.611   4.230   8.733
15056TIP3   OH245089   5.721   4.335   8.647
15056TIP3    H145090   5.780   4.282   8.590
15056TIP3    H245091   5.784   4.382   8.705
15057TIP3   OH245092   6.525   2.687   8.738
15057TIP3    H145093   6.435   2.671   8.705
15057TIP3    H245094   6.563   2.597   8.730
15058TIP3   OH245095   4.786   4.193   8.673
15058TIP3    H145096   4.693   4.217   8.651
15058TIP3    H245097   4.801   4.253   8.748
15059TIP3   OH245098   5.020   4.167   8.528
15059TIP3    H145099   4.933   4.179   8.573
15059TIP3    H245100   5.001   4.198   8.438
15060TIP3   OH245101   5.444   4.189   8.320
15060TIP3    H145102   5.370   4.217   8.263
15060TIP3    H245103   5.465   4.273   8.367
15061TIP3   OH245104   5.719   4.158   8.397
15061TIP3    H145105   5.631   4.138   8.361
15061TIP3    H245106   5.759   4.211   8.327
15062TIP3   OH245107   5.937   4.334   8.291
15062TIP3    H145108   5.916   4.413   8.238
15062TIP3    H245109   5.957   4.267   8.221
15063TIP3   OH245110   4.694   3.980   8.407
15063TIP3    H145111   4.718   3.948   8.497
15063TIP3    H245112   4.767   3.938   8.357
15064TIP3   OH245113   4.893   3.853   8.274
15064TIP3    H145114   4.907   3.770   8.325
15064TIP3    H245115   4.985   3.888   8.272
15065TIP3   OH245116   5.161   3.945   8.279
15065TIP3    H145117   5.191   3.853   8.268
15065TIP3    H245118   5.212   3.969   8.359
15066TIP3   OH245119   5.730   2.600   8.360
15066TIP3    H145120   5.689   2.528   8.413
15066TIP3    H245121   5.806   2.554   8.319
15067TIP3   OH245122   6.251   2.485   8.262
15067TIP3    H145123   6.286   2.537   8.186
15067TIP3    H245124   6.155   2.505   8.257
15068TIP3   OH245125   6.348   2.582   8.026
15068TIP3    H145126   6.423   2.530   7.990
15068TIP3    H245127   6.383   2.674   8.013
15069TIP3   OH245128   4.979   2.310   8.372
15069TIP3    H145129   4.885   2.282   8.369
15069TIP3    H245130   5.026   2.225   8.359
15070TIP3   OH245131   4.775   2.183   8.030
15070TIP3    H145132   4.803   2.238   7.954
15070TIP3    H245133   4.744   2.250   8.093
15071TIP3   OH245134   5.424   2.345   8.261
15071TIP3    H145135   5.482   2.392   8.198
15071TIP3    H245136   5.456   2.378   8.346
15072TIP3   OH245137   5.967   2.491   8.240
15072TIP3    H145138   5.971   2.448   8.154
15072TIP3    H245139   5.957   2.413   8.300
15073TIP3   OH245140   6.001   2.416   7.805
15073TIP3    H145141   5.916   2.459   7.825
15073TIP3    H245142   5.988   2.329   7.850
15074TIP3   OH245143   4.483   3.759   7.799
15074TIP3    H145144   4.397   3.726   7.768
15074TIP3    H245145   4.475   3.852   7.771
15075TIP3   OH245146   4.888   2.337   7.788
15075TIP3    H145147   4.936   2.275   7.730
15075TIP3    H245148   4.962   2.392   7.823
15076TIP3   OH245149   5.395   2.519   7.887
15076TIP3    H145150   5.455   2.472   7.947
15076TIP3    H245151   5.416   2.612   7.912
15077TIP3   OH245152   5.260   3.935   7.375
15077TIP3    H145153   5.345   3.967   7.342
15077TIP3    H245154   5.246   3.857   7.318
15078TIP3   OH245155   5.980   4.056   7.478
15078TIP3    H145156   5.961   3.960   7.469
15078TIP3    H245157   5.934   4.091   7.399
15079TIP3   OH245158   4.559   3.776   7.440
15079TIP3    H145159   4.560   3.796   7.535
15079TIP3    H245160   4.646   3.733   7.427
15080TIP3   OH245161   6.198   4.204   8.664
15080TIP3    H145162   6.120   4.173   8.614
15080TIP3    H245163   6.178   4.299   8.672
15081TIP3   OH245164   7.471   3.579   7.426
15081TIP3    H145165   7.438   3.669   7.405
15081TIP3    H245166   7.394   3.526   7.398
15082TIP3   OH245167   7.459   3.581   7.812
15082TIP3    H145168   7.493   3.562   7.901
15082TIP3    H245169   7.421   3.495   7.788
15083TIP3   OH245170   6.765   3.466   8.177
15083TIP3    H145171   6.794   3.398   8.240
15083TIP3    H245172   6.841   3.526   8.179
15084TIP3   OH245173   7.716   3.881   7.498
15084TIP3    H145174   7.695   3.813   7.563
15084TIP3    H245175   7.744   3.956   7.555
15085TIP3   OH245176   6.741   3.883   7.899
15085TIP3    H145177   6.732   3.785   7.900
15085TIP3    H245178   6.838   3.891   7.896
15086TIP3   OH245179   6.446   3.082   7.682
15086TIP3    H145180   6.398   3.164   7.703
15086TIP3    H245181   6.374   3.031   7.640
15087TIP3   OH245182   6.503   3.370   7.865
15087TIP3    H145183   6.552   3.292   7.898
15087TIP3    H245184   6.563   3.405   7.798
15088TIP3   OH245185   7.367   4.342   7.516
15088TIP3    H145186   7.406   4.270   7.463
15088TIP3    H245187   7.354   4.299   7.601
15089TIP3   OH245188   7.265   3.803   7.861
15089TIP3    H145189   7.306   3.725   7.820
15089TIP3    H245190   7.347   3.850   7.887
15090TIP3   OH245191   7.676   3.309   7.888
15090TIP3    H145192   7.716   3.222   7.908
15090TIP3    H245193   7.642   3.292   7.798
15091TIP3   OH245194   7.020   2.964   7.856
15091TIP3    H145195   7.000   3.035   7.792
15091TIP3    H245196   6.972   2.890   7.814
15092TIP3   OH245197   7.722   3.054   7.484
15092TIP3    H145198   7.790   3.040   7.554
15092TIP3    H245199   7.776   3.090   7.412
15093TIP3   OH245200   6.651   3.164   7.966
15093TIP3    H145201   6.733   3.145   8.015
15093TIP3    H245202   6.665   3.108   7.887
15094TIP3   OH245203   7.089   3.362   7.762
15094TIP3    H145204   7.184   3.339   7.773
15094TIP3    H245205   7.051   3.277   7.729
15095TIP3   OH245206   7.014   2.951   8.293
15095TIP3    H145207   6.955   2.986   8.223
15095TIP3    H245208   6.958   2.967   8.371
15096TIP3   OH245209   7.357   3.799   7.297
15096TIP3    H145210   7.314   3.782   7.212
15096TIP3    H245211   7.310   3.880   7.327
15097TIP3   OH245212   7.120   3.723   8.083
15097TIP3    H145213   7.061   3.792   8.121
15097TIP3    H245214   7.163   3.771   8.009
15098TIP3   OH245215   7.917   3.055   7.675
15098TIP3    H145216   7.904   3.049   7.772
15098TIP3    H245217   7.974   3.134   7.675
15099TIP3   OH245218   6.886   3.061   8.075
15099TIP3    H145219   6.948   3.134   8.099
15099TIP3    H245220   6.936   3.022   8.000
15100TIP3   OH245221   6.951   3.920   8.185
15100TIP3    H145222   6.925   4.008   8.151
15100TIP3    H245223   6.872   3.900   8.240
15101TIP3   OH245224   6.341   3.610   7.420
15101TIP3    H145225   6.301   3.638   7.336
15101TIP3    H245226   6.374   3.695   7.456
15102TIP3   OH245227   7.780   4.124   7.658
15102TIP3    H145228   7.691   4.114   7.699
15102TIP3    H245229   7.770   4.211   7.615
15103TIP3   OH245230   7.348   2.666   7.981
15103TIP3    H145231   7.355   2.581   8.028
15103TIP3    H245232   7.290   2.715   8.043
15104TIP3   OH245233   7.478   4.168   7.330
15104TIP3    H145234   7.528   4.085   7.314
15104TIP3    H245235   7.541   4.233   7.291
15105TIP3   OH245236   7.625   3.953   7.248
15105TIP3    H145237   7.582   3.873   7.214
15105TIP3    H245238   7.665   3.920   7.331
15106TIP3   OH245239   8.005   4.030   8.007
15106TIP3    H145240   7.993   3.953   7.947
15106TIP3    H245241   7.993   4.106   7.946
15107TIP3   OH245242   7.298   3.428   7.266
15107TIP3    H145243   7.219   3.480   7.245
15107TIP3    H245244   7.344   3.425   7.180
15108TIP3   OH245245   7.256   3.217   6.974
15108TIP3    H145246   7.323   3.268   7.023
15108TIP3    H245247   7.313   3.153   6.927
15109TIP3   OH245248   8.205   3.688   7.852
15109TIP3    H145249   8.117   3.732   7.857
15109TIP3    H245250   8.231   3.710   7.761
15110TIP3   OH245251   7.648   3.513   7.231
15110TIP3    H145252   7.593   3.536   7.309
15110TIP3    H245253   7.732   3.488   7.275
15111TIP3   OH245254   7.842   3.550   8.114
15111TIP3    H145255   7.861   3.612   8.185
15111TIP3    H245256   7.750   3.570   8.092
15112TIP3   OH245257   6.879   3.507   7.652
15112TIP3    H145258   6.839   3.448   7.585
15112TIP3    H245259   6.955   3.453   7.683
15113TIP3   OH245260   7.012   3.924   7.796
15113TIP3    H145261   6.990   3.885   7.710
15113TIP3    H245262   7.099   3.885   7.815
15114TIP3   OH245263   7.017   3.477   8.007
15114TIP3    H145264   7.048   3.453   7.917
15114TIP3    H245265   7.059   3.564   8.023
15115TIP3   OH245266   7.541   4.117   7.783
15115TIP3    H145267   7.527   4.196   7.838
15115TIP3    H245268   7.524   4.044   7.846
15116TIP3   OH245269   7.153   4.039   8.332
15116TIP3    H145270   7.089   4.098   8.377
15116TIP3    H245271   7.091   3.983   8.281
15117TIP3   OH245272   7.483   3.371   7.061
15117TIP3    H145273   7.543   3.431   7.111
15117TIP3    H245274   7.510   3.391   6.968
15118TIP3   OH245275   6.901   3.598   8.427
15118TIP3    H145276   6.907   3.683   8.476
15118TIP3    H245277   6.809   3.572   8.448
15119TIP3   OH245278   7.233   4.044   7.336
15119TIP3    H145279   7.315   4.096   7.342
15119TIP3    H245280   7.172   4.106   7.294
15120TIP3   OH245281   6.944   4.203   8.422
15120TIP3    H145282   6.908   4.204   8.332
15120TIP3    H245283   6.865   4.178   8.476
15121TIP3   OH245284   8.006   2.613   7.122
15121TIP3    H145285   7.920   2.627   7.168
15121TIP3    H245286   8.013   2.693   7.068
15122TIP3   OH245287   6.747   3.352   7.453
15122TIP3    H145288   6.675   3.393   7.401
15122TIP3    H245289   6.711   3.263   7.469
15123TIP3   OH245290   7.803   3.975   6.660
15123TIP3    H145291   7.812   4.071   6.644
15123TIP3    H245292   7.895   3.945   6.647
15124TIP3   OH245293   6.528   3.737   8.364
15124TIP3    H145294   6.457   3.719   8.298
15124TIP3    H245295   6.562   3.647   8.382
15125TIP3   OH245296   6.380   3.935   7.983
15125TIP3    H145297   6.475   3.925   7.988
15125TIP3    H245298   6.365   4.006   8.048
15126TIP3   OH245299   8.235   4.408   8.027
15126TIP3    H145300   8.255   4.313   8.039
15126TIP3    H245301   8.158   4.416   8.087
15127TIP3   OH245302   7.347   4.165   8.187
15127TIP3    H145303   7.343   4.257   8.221
15127TIP3    H245304   7.276   4.123   8.240
15128TIP3   OH245305   7.116   4.292   7.139
15128TIP3    H145306   7.066   4.274   7.058
15128TIP3    H245307   7.079   4.378   7.167
15129TIP3   OH245308   6.550   4.141   7.526
15129TIP3    H145309   6.597   4.133   7.612
15129TIP3    H245310   6.500   4.057   7.524
15130TIP3   OH245311   7.312   4.197   6.777
15130TIP3    H145312   7.370   4.125   6.742
15130TIP3    H245313   7.347   4.206   6.868
15131TIP3   OH245314   7.366   4.244   7.046
15131TIP3    H145315   7.277   4.254   7.087
15131TIP3    H245316   7.416   4.204   7.119
15132TIP3   OH245317   6.730   3.921   8.346
15132TIP3    H145318   6.778   3.903   8.430
15132TIP3    H245319   6.656   3.856   8.354
15133TIP3   OH245320   7.124   2.753   8.131
15133TIP3    H145321   7.036   2.723   8.099
15133TIP3    H245322   7.096   2.831   8.183
15134TIP3   OH245323   7.563   3.412   6.807
15134TIP3    H145324   7.526   3.390   6.719
15134TIP3    H245325   7.648   3.453   6.781
15135TIP3   OH245326   7.274   2.788   7.110
15135TIP3    H145327   7.239   2.785   7.201
15135TIP3    H245328   7.234   2.706   7.074
15136TIP3   OH245329   7.065   3.257   8.156
15136TIP3    H145330   7.012   3.276   8.237
15136TIP3    H245331   7.048   3.338   8.104
15137TIP3   OH245332   6.944   3.145   7.669
15137TIP3    H145333   6.852   3.117   7.689
15137TIP3    H245334   6.956   3.102   7.581
15138TIP3   OH245335   7.436   3.228   7.401
15138TIP3    H145336   7.385   3.299   7.356
15138TIP3    H245337   7.490   3.194   7.327
15139TIP3   OH245338   7.590   3.254   7.633
15139TIP3    H145339   7.526   3.277   7.562
15139TIP3    H245340   7.629   3.174   7.592
15140TIP3   OH245341   6.885   3.286   8.363
15140TIP3    H145342   6.907   3.349   8.433
15140TIP3    H245343   6.869   3.203   8.413
15141TIP3   OH245344   6.931   2.764   7.074
15141TIP3    H145345   6.921   2.763   7.171
15141TIP3    H245346   6.853   2.817   7.048
15142TIP3   OH245347   6.475   2.805   7.945
15142TIP3    H145348   6.548   2.839   8.000
15142TIP3    H245349   6.519   2.776   7.864
15143TIP3   OH245350   6.436   2.785   7.464
15143TIP3    H145351   6.483   2.822   7.386
15143TIP3    H245352   6.376   2.860   7.483
15144TIP3   OH245353   7.567   3.500   8.048
15144TIP3    H145354   7.616   3.435   7.993
15144TIP3    H245355   7.552   3.446   8.129
15145TIP3   OH245356   7.276   2.970   7.729
15145TIP3    H145357   7.196   2.964   7.785
15145TIP3    H245358   7.347   2.948   7.792
15146TIP3   OH245359   6.707   3.023   7.737
15146TIP3    H145360   6.613   3.030   7.708
15146TIP3    H245361   6.730   2.931   7.715
15147TIP3   OH245362   6.970   3.015   7.430
15147TIP3    H145363   7.064   3.029   7.408
15147TIP3    H245364   6.924   3.037   7.345
15148TIP3   OH245365   7.696   3.039   7.929
15148TIP3    H145366   7.654   3.063   8.013
15148TIP3    H245367   7.632   2.975   7.893
15149TIP3   OH245368   6.822   3.053   7.203
15149TIP3    H145369   6.752   3.006   7.155
15149TIP3    H245370   6.875   3.090   7.129
15150TIP3   OH245371   7.909   4.712   8.133
15150TIP3    H145372   7.913   4.739   8.040
15150TIP3    H245373   7.972   4.774   8.175
15151TIP3   OH245374   6.888   3.842   8.568
15151TIP3    H145375   6.965   3.878   8.616
15151TIP3    H245376   6.824   3.835   8.642
15152TIP3   OH245377   7.354   3.300   7.825
15152TIP3    H145378   7.426   3.255   7.779
15152TIP3    H245379   7.355   3.256   7.913
15153TIP3   OH245380   6.872   2.780   7.713
15153TIP3    H145381   6.836   2.704   7.763
15153TIP3    H245382   6.921   2.735   7.643
15154TIP3   OH245383   7.332   3.208   8.099
15154TIP3    H145384   7.240   3.234   8.118
15154TIP3    H245385   7.383   3.270   8.154
15155TIP3   OH245386   7.067   3.580   7.211
15155TIP3    H145387   6.995   3.514   7.199
15155TIP3    H245388   7.046   3.613   7.302
15156TIP3   OH245389   7.963   3.817   7.836
15156TIP3    H145390   7.982   3.867   7.755
15156TIP3    H245391   7.878   3.772   7.814
15157TIP3   OH245392   7.525   2.889   7.082
15157TIP3    H145393   7.429   2.869   7.090
15157TIP3    H245394   7.530   2.984   7.106
15158TIP3   OH245395   7.464   3.901   8.209
15158TIP3    H145396   7.500   3.882   8.297
15158TIP3    H245397   7.427   3.990   8.219
15159TIP3   OH245398   7.591   3.142   7.183
15159TIP3    H145399   7.688   3.150   7.198
15159TIP3    H245400   7.572   3.222   7.130
15160TIP3   OH245401   6.764   3.607   7.886
15160TIP3    H145402   6.802   3.575   7.802
15160TIP3    H245403   6.803   3.546   7.951
15161TIP3   OH245404   7.214   3.730   7.037
15161TIP3    H145405   7.164   3.815   7.040
15161TIP3    H245406   7.159   3.674   7.097
15162TIP3   OH245407   6.645   3.520   8.500
15162TIP3    H145408   6.662   3.509   8.596
15162TIP3    H245409   6.572   3.457   8.485
15163TIP3   OH245410   7.356   3.654   8.511
15163TIP3    H145411   7.292   3.587   8.482
15163TIP3    H245412   7.440   3.608   8.500
15164TIP3   OH245413   7.622   4.163   8.106
15164TIP3    H145414   7.526   4.157   8.120
15164TIP3    H245415   7.649   4.217   8.182
15165TIP3   OH245416   8.032   3.233   7.015
15165TIP3    H145417   7.971   3.190   6.951
15165TIP3    H245418   8.032   3.323   6.975
15166TIP3   OH245419   8.258   4.137   8.058
15166TIP3    H145420   8.171   4.098   8.078
15166TIP3    H245421   8.293   4.073   7.995
15167TIP3   OH245422   7.742   4.051   6.926
15167TIP3    H145423   7.710   3.983   6.987
15167TIP3    H245424   7.751   4.003   6.842
15168TIP3   OH245425   7.728   3.683   7.753
15168TIP3    H145426   7.635   3.658   7.766
15168TIP3    H245427   7.763   3.601   7.712
15169TIP3   OH245428   6.864   3.909   7.514
15169TIP3    H145429   6.857   3.990   7.459
15169TIP3    H245430   6.771   3.889   7.529
15170TIP3   OH245431   6.428   3.210   7.221
15170TIP3    H145432   6.472   3.295   7.243
15170TIP3    H245433   6.351   3.214   7.282
15171TIP3   OH245434   6.992   3.671   7.453
15171TIP3    H145435   6.960   3.761   7.475
15171TIP3    H245436   6.960   3.620   7.530
15172TIP3   OH245437   7.134   4.251   7.981
15172TIP3    H145438   7.178   4.322   7.931
15172TIP3    H245439   7.210   4.211   8.027
15173TIP3   OH245440   6.778   4.148   7.364
15173TIP3    H145441   6.694   4.156   7.413
15173TIP3    H245442   6.810   4.241   7.368
15174TIP3   OH245443   7.516   3.886   7.942
15174TIP3    H145444   7.504   3.884   8.040
15174TIP3    H245445   7.597   3.835   7.932
15175TIP3   OH245446   7.497   3.784   6.825
15175TIP3    H145447   7.551   3.757   6.904
15175TIP3    H245448   7.410   3.750   6.851
15176TIP3   OH245449   7.763   4.409   7.987
15176TIP3    H145450   7.682   4.354   7.980
15176TIP3    H245451   7.747   4.475   7.916
15177TIP3   OH245452   7.833   4.251   6.642
15177TIP3    H145453   7.869   4.327   6.592
15177TIP3    H245454   7.752   4.293   6.678
15178TIP3   OH245455   6.829   3.030   8.488
15178TIP3    H145456   6.733   3.045   8.496
15178TIP3    H245457   6.839   2.953   8.547
15179TIP3   OH245458   7.658   3.712   7.037
15179TIP3    H145459   7.646   3.646   7.109
15179TIP3    H245460   7.755   3.708   7.026
15180TIP3   OH245461   6.572   4.110   8.138
15180TIP3    H145462   6.625   4.038   8.176
15180TIP3    H245463   6.590   4.181   8.201
15181TIP3   OH245464   6.858   3.758   6.825
15181TIP3    H145465   6.870   3.665   6.799
15181TIP3    H245466   6.837   3.749   6.920
15182TIP3   OH245467   6.801   3.764   7.097
15182TIP3    H145468   6.875   3.735   7.152
15182TIP3    H245469   6.806   3.862   7.106
15183TIP3   OH245470   6.536   3.454   7.302
15183TIP3    H145471   6.470   3.500   7.358
15183TIP3    H245472   6.550   3.523   7.233
15184TIP3   OH245473   0.814   6.519   1.361
15184TIP3    H145474   0.911   6.531   1.362
15184TIP3    H245475   0.807   6.422   1.355
15185TIP3   OH245476   7.575   2.843   7.363
15185TIP3    H145477   7.560   2.863   7.268
15185TIP3    H245478   7.615   2.926   7.396
15186TIP3   OH245479   7.072   3.960   7.044
15186TIP3    H145480   6.984   3.983   7.082
15186TIP3    H245481   7.085   4.035   6.985
15187TIP3   OH245482   7.254   3.027   7.460
15187TIP3    H145483   7.318   3.099   7.445
15187TIP3    H245484   7.260   3.017   7.558
15188TIP3   OH245485   7.530   3.336   8.262
15188TIP3    H145486   7.532   3.351   8.358
15188TIP3    H245487   7.585   3.256   8.252
15189TIP3   OH245488   7.399   2.748   7.556
15189TIP3    H145489   7.393   2.822   7.618
15189TIP3    H245490   7.462   2.783   7.490
15190TIP3   OH245491   6.818   4.037   7.115
15190TIP3    H145492   6.787   4.107   7.054
15190TIP3    H245493   6.801   4.078   7.203
15191TIP3   OH245494   6.914   2.751   7.349
15191TIP3    H145495   6.911   2.840   7.390
15191TIP3    H245496   7.010   2.733   7.357
15192TIP3   OH245497   7.808   3.442   7.629
15192TIP3    H145498   7.733   3.381   7.644
15192TIP3    H245499   7.882   3.392   7.670
15193TIP3   OH245500   6.536   3.659   7.104
15193TIP3    H145501   6.609   3.724   7.114
15193TIP3    H245502   6.577   3.600   7.038
15194TIP3   OH245503   6.474   2.940   7.240
15194TIP3    H145504   6.477   3.038   7.239
15194TIP3    H245505   6.394   2.921   7.190
15195TIP3   OH245506   7.788   4.396   7.582
15195TIP3    H145507   7.746   4.443   7.506
15195TIP3    H245508   7.882   4.415   7.562
15196TIP3   OH245509   6.862   2.663   8.107
15196TIP3    H145510   6.832   2.627   8.021
15196TIP3    H245511   6.852   2.586   8.166
15197TIP3   OH245512   6.399   3.879   7.488
15197TIP3    H145513   6.340   3.909   7.559
15197TIP3    H245514   6.361   3.924   7.409
15198TIP3   OH245515   6.562   4.430   8.559
15198TIP3    H145516   6.647   4.429   8.608
15198TIP3    H245517   6.536   4.336   8.564
15199TIP3   OH245518   7.051   4.377   8.611
15199TIP3    H145519   7.142   4.346   8.604
15199TIP3    H245520   7.010   4.322   8.541
15200TIP3   OH245521   7.021   3.959   6.733
15200TIP3    H145522   6.966   3.888   6.772
15200TIP3    H245523   7.097   3.908   6.701
15201TIP3   OH245524   7.671   4.304   8.339
15201TIP3    H145525   7.665   4.226   8.399
15201TIP3    H245526   7.756   4.344   8.366
15202TIP3   OH245527   7.458   3.998   6.651
15202TIP3    H145528   7.493   3.930   6.712
15202TIP3    H245529   7.516   3.991   6.573
15203TIP3   OH245530   6.691   3.820   8.761
15203TIP3    H145531   6.706   3.724   8.766
15203TIP3    H245532   6.603   3.825   8.717
15204TIP3   OH245533   6.670   3.473   6.961
15204TIP3    H145534   6.727   3.443   7.034
15204TIP3    H245535   6.737   3.479   6.889
15205TIP3   OH245536   7.296   3.923   8.539
15205TIP3    H145537   7.255   3.943   8.453
15205TIP3    H245538   7.324   3.830   8.527
15206TIP3   OH245539   7.187   3.678   6.767
15206TIP3    H145540   7.187   3.689   6.865
15206TIP3    H245541   7.187   3.580   6.760
15207TIP3   OH245542   7.786   3.925   8.138
15207TIP3    H145543   7.865   3.965   8.097
15207TIP3    H245544   7.720   3.995   8.123
15208TIP3   OH245545   6.811   3.561   8.741
15208TIP3    H145546   6.876   3.491   8.726
15208TIP3    H245547   6.845   3.596   8.826
15209TIP3   OH245548   6.872   3.385   7.176
15209TIP3    H145549   6.846   3.346   7.261
15209TIP3    H245550   6.911   3.309   7.129
15210TIP3   OH245551   7.144   3.472   8.398
15210TIP3    H145552   7.061   3.524   8.396
15210TIP3    H245553   7.192   3.505   8.319
15211TIP3   OH245554   6.979   3.181   7.018
15211TIP3    H145555   6.954   3.188   6.923
15211TIP3    H245556   7.077   3.182   7.011
15212TIP3   OH245557   7.669   3.838   8.518
15212TIP3    H145558   7.747   3.815   8.463
15212TIP3    H245559   7.662   3.759   8.573
15213TIP3   OH245560   7.796   3.505   6.688
15213TIP3    H145561   7.776   3.461   6.602
15213TIP3    H245562   7.761   3.595   6.666
15214TIP3   OH245563   7.245   3.249   8.511
15214TIP3    H145564   7.250   3.181   8.442
15214TIP3    H245565   7.207   3.325   8.462
15215TIP3   OH245566   7.271   3.041   8.325
15215TIP3    H145567   7.289   3.073   8.235
15215TIP3    H245568   7.179   3.009   8.317
15216TIP3   OH245569   7.305   3.558   8.200
15216TIP3    H145570   7.389   3.570   8.153
15216TIP3    H245571   7.248   3.626   8.158
15217TIP3   OH245572   7.881   3.764   8.342
15217TIP3    H145573   7.856   3.823   8.267
15217TIP3    H245574   7.969   3.730   8.315
15218TIP3   OH245575   7.135   3.360   8.741
15218TIP3    H145576   7.068   3.291   8.752
15218TIP3    H245577   7.180   3.329   8.660
15219TIP3   OH245578   7.410   2.786   8.271
15219TIP3    H145579   7.347   2.850   8.307
15219TIP3    H245580   7.395   2.707   8.326
15220TIP3   OH245581   6.966   3.138   8.766
15220TIP3    H145582   7.002   3.049   8.761
15220TIP3    H245583   6.938   3.151   8.858
15221TIP3   OH245584   6.788   4.242   6.928
15221TIP3    H145585   6.883   4.230   6.907
15221TIP3    H245586   6.760   4.292   6.849
15222TIP3   OH245587   6.267   3.621   7.136
15222TIP3    H145588   6.363   3.641   7.124
15222TIP3    H245589   6.260   3.532   7.097
15223TIP3   OH245590   6.182   4.231   7.560
15223TIP3    H145591   6.117   4.169   7.521
15223TIP3    H245592   6.226   4.172   7.625
15224TIP3   OH245593   6.316   4.077   7.744
15224TIP3    H145594   6.306   4.007   7.812
15224TIP3    H245595   6.367   4.141   7.796
15225TIP3   OH245596   8.045   4.481   7.546
15225TIP3    H145597   8.072   4.506   7.637
15225TIP3    H245598   8.114   4.521   7.492
15226TIP3   OH245599   8.076   4.497   7.823
15226TIP3    H145600   8.031   4.410   7.821
15226TIP3    H245601   8.144   4.475   7.891
15227TIP3   OH245602   7.936   3.692   7.016
15227TIP3    H145603   8.002   3.758   6.987
15227TIP3    H245604   7.979   3.656   7.097
15228TIP3   OH245605   8.061   3.565   7.226
15228TIP3    H145606   7.992   3.519   7.279
15228TIP3    H245607   8.121   3.597   7.295
15229TIP3   OH245608   8.120   3.956   7.651
15229TIP3    H145609   8.166   3.891   7.595
15229TIP3    H245610   8.110   4.032   7.592
15230TIP3   OH245611   7.945   4.252   7.844
15230TIP3    H145612   7.874   4.291   7.898
15230TIP3    H245613   7.894   4.204   7.775
15231TIP3   OH245614   7.999   3.469   6.867
15231TIP3    H145615   7.927   3.469   6.800
15231TIP3    H245616   7.970   3.545   6.922
15232TIP3   OH245617   7.870   3.141   6.819
15232TIP3    H145618   7.823   3.173   6.740
15232TIP3    H245619   7.849   3.045   6.814
15233TIP3   OH245620   7.875   3.421   7.364
15233TIP3    H145621   7.882   3.324   7.356
15233TIP3    H245622   7.856   3.433   7.460
15234TIP3   OH245623   6.499   3.487   8.116
15234TIP3    H145624   6.496   3.453   8.024
15234TIP3    H245625   6.597   3.488   8.131
15235TIP3   OH245626   7.813   2.875   6.803
15235TIP3    H145627   7.885   2.842   6.859
15235TIP3    H245628   7.738   2.816   6.823
15236TIP3   OH245629   7.870   3.142   7.256
15236TIP3    H145630   7.903   3.050   7.262
15236TIP3    H245631   7.929   3.176   7.186
15237TIP3   OH245632   8.036   3.315   7.712
15237TIP3    H145633   8.113   3.369   7.680
15237TIP3    H245634   8.030   3.347   7.805
15238TIP3   OH245635   8.042   3.446   7.951
15238TIP3    H145636   7.968   3.455   8.016
15238TIP3    H245637   8.069   3.538   7.945
15239TIP3   OH245638   6.692   3.168   8.769
15239TIP3    H145639   6.788   3.167   8.751
15239TIP3    H245640   6.679   3.083   8.817
15240TIP3   OH245641   7.962   2.886   7.278
15240TIP3    H145642   8.019   2.866   7.356
15240TIP3    H245643   7.901   2.809   7.281
15241TIP3   OH245644   6.679   2.871   8.119
15241TIP3    H145645   6.740   2.795   8.126
15241TIP3    H245646   6.743   2.944   8.111
15242TIP3   OH245647   6.480   3.141   8.191
15242TIP3    H145648   6.531   3.139   8.108
15242TIP3    H245649   6.504   3.226   8.227
15243TIP3   OH245650   8.056   2.816   6.934
15243TIP3    H145651   8.098   2.745   6.882
15243TIP3    H245652   8.125   2.885   6.930
15244TIP3   OH245653   6.468   2.643   7.691
15244TIP3    H145654   6.376   2.639   7.723
15244TIP3    H245655   6.460   2.703   7.614
15245TIP3   OH245656   7.625   4.352   7.198
15245TIP3    H145657   7.679   4.342   7.117
15245TIP3    H245658   7.677   4.416   7.250
15246TIP3   OH245659   6.690   2.739   8.511
15246TIP3    H145660   6.636   2.722   8.590
15246TIP3    H245661   6.622   2.769   8.448
15247TIP3   OH245662   6.726   4.155   8.593
15247TIP3    H145663   6.634   4.133   8.570
15247TIP3    H245664   6.726   4.134   8.688
15248TIP3   OH245665   6.909   4.192   8.134
15248TIP3    H145666   6.859   4.266   8.094
15248TIP3    H245667   6.994   4.206   8.087
15249TIP3   OH245668   7.345   4.430   8.272
15249TIP3    H145669   7.391   4.430   8.359
15249TIP3    H245670   7.410   4.479   8.217
15250TIP3   OH245671   7.518   4.577   8.121
15250TIP3    H145672   7.588   4.525   8.079
15250TIP3    H245673   7.570   4.632   8.183
15251TIP3   OH245674   6.581   4.448   8.154
15251TIP3    H145675   6.490   4.479   8.134
15251TIP3    H245676   6.592   4.484   8.243
15252TIP3   OH245677   6.818   4.426   8.016
15252TIP3    H145678   6.730   4.436   8.060
15252TIP3    H245679   6.798   4.454   7.925
15253TIP3   OH245680   7.242   4.449   7.812
15253TIP3    H145681   7.171   4.467   7.748
15253TIP3    H245682   7.253   4.537   7.854
15254TIP3   OH245683   7.511   4.387   7.864
15254TIP3    H145684   7.416   4.405   7.844
15254TIP3    H245685   7.555   4.461   7.819
15255TIP3   OH245686   7.716   4.579   7.776
15255TIP3    H145687   7.700   4.662   7.726
15255TIP3    H245688   7.742   4.517   7.703
15256TIP3   OH245689   6.495   4.239   7.899
15256TIP3    H145690   6.520   4.207   7.989
15256TIP3    H245691   6.565   4.194   7.848
15257TIP3   OH245692   6.689   4.111   7.759
15257TIP3    H145693   6.702   4.026   7.809
15257TIP3    H245694   6.781   4.144   7.757
15258TIP3   OH245695   6.958   4.201   7.765
15258TIP3    H145696   6.985   4.108   7.756
15258TIP3    H245697   7.006   4.224   7.847
15259TIP3   OH245698   7.505   2.852   7.847
15259TIP3    H145699   7.458   2.784   7.900
15259TIP3    H245700   7.577   2.798   7.807
15260TIP3   OH245701   7.998   2.739   7.686
15260TIP3    H145702   8.020   2.823   7.642
15260TIP3    H245703   7.940   2.769   7.758
15261TIP3   OH245704   8.147   2.871   7.479
15261TIP3    H145705   8.235   2.857   7.440
15261TIP3    H245706   8.144   2.969   7.478
15262TIP3   OH245707   6.775   2.567   7.861
15262TIP3    H145708   6.682   2.534   7.866
15262TIP3    H245709   6.823   2.482   7.856
15263TIP3   OH245710   6.564   2.439   7.514
15263TIP3    H145711   6.595   2.496   7.441
15263TIP3    H245712   6.538   2.506   7.581
15264TIP3   OH245713   7.218   2.602   7.746
15264TIP3    H145714   7.278   2.642   7.680
15264TIP3    H245715   7.259   2.631   7.830
15265TIP3   OH245716   7.708   2.704   7.733
15265TIP3    H145717   7.728   2.725   7.641
15265TIP3    H245718   7.734   2.611   7.737
15266TIP3   OH245719   7.790   2.670   7.291
15266TIP3    H145720   7.704   2.712   7.309
15266TIP3    H245721   7.775   2.583   7.334
15267TIP3   OH245722   6.279   4.014   7.287
15267TIP3    H145723   6.194   3.982   7.254
15267TIP3    H245724   6.271   4.108   7.263
15268TIP3   OH245725   6.684   2.596   7.273
15268TIP3    H145726   6.732   2.532   7.216
15268TIP3    H245727   6.759   2.649   7.308
15269TIP3   OH245728   7.190   2.776   7.372
15269TIP3    H145729   7.249   2.728   7.433
15269TIP3    H245730   7.212   2.868   7.398
15270TIP3   OH245731   7.053   4.192   6.873
15270TIP3    H145732   7.141   4.215   6.836
15270TIP3    H245733   7.031   4.118   6.812
15271TIP3   OH245734   7.776   4.318   6.968
15271TIP3    H145735   7.768   4.220   6.959
15271TIP3    H245736   7.727   4.348   6.888
15272TIP3   OH245737   6.357   4.033   6.927
15272TIP3    H145738   6.361   4.047   7.023
15272TIP3    H245739   6.444   3.988   6.910
15273TIP3   OH245740   7.986   4.452   8.147
15273TIP3    H145741   7.911   4.415   8.096
15273TIP3    H245742   7.964   4.547   8.142
15274TIP3   OH245743   9.237   3.854   6.931
15274TIP3    H145744   9.209   3.937   6.889
15274TIP3    H245745   9.177   3.792   6.886
15275TIP3   OH245746   8.522   4.130   7.390
15275TIP3    H145747   8.526   4.033   7.398
15275TIP3    H245748   8.617   4.152   7.393
15276TIP3   OH245749   8.234   3.352   7.165
15276TIP3    H145750   8.178   3.430   7.183
15276TIP3    H245751   8.167   3.289   7.133
15277TIP3   OH245752   8.309   3.619   7.352
15277TIP3    H145753   8.355   3.535   7.371
15277TIP3    H245754   8.347   3.645   7.268
15278TIP3   OH245755   9.143   4.608   6.982
15278TIP3    H145756   9.199   4.532   6.955
15278TIP3    H245757   9.099   4.575   7.063
15279TIP3   OH245758   8.471   3.406   7.453
15279TIP3    H145759   8.567   3.411   7.460
15279TIP3    H245760   8.464   3.349   7.374
15280TIP3   OH245761   8.860   3.639   7.204
15280TIP3    H145762   8.929   3.599   7.258
15280TIP3    H245763   8.813   3.557   7.176
15281TIP3   OH245764   9.160   4.067   6.772
15281TIP3    H145765   9.110   4.040   6.694
15281TIP3    H245766   9.111   4.149   6.796
15282TIP3   OH245767   8.706   4.151   7.657
15282TIP3    H145768   8.705   4.244   7.627
15282TIP3    H245769   8.635   4.155   7.724
15283TIP3   OH245770   8.135   3.866   6.908
15283TIP3    H145771   8.093   3.892   6.824
15283TIP3    H245772   8.167   3.952   6.942
15284TIP3   OH245773   9.287   4.431   6.834
15284TIP3    H145774   9.342   4.350   6.822
15284TIP3    H245775   9.344   4.498   6.791
15285TIP3   OH245776   9.422   4.202   6.777
15285TIP3    H145777   9.417   4.182   6.681
15285TIP3    H245778   9.373   4.126   6.814
15286TIP3   OH245779   9.090   3.704   6.744
15286TIP3    H145780   9.008   3.750   6.716
15286TIP3    H245781   9.133   3.685   6.659
15287TIP3   OH245782   9.050   3.463   6.471
15287TIP3    H145783   9.128   3.518   6.492
15287TIP3    H245784   9.087   3.374   6.477
15288TIP3   OH245785   8.645   3.785   7.132
15288TIP3    H145786   8.609   3.724   7.063
15288TIP3    H245787   8.727   3.736   7.158
15289TIP3   OH245788   8.781   4.182   7.276
15289TIP3    H145789   8.772   4.140   7.189
15289TIP3    H245790   8.864   4.148   7.310
15290TIP3   OH245791   9.268   3.624   6.547
15290TIP3    H145792   9.345   3.630   6.605
15290TIP3    H245793   9.299   3.680   6.473
15291TIP3   OH245794   9.032   4.306   6.813
15291TIP3    H145795   9.101   4.366   6.845
15291TIP3    H245796   8.964   4.366   6.778
15292TIP3   OH245797   8.661   4.510   7.861
15292TIP3    H145798   8.680   4.486   7.768
15292TIP3    H245799   8.653   4.422   7.900
15293TIP3   OH245800   8.540   3.615   6.934
15293TIP3    H145801   8.463   3.645   6.881
15293TIP3    H245802   8.518   3.523   6.954
15294TIP3   OH245803   8.330   3.974   7.838
15294TIP3    H145804   8.250   3.966   7.781
15294TIP3    H245805   8.331   3.890   7.885
15295TIP3   OH245806   8.178   4.186   7.481
15295TIP3    H145807   8.274   4.184   7.470
15295TIP3    H245808   8.165   4.263   7.538
15296TIP3   OH245809   8.907   4.547   6.626
15296TIP3    H145810   8.857   4.525   6.546
15296TIP3    H245811   8.874   4.635   6.652
15297TIP3   OH245812   8.346   4.396   7.008
15297TIP3    H145813   8.388   4.389   7.097
15297TIP3    H245814   8.295   4.313   7.006
15298TIP3   OH245815   9.079   4.500   6.273
15298TIP3    H145816   9.121   4.429   6.220
15298TIP3    H245817   9.134   4.496   6.354
15299TIP3   OH245818   9.158   4.497   6.544
15299TIP3    H145819   9.069   4.512   6.582
15299TIP3    H245820   9.200   4.449   6.617
15300TIP3   OH245821   8.516   4.177   7.848
15300TIP3    H145822   8.547   4.163   7.939
15300TIP3    H245823   8.442   4.112   7.845
15301TIP3   OH245824   9.039   3.071   6.600
15301TIP3    H145825   9.136   3.064   6.601
15301TIP3    H245826   9.011   2.981   6.575
15302TIP3   OH245827   8.718   3.416   7.147
15302TIP3    H145828   8.631   3.377   7.169
15302TIP3    H245829   8.771   3.335   7.137
15303TIP3   OH245830   9.212   3.515   6.904
15303TIP3    H145831   9.166   3.586   6.853
15303TIP3    H245832   9.250   3.461   6.834
15304TIP3   OH245833   8.710   3.005   6.557
15304TIP3    H145834   8.703   3.009   6.654
15304TIP3    H245835   8.637   3.063   6.531
15305TIP3   OH245836   8.226   3.116   7.390
15305TIP3    H145837   8.315   3.105   7.429
15305TIP3    H245838   8.237   3.061   7.310
15306TIP3   OH245839   8.236   3.042   6.953
15306TIP3    H145840   8.282   3.078   6.874
15306TIP3    H245841   8.174   3.115   6.970
15307TIP3   OH245842   8.489   3.283   7.212
15307TIP3    H145843   8.395   3.293   7.185
15307TIP3    H245844   8.505   3.187   7.198
15308TIP3   OH245845   8.801   3.256   6.880
15308TIP3    H145846   8.857   3.333   6.864
15308TIP3    H245847   8.726   3.276   6.819
15309TIP3   OH245848   8.613   3.309   6.692
15309TIP3    H145849   8.542   3.264   6.643
15309TIP3    H245850   8.666   3.346   6.618
15310TIP3   OH245851   8.599   3.034   7.182
15310TIP3    H145852   8.591   2.943   7.148
15310TIP3    H245853   8.685   3.061   7.142
15311TIP3   OH245854   8.850   3.850   6.690
15311TIP3    H145855   8.783   3.777   6.682
15311TIP3    H245856   8.836   3.877   6.785
15312TIP3   OH245857   8.565   3.842   7.390
15312TIP3    H145858   8.581   3.847   7.294
15312TIP3    H245859   8.608   3.758   7.409
15313TIP3   OH245860   9.011   3.988   6.519
15313TIP3    H145861   8.962   4.074   6.524
15313TIP3    H245862   8.954   3.933   6.576
15314TIP3   OH245863   8.657   4.165   6.996
15314TIP3    H145864   8.651   4.247   6.945
15314TIP3    H245865   8.564   4.147   7.016
15315TIP3   OH245866   8.224   3.466   6.709
15315TIP3    H145867   8.267   3.551   6.729
15315TIP3    H245868   8.146   3.469   6.769
15316TIP3   OH245869   8.792   3.930   6.941
15316TIP3    H145870   8.754   4.018   6.959
15316TIP3    H245871   8.753   3.878   7.013
15317TIP3   OH245872   8.914   4.460   7.458
15317TIP3    H145873   8.928   4.552   7.434
15317TIP3    H245874   8.986   4.450   7.522
15318TIP3   OH245875   8.572   4.406   6.847
15318TIP3    H145876   8.488   4.411   6.898
15318TIP3    H245877   8.604   4.499   6.854
15319TIP3   OH245878   9.212   4.061   6.332
15319TIP3    H145879   9.291   4.043   6.385
15319TIP3    H245880   9.142   4.027   6.391
15320TIP3   OH245881   8.367   4.372   7.627
15320TIP3    H145882   8.421   4.294   7.647
15320TIP3    H245883   8.389   4.427   7.702
15321TIP3   OH245884   8.649   4.019   6.314
15321TIP3    H145885   8.668   3.928   6.283
15321TIP3    H245886   8.630   4.002   6.409
15322TIP3   OH245887   8.598   4.021   6.586
15322TIP3    H145888   8.675   3.986   6.634
15322TIP3    H245889   8.609   4.118   6.598
15323TIP3   OH245890   8.328   3.711   6.785
15323TIP3    H145891   8.262   3.757   6.842
15323TIP3    H245892   8.342   3.780   6.718
15324TIP3   OH245893   8.872   4.217   6.534
15324TIP3    H145894   8.785   4.241   6.571
15324TIP3    H245895   8.879   4.280   6.462
15325TIP3   OH245896   8.621   4.296   6.602
15325TIP3    H145897   8.566   4.352   6.547
15325TIP3    H245898   8.604   4.332   6.692
15326TIP3   OH245899   8.711   2.999   6.830
15326TIP3    H145900   8.723   3.092   6.859
15326TIP3    H245901   8.802   2.968   6.835
15327TIP3   OH245902   8.331   3.918   6.589
15327TIP3    H145903   8.407   3.979   6.600
15327TIP3    H245904   8.371   3.856   6.524
15328TIP3   OH245905   8.270   3.195   6.728
15328TIP3    H145906   8.271   3.293   6.726
15328TIP3    H245907   8.191   3.174   6.677
15329TIP3   OH245908   8.195   4.137   6.974
15329TIP3    H145909   8.133   4.165   7.043
15329TIP3    H245910   8.158   4.180   6.894
15330TIP3   OH245911   8.815   4.223   6.234
15330TIP3    H145912   8.758   4.148   6.262
15330TIP3    H245913   8.882   4.175   6.182
15331TIP3   OH245914   9.181   4.273   6.170
15331TIP3    H145915   9.200   4.196   6.228
15331TIP3    H245916   9.262   4.275   6.113
15332TIP3   OH245917   8.465   3.731   6.448
15332TIP3    H145918   8.523   3.699   6.520
15332TIP3    H245919   8.531   3.736   6.375
15333TIP3   OH245920   8.954   3.924   6.251
15333TIP3    H145921   8.967   3.937   6.346
15333TIP3    H245922   8.969   3.827   6.244
15334TIP3   OH245923   8.668   3.644   6.664
15334TIP3    H145924   8.640   3.606   6.749
15334TIP3    H245925   8.705   3.566   6.618
15335TIP3   OH245926   8.771   3.439   6.507
15335TIP3    H145927   8.744   3.444   6.413
15335TIP3    H245928   8.868   3.440   6.498
15336TIP3   OH245929   8.061   3.878   6.626
15336TIP3    H145930   8.156   3.898   6.612
15336TIP3    H245931   8.053   3.789   6.586
15337TIP3   OH245932   7.979   4.490   7.045
15337TIP3    H145933   7.913   4.429   7.007
15337TIP3    H245934   8.022   4.430   7.110
15338TIP3   OH245935   8.112   4.335   7.231
15338TIP3    H145936   8.098   4.266   7.298
15338TIP3    H245937   8.164   4.398   7.283
15339TIP3   OH245938   8.311   3.750   7.591
15339TIP3    H145939   8.294   3.700   7.508
15339TIP3    H245940   8.392   3.797   7.566
15340TIP3   OH245941   8.261   3.454   7.635
15340TIP3    H145942   8.323   3.436   7.562
15340TIP3    H245943   8.297   3.536   7.673
15341TIP3   OH245944   8.242   2.918   7.192
15341TIP3    H145945   8.148   2.893   7.190
15341TIP3    H245946   8.252   2.964   7.106
15342TIP3   OH245947   9.432   4.615   6.691
15342TIP3    H145948   9.488   4.574   6.624
15342TIP3    H245949   9.495   4.661   6.747
15343TIP3   OH245950   8.692   4.419   7.604
15343TIP3    H145951   8.644   4.493   7.559
15343TIP3    H245952   8.776   4.424   7.554
15344TIP3   OH245953   8.381   4.729   7.639
15344TIP3    H145954   8.287   4.758   7.625
15344TIP3    H245955   8.376   4.688   7.725
15345TIP3   OH245956   8.590   4.636   7.486
15345TIP3    H145957   8.520   4.682   7.539
15345TIP3    H245958   8.594   4.693   7.407
15346TIP3   OH245959   8.994   4.606   7.209
15346TIP3    H145960   8.941   4.672   7.161
15346TIP3    H245961   9.050   4.663   7.265
15347TIP3   OH245962   8.286   4.495   7.389
15347TIP3    H145963   8.317   4.469   7.478
15347TIP3    H245964   8.357   4.453   7.336
15348TIP3   OH245965   8.471   4.360   7.246
15348TIP3    H145966   8.488   4.276   7.295
15348TIP3    H245967   8.561   4.399   7.244
15349TIP3   OH245968   8.729   4.450   7.236
15349TIP3    H145969   8.755   4.356   7.231
15349TIP3    H245970   8.790   4.477   7.307
15350TIP3   OH245971   8.340   2.705   6.984
15350TIP3    H145972   8.385   2.759   6.917
15350TIP3    H245973   8.335   2.763   7.061
15351TIP3   OH245974   8.077   4.271   6.771
15351TIP3    H145975   7.991   4.236   6.742
15351TIP3    H245976   8.065   4.365   6.747
15352TIP3   OH245977   8.476   2.855   6.761
15352TIP3    H145978   8.522   2.791   6.703
15352TIP3    H245979   8.551   2.907   6.797
15353TIP3   OH245980   8.834   4.462   6.365
15353TIP3    H145981   8.930   4.455   6.344
15353TIP3    H245982   8.801   4.384   6.315
15354TIP3   OH245983   8.155   4.290   6.411
15354TIP3    H145984   8.151   4.299   6.507
15354TIP3    H245985   8.240   4.242   6.398
15355TIP3   OH245986   1.633   4.909   8.395
15355TIP3    H145987   1.598   4.841   8.335
15355TIP3    H245988   1.554   4.962   8.412
15356TIP3   OH245989   1.718   5.205   8.490
15356TIP3    H145990   1.783   5.136   8.464
15356TIP3    H245991   1.772   5.284   8.466
15357TIP3   OH245992   1.889   5.014   8.414
15357TIP3    H145993   1.815   4.960   8.382
15357TIP3    H245994   1.951   4.949   8.448
15358TIP3   OH245995   1.529   4.447   8.395
15358TIP3    H145996   1.498   4.533   8.364
15358TIP3    H245997   1.600   4.429   8.331
15359TIP3   OH245998   1.510   4.250   8.146
15359TIP3    H145999   1.575   4.298   8.198
15359TIP3    H246000   1.569   4.190   8.095
15360TIP3   OH246001   1.871   4.583   8.421
15360TIP3    H146002   1.816   4.584   8.501
15360TIP3    H246003   1.947   4.528   8.450
15361TIP3   OH246004   1.742   4.412   8.233
15361TIP3    H146005   1.793   4.483   8.275
15361TIP3    H246006   1.764   4.427   8.138
15362TIP3   OH246007   1.456   5.136   8.524
15362TIP3    H146008   1.549   5.167   8.512
15362TIP3    H246009   1.414   5.171   8.443
15363TIP3   OH246010   2.054   5.018   7.843
15363TIP3    H146011   2.062   5.112   7.818
15363TIP3    H246012   2.145   4.986   7.826
15364TIP3   OH246013   1.366   5.325   8.321
15364TIP3    H146014   1.319   5.313   8.236
15364TIP3    H246015   1.339   5.415   8.348
15365TIP3   OH246016   1.559   5.241   7.951
15365TIP3    H146017   1.617   5.171   7.914
15365TIP3    H246018   1.597   5.252   8.040
15366TIP3   OH246019   1.615   5.291   8.218
15366TIP3    H146020   1.528   5.299   8.261
15366TIP3    H246021   1.670   5.257   8.290
15367TIP3   OH246022   1.812   4.461   7.980
15367TIP3    H146023   1.774   4.437   7.894
15367TIP3    H246024   1.899   4.497   7.953
15368TIP3   OH246025   1.492   3.866   8.254
15368TIP3    H146026   1.511   3.851   8.348
15368TIP3    H246027   1.473   3.774   8.224
15369TIP3   OH246028   1.295   4.657   8.386
15369TIP3    H146029   1.264   4.565   8.370
15369TIP3    H246030   1.346   4.647   8.469
15370TIP3   OH246031   1.763   3.945   8.227
15370TIP3    H146032   1.670   3.938   8.253
15370TIP3    H246033   1.798   4.013   8.288
15371TIP3   OH246034   1.847   4.176   8.354
15371TIP3    H146035   1.944   4.180   8.364
15371TIP3    H246036   1.827   4.256   8.303
15372TIP3   OH246037   1.459   4.777   8.207
15372TIP3    H146038   1.418   4.867   8.206
15372TIP3    H246039   1.394   4.730   8.265
15373TIP3   OH246040   2.286   4.280   8.186
15373TIP3    H146041   2.227   4.226   8.129
15373TIP3    H246042   2.278   4.364   8.135
15374TIP3   OH246043   1.985   5.096   8.101
15374TIP3    H146044   1.961   5.020   8.155
15374TIP3    H246045   2.003   5.056   8.014
15375TIP3   OH246046   1.742   4.831   8.000
15375TIP3    H146047   1.799   4.806   8.077
15375TIP3    H246048   1.657   4.793   8.027
15376TIP3   OH246049   2.080   5.294   7.818
15376TIP3    H146050   2.116   5.366   7.764
15376TIP3    H246051   2.001   5.338   7.854
15377TIP3   OH246052   1.906   4.764   8.210
15377TIP3    H146053   1.891   4.703   8.284
15377TIP3    H246054   2.003   4.754   8.197
15378TIP3   OH246055   1.109   4.802   8.002
15378TIP3    H146056   1.121   4.709   7.973
15378TIP3    H246057   1.084   4.789   8.096
15379TIP3   OH246058   1.061   4.800   8.276
15379TIP3    H146059   1.144   4.773   8.319
15379TIP3    H246060   1.063   4.898   8.285
15380TIP3   OH246061   1.331   5.013   8.233
15380TIP3    H146062   1.240   5.034   8.262
15380TIP3    H246063   1.338   5.073   8.157
15381TIP3   OH246064   1.067   5.079   8.284
15381TIP3    H146065   1.041   5.141   8.212
15381TIP3    H246066   1.031   5.126   8.360
15382TIP3   OH246067   0.761   4.722   8.271
15382TIP3    H146068   0.835   4.776   8.303
15382TIP3    H246069   0.809   4.656   8.219
15383TIP3   OH246070   2.047   5.394   8.708
15383TIP3    H146071   2.008   5.459   8.646
15383TIP3    H246072   2.142   5.412   8.696
15384TIP3   OH246073   1.273   5.005   7.917
15384TIP3    H146074   1.218   4.929   7.948
15384TIP3    H246075   1.346   4.959   7.872
15385TIP3   OH246076   1.704   5.046   7.822
15385TIP3    H146077   1.747   4.981   7.881
15385TIP3    H246078   1.756   5.039   7.740
15386TIP3   OH246079   0.906   4.521   8.125
15386TIP3    H146080   0.956   4.476   8.194
15386TIP3    H246081   0.975   4.528   8.055
15387TIP3   OH246082   1.431   4.719   7.938
15387TIP3    H146083   1.431   4.730   8.034
15387TIP3    H246084   1.435   4.621   7.931
15388TIP3   OH246085   1.197   4.407   8.346
15388TIP3    H146086   1.145   4.352   8.406
15388TIP3    H246087   1.225   4.339   8.281
15389TIP3   OH246088   1.241   4.195   8.183
15389TIP3    H146089   1.209   4.202   8.091
15389TIP3    H246090   1.338   4.193   8.170
15390TIP3   OH246091   2.045   4.549   7.865
15390TIP3    H146092   2.028   4.505   7.779
15390TIP3    H246093   2.012   4.639   7.843
15391TIP3   OH246094   1.037   5.287   8.107
15391TIP3    H146095   1.133   5.281   8.087
15391TIP3    H246096   1.007   5.328   8.024
15392TIP3   OH246097   2.298   5.518   8.734
15392TIP3    H146098   2.283   5.583   8.804
15392TIP3    H246099   2.348   5.569   8.668
15393TIP3   OH246100   2.181   4.742   8.200
15393TIP3    H146101   2.244   4.806   8.160
15393TIP3    H246102   2.223   4.725   8.286
15394TIP3   OH246103   2.280   4.648   8.452
15394TIP3    H146104   2.281   4.553   8.433
15394TIP3    H246105   2.376   4.665   8.467
15395TIP3   OH246106   2.245   4.517   8.050
15395TIP3    H146107   2.179   4.513   7.978
15395TIP3    H246108   2.214   4.597   8.097
15396TIP3   OH246109   2.114   4.185   7.999
15396TIP3    H146110   2.075   4.210   7.914
15396TIP3    H246111   2.103   4.087   7.996
15397TIP3   OH246112   2.090   4.444   8.514
15397TIP3    H146113   2.073   4.361   8.465
15397TIP3    H246114   2.173   4.414   8.557
15398TIP3   OH246115   2.081   3.913   8.001
15398TIP3    H146116   2.119   3.903   8.091
15398TIP3    H246117   1.995   3.869   8.010
15399TIP3   OH246118   2.124   4.196   8.402
15399TIP3    H146119   2.135   4.098   8.402
15399TIP3    H246120   2.191   4.215   8.333
15400TIP3   OH246121   1.860   5.399   8.374
15400TIP3    H146122   1.919   5.388   8.296
15400TIP3    H246123   1.911   5.463   8.428
15401TIP3   OH246124   1.302   5.240   8.052
15401TIP3    H146125   1.390   5.263   8.013
15401TIP3    H246126   1.279   5.166   7.991
15402TIP3   OH246127   2.018   5.363   8.149
15402TIP3    H146128   2.012   5.265   8.138
15402TIP3    H246129   1.976   5.392   8.066
15403TIP3   OH246130   3.513   4.882   8.094
15403TIP3    H146131   3.480   4.970   8.068
15403TIP3    H246132   3.442   4.826   8.055
15404TIP3   OH246133   3.516   4.878   8.477
15404TIP3    H146134   3.541   4.840   8.562
15404TIP3    H246135   3.473   4.802   8.434
15405TIP3   OH246136   3.762   5.182   8.160
15405TIP3    H146137   3.737   5.113   8.223
15405TIP3    H246138   3.789   5.255   8.218
15406TIP3   OH246139   2.767   5.177   8.569
15406TIP3    H146140   2.763   5.080   8.559
15406TIP3    H246141   2.859   5.187   8.599
15407TIP3   OH246142   2.454   4.371   8.384
15407TIP3    H146143   2.477   4.452   8.337
15407TIP3    H246144   2.402   4.323   8.315
15408TIP3   OH246145   2.544   4.664   8.505
15408TIP3    H146146   2.592   4.594   8.555
15408TIP3    H246147   2.617   4.708   8.460
15409TIP3   OH246148   3.412   5.644   8.180
15409TIP3    H146149   3.451   5.572   8.125
15409TIP3    H246150   3.395   5.598   8.263
15410TIP3   OH246151   3.312   5.103   8.525
15410TIP3    H146152   3.349   5.029   8.474
15410TIP3    H246153   3.396   5.150   8.546
15411TIP3   OH246154   4.325   4.426   8.519
15411TIP3    H146155   4.359   4.508   8.561
15411TIP3    H246156   4.354   4.438   8.427
15412TIP3   OH246157   3.726   4.605   8.553
15412TIP3    H146158   3.767   4.518   8.571
15412TIP3    H246159   3.691   4.590   8.463
15413TIP3   OH246160   3.068   4.258   8.520
15413TIP3    H146161   3.046   4.335   8.464
15413TIP3    H246162   3.021   4.188   8.470
15414TIP3   OH246163   3.758   4.358   8.141
15414TIP3    H146164   3.830   4.344   8.207
15414TIP3    H246165   3.810   4.391   8.065
15415TIP3   OH246166   2.690   4.463   8.623
15415TIP3    H146167   2.775   4.444   8.667
15415TIP3    H246168   2.702   4.412   8.540
15416TIP3   OH246169   3.132   4.664   8.430
15416TIP3    H146170   3.227   4.642   8.435
15416TIP3    H246171   3.094   4.580   8.396
15417TIP3   OH246172   4.402   4.634   8.696
15417TIP3    H146173   4.317   4.681   8.682
15417TIP3    H246174   4.444   4.688   8.766
15418TIP3   OH246175   3.401   5.098   7.962
15418TIP3    H146176   3.362   5.082   7.874
15418TIP3    H246177   3.353   5.179   7.989
15419TIP3   OH246178   3.169   5.009   8.739
15419TIP3    H146179   3.107   5.081   8.766
15419TIP3    H246180   3.220   5.055   8.669
15420TIP3   OH246181   3.962   4.363   8.318
15420TIP3    H146182   3.957   4.310   8.398
15420TIP3    H246183   4.014   4.441   8.348
15421TIP3   OH246184   2.914   4.346   8.736
15421TIP3    H146185   2.983   4.414   8.752
15421TIP3    H246186   2.961   4.293   8.668
15422TIP3   OH246187   2.981   5.211   8.796
15422TIP3    H146188   2.966   5.300   8.758
15422TIP3    H246189   2.968   5.233   8.890
15423TIP3   OH246190   2.366   4.918   8.085
15423TIP3    H146191   2.339   4.935   7.993
15423TIP3    H246192   2.410   5.001   8.110
15424TIP3   OH246193   3.826   5.428   8.323
15424TIP3    H146194   3.737   5.417   8.364
15424TIP3    H246195   3.814   5.514   8.279
15425TIP3   OH246196   4.108   4.353   8.680
15425TIP3    H146197   4.022   4.363   8.636
15425TIP3    H246198   4.172   4.375   8.609
15426TIP3   OH246199   3.389   3.971   8.656
15426TIP3    H146200   3.422   3.884   8.683
15426TIP3    H246201   3.340   3.997   8.737
15427TIP3   OH246202   3.524   5.470   7.996
15427TIP3    H146203   3.573   5.386   7.978
15427TIP3    H246204   3.587   5.533   7.956
15428TIP3   OH246205   3.669   5.255   7.910
15428TIP3    H146206   3.634   5.175   7.868
15428TIP3    H246207   3.708   5.219   7.993
15429TIP3   OH246208   4.051   5.338   8.666
15429TIP3    H146209   4.034   5.258   8.612
15429TIP3    H246210   4.032   5.410   8.603
15430TIP3   OH246211   3.348   4.732   7.930
15430TIP3    H146212   3.265   4.781   7.910
15430TIP3    H246213   3.387   4.724   7.842
15431TIP3   OH246214   3.307   4.521   7.640
15431TIP3    H146215   3.377   4.575   7.680
15431TIP3    H246216   3.361   4.454   7.593
15432TIP3   OH246217   4.246   4.976   8.516
15432TIP3    H146218   4.161   5.026   8.521
15432TIP3    H246219   4.275   5.000   8.426
15433TIP3   OH246220   3.693   4.817   7.896
15433TIP3    H146221   3.638   4.840   7.975
15433TIP3    H246222   3.776   4.791   7.940
15434TIP3   OH246223   3.932   4.845   8.808
15434TIP3    H146224   3.935   4.923   8.868
15434TIP3    H246225   3.842   4.855   8.770
15435TIP3   OH246226   2.920   4.814   8.322
15435TIP3    H146227   2.871   4.754   8.261
15435TIP3    H246228   2.996   4.758   8.348
15436TIP3   OH246229   3.059   5.235   8.454
15436TIP3    H146230   3.031   5.195   8.370
15436TIP3    H246231   3.143   5.189   8.473
15437TIP3   OH246232   3.038   4.786   8.656
15437TIP3    H146233   3.080   4.762   8.571
15437TIP3    H246234   3.089   4.866   8.683
15438TIP3   OH246235   3.586   5.422   8.443
15438TIP3    H146236   3.574   5.501   8.500
15438TIP3    H246237   3.568   5.347   8.503
15439TIP3   OH246238   3.533   4.670   7.725
15439TIP3    H146239   3.590   4.733   7.774
15439TIP3    H246240   3.559   4.690   7.632
15440TIP3   OH246241   3.278   5.345   8.003
15440TIP3    H146242   3.359   5.399   8.007
15440TIP3    H246243   3.217   5.401   7.953
15441TIP3   OH246244   4.047   3.907   7.776
15441TIP3    H146245   3.965   3.930   7.824
15441TIP3    H246246   4.062   3.989   7.724
15442TIP3   OH246247   2.779   4.645   8.158
15442TIP3    H146248   2.714   4.695   8.103
15442TIP3    H246249   2.786   4.564   8.106
15443TIP3   OH246250   3.848   5.277   7.326
15443TIP3    H146251   3.856   5.373   7.307
15443TIP3    H246252   3.940   5.246   7.311
15444TIP3   OH246253   2.439   5.251   8.639
15444TIP3    H146254   2.534   5.256   8.625
15444TIP3    H246255   2.421   5.325   8.700
15445TIP3   OH246256   4.290   5.681   8.718
15445TIP3    H146257   4.289   5.586   8.739
15445TIP3    H246258   4.208   5.710   8.764
15446TIP3   OH246259   3.396   5.453   8.834
15446TIP3    H146260   3.405   5.548   8.861
15446TIP3    H246261   3.325   5.424   8.893
15447TIP3   OH246262   3.162   5.594   7.802
15447TIP3    H146263   3.111   5.571   7.722
15447TIP3    H246264   3.123   5.679   7.828
15448TIP3   OH246265   2.594   5.443   8.189
15448TIP3    H146266   2.640   5.432   8.275
15448TIP3    H246267   2.548   5.357   8.182
15449TIP3   OH246268   3.357   5.498   7.441
15449TIP3    H146269   3.414   5.427   7.405
15449TIP3    H246270   3.391   5.507   7.532
15450TIP3   OH246271   3.412   5.546   7.710
15450TIP3    H146272   3.322   5.556   7.749
15450TIP3    H246273   3.458   5.502   7.782
15451TIP3   OH246274   4.183   4.806   8.941
15451TIP3    H146275   4.116   4.824   8.873
15451TIP3    H246276   4.202   4.711   8.925
15452TIP3   OH246277   3.903   4.589   8.920
15452TIP3    H146278   3.963   4.599   8.996
15452TIP3    H246279   3.916   4.674   8.872
15453TIP3   OH246280   3.614   4.711   7.472
15453TIP3    H146281   3.570   4.693   7.387
15453TIP3    H246282   3.696   4.754   7.442
15454TIP3   OH246283   3.322   4.084   7.774
15454TIP3    H146284   3.282   4.084   7.863
15454TIP3    H246285   3.278   4.006   7.736
15455TIP3   OH246286   3.101   4.544   8.765
15455TIP3    H146287   3.113   4.584   8.853
15455TIP3    H246288   3.073   4.623   8.713
15456TIP3   OH246289   2.990   4.443   8.338
15456TIP3    H146290   2.894   4.428   8.347
15456TIP3    H246291   3.005   4.405   8.249
15457TIP3   OH246292   3.482   4.531   8.066
15457TIP3    H146293   3.431   4.602   8.020
15457TIP3    H246294   3.536   4.495   7.993
15458TIP3   OH246295   3.638   4.557   8.297
15458TIP3    H146296   3.573   4.582   8.228
15458TIP3    H246297   3.675   4.478   8.252
15459TIP3   OH246298   2.976   4.065   7.741
15459TIP3    H146299   2.961   4.067   7.837
15459TIP3    H246300   2.902   4.121   7.710
15460TIP3   OH246301   2.527   4.080   8.638
15460TIP3    H146302   2.587   4.150   8.611
15460TIP3    H246303   2.510   4.036   8.551
15461TIP3   OH246304   2.536   4.128   8.168
15461TIP3    H146305   2.557   4.148   8.074
15461TIP3    H246306   2.442   4.152   8.166
15462TIP3   OH246307   3.654   4.793   8.729
15462TIP3    H146308   3.691   4.733   8.659
15462TIP3    H246309   3.617   4.727   8.789
15463TIP3   OH246310   3.328   4.262   8.396
15463TIP3    H146311   3.243   4.258   8.444
15463TIP3    H246312   3.392   4.260   8.469
15464TIP3   OH246313   2.739   4.312   8.401
15464TIP3    H146314   2.649   4.303   8.365
15464TIP3    H246315   2.782   4.230   8.371
15465TIP3   OH246316   3.018   4.323   8.095
15465TIP3    H146317   3.109   4.337   8.064
15465TIP3    H246318   2.965   4.339   8.013
15466TIP3   OH246319   3.808   4.344   8.598
15466TIP3    H146320   3.774   4.350   8.690
15466TIP3    H246321   3.745   4.281   8.560
15467TIP3   OH246322   2.868   4.338   7.873
15467TIP3    H146323   2.798   4.305   7.815
15467TIP3    H246324   2.923   4.387   7.807
15468TIP3   OH246325   3.983   6.034   8.819
15468TIP3    H146326   3.980   6.063   8.726
15468TIP3    H246327   4.064   6.080   8.850
15469TIP3   OH246328   3.399   4.605   8.485
15469TIP3    H146329   3.470   4.556   8.441
15469TIP3    H246330   3.402   4.568   8.575
15470TIP3   OH246331   2.920   4.092   8.361
15470TIP3    H146332   2.898   4.012   8.413
15470TIP3    H246333   2.951   4.055   8.277
15471TIP3   OH246334   3.382   4.514   8.749
15471TIP3    H146335   3.285   4.524   8.741
15471TIP3    H246336   3.399   4.561   8.832
15472TIP3   OH246337   3.111   4.877   7.879
15472TIP3    H146338   3.033   4.822   7.863
15472TIP3    H246339   3.092   4.913   7.969
15473TIP3   OH246340   4.008   5.115   8.506
15473TIP3    H146341   4.033   5.166   8.426
15473TIP3    H246342   3.924   5.073   8.479
15474TIP3   OH246343   3.572   4.188   7.751
15474TIP3    H146344   3.475   4.167   7.754
15474TIP3    H246345   3.575   4.284   7.769
15475TIP3   OH246346   3.556   5.235   8.854
15475TIP3    H146347   3.500   5.177   8.910
15475TIP3    H246348   3.498   5.314   8.852
15476TIP3   OH246349   3.637   4.444   7.849
15476TIP3    H146350   3.734   4.451   7.859
15476TIP3    H246351   3.615   4.522   7.795
15477TIP3   OH246352   2.803   4.893   8.562
15477TIP3    H146353   2.827   4.876   8.468
15477TIP3    H246354   2.882   4.857   8.605
15478TIP3   OH246355   3.263   5.032   7.711
15478TIP3    H146356   3.212   5.117   7.710
15478TIP3    H246357   3.205   4.976   7.766
15479TIP3   OH246358   3.678   5.497   8.749
15479TIP3    H146359   3.587   5.466   8.765
15479TIP3    H246360   3.701   5.534   8.837
15480TIP3   OH246361   4.079   4.537   7.678
15480TIP3    H146362   4.018   4.492   7.614
15480TIP3    H246363   4.075   4.626   7.638
15481TIP3   OH246364   4.302   5.389   8.754
15481TIP3    H146365   4.204   5.384   8.744
15481TIP3    H246366   4.330   5.363   8.664
15482TIP3   OH246367   3.792   5.351   7.592
15482TIP3    H146368   3.753   5.282   7.647
15482TIP3    H246369   3.798   5.307   7.505
15483TIP3   OH246370   3.775   4.979   8.423
15483TIP3    H146371   3.681   4.953   8.433
15483TIP3    H246372   3.810   4.901   8.376
15484TIP3   OH246373   2.907   5.211   8.181
15484TIP3    H146374   2.905   5.291   8.125
15484TIP3    H246375   2.815   5.185   8.182
15485TIP3   OH246376   2.476   4.498   7.879
15485TIP3    H146377   2.533   4.576   7.866
15485TIP3    H246378   2.411   4.530   7.945
15486TIP3   OH246379   3.039   4.973   8.121
15486TIP3    H146380   3.007   5.063   8.140
15486TIP3    H246381   3.001   4.922   8.195
15487TIP3   OH246382   3.184   5.556   8.646
15487TIP3    H146383   3.222   5.628   8.591
15487TIP3    H246384   3.265   5.513   8.678
15488TIP3   OH246385   2.824   5.450   8.030
15488TIP3    H146386   2.739   5.457   8.077
15488TIP3    H246387   2.855   5.543   8.033
15489TIP3   OH246388   3.569   5.185   8.589
15489TIP3    H146389   3.573   5.193   8.687
15489TIP3    H246390   3.643   5.126   8.571
15490TIP3   OH246391   3.541   5.086   7.486
15490TIP3    H146392   3.589   5.059   7.568
15490TIP3    H246393   3.453   5.048   7.504
15491TIP3   OH246394   3.814   5.722   8.655
15491TIP3    H146395   3.740   5.657   8.658
15491TIP3    H246396   3.788   5.779   8.579
15492TIP3   OH246397   3.877   5.551   7.306
15492TIP3    H146398   3.907   5.621   7.245
15492TIP3    H246399   3.798   5.595   7.343
15493TIP3   OH246400   3.702   5.019   7.705
15493TIP3    H146401   3.690   4.950   7.774
15493TIP3    H246402   3.798   5.011   7.690
15494TIP3   OH246403   2.630   5.437   8.791
15494TIP3    H146404   2.720   5.400   8.798
15494TIP3    H246405   2.628   5.496   8.867
15495TIP3   OH246406   2.907   5.053   7.488
15495TIP3    H146407   2.925   4.963   7.454
15495TIP3    H246408   2.874   5.032   7.578
15496TIP3   OH246409   2.837   5.073   7.763
15496TIP3    H146410   2.914   5.043   7.813
15496TIP3    H246411   2.847   5.170   7.767
15497TIP3   OH246412   2.594   4.754   7.996
15497TIP3    H146413   2.522   4.819   8.002
15497TIP3    H246414   2.619   4.759   7.900
15498TIP3   OH246415   3.734   4.378   8.862
15498TIP3    H146416   3.796   4.452   8.877
15498TIP3    H246417   3.761   4.316   8.931
15499TIP3   OH246418   3.619   4.139   8.027
15499TIP3    H146419   3.602   4.158   7.933
15499TIP3    H246420   3.656   4.223   8.059
15500TIP3   OH246421   3.120   5.262   7.712
15500TIP3    H146422   3.032   5.287   7.747
15500TIP3    H246423   3.128   5.324   7.639
15501TIP3   OH246424   3.308   4.325   8.125
15501TIP3    H146425   3.368   4.399   8.107
15501TIP3    H246426   3.312   4.320   8.223
15502TIP3   OH246427   3.443   4.046   8.223
15502TIP3    H146428   3.424   4.128   8.273
15502TIP3    H246429   3.508   4.079   8.157
15503TIP3   OH246430   2.868   5.344   7.779
15503TIP3    H146431   2.833   5.413   7.718
15503TIP3    H246432   2.847   5.383   7.866
15504TIP3   OH246433   2.957   4.052   8.021
15504TIP3    H146434   2.951   4.146   8.046
15504TIP3    H246435   3.055   4.041   8.024
15505TIP3   OH246436   4.202   4.534   8.892
15505TIP3    H146437   4.111   4.502   8.882
15505TIP3    H246438   4.239   4.497   8.810
15506TIP3   OH246439   3.863   4.738   8.300
15506TIP3    H146440   3.787   4.678   8.307
15506TIP3    H246441   3.933   4.688   8.347
15507TIP3   OH246442   2.570   4.990   7.758
15507TIP3    H146443   2.658   5.032   7.766
15507TIP3    H246444   2.600   4.902   7.724
15508TIP3   OH246445   2.512   4.229   7.912
15508TIP3    H146446   2.519   4.327   7.905
15508TIP3    H246447   2.442   4.212   7.848
15509TIP3   OH246448   3.833   5.696   8.246
15509TIP3    H146449   3.791   5.745   8.171
15509TIP3    H246450   3.928   5.709   8.224
15510TIP3   OH246451   2.450   5.189   8.152
15510TIP3    H146452   2.382   5.212   8.216
15510TIP3    H246453   2.413   5.228   8.069
15511TIP3   OH246454   3.067   5.258   7.402
15511TIP3    H146455   3.010   5.185   7.438
15511TIP3    H246456   3.141   5.206   7.366
15512TIP3   OH246457   3.720   5.593   9.005
15512TIP3    H146458   3.737   5.518   9.063
15512TIP3    H246459   3.800   5.648   9.024
15513TIP3   OH246460   3.503   5.301   7.315
15513TIP3    H146461   3.537   5.231   7.374
15513TIP3    H246462   3.559   5.293   7.236
15514TIP3   OH246463   3.241   4.985   7.434
15514TIP3    H146464   3.233   4.989   7.532
15514TIP3    H246465   3.234   4.888   7.421
15515TIP3   OH246466   3.841   5.218   8.813
15515TIP3    H146467   3.898   5.281   8.765
15515TIP3    H246468   3.754   5.261   8.811
15516TIP3   OH246469   3.031   4.448   7.686
15516TIP3    H146470   2.991   4.479   7.602
15516TIP3    H246471   3.124   4.475   7.674
15517TIP3   OH246472   3.843   4.807   7.351
15517TIP3    H146473   3.823   4.763   7.265
15517TIP3    H246474   3.809   4.897   7.330
15518TIP3   OH246475   3.350   4.812   8.832
15518TIP3    H146476   3.420   4.859   8.785
15518TIP3    H246477   3.278   4.877   8.822
15519TIP3   OH246478   3.967   5.056   8.983
15519TIP3    H146479   3.912   5.117   8.929
15519TIP3    H246480   4.056   5.092   8.961
15520TIP3   OH246481   2.833   5.551   7.595
15520TIP3    H146482   2.927   5.534   7.573
15520TIP3    H246483   2.804   5.595   7.513
15521TIP3   OH246484   2.311   4.919   7.811
15521TIP3    H146485   2.403   4.948   7.788
15521TIP3    H246486   2.307   4.833   7.764
15522TIP3   OH246487   2.225   5.535   8.221
15522TIP3    H146488   2.160   5.473   8.182
15522TIP3    H246489   2.269   5.476   8.286
15523TIP3   OH246490   2.353   5.383   8.409
15523TIP3    H146491   2.350   5.311   8.475
15523TIP3    H246492   2.411   5.445   8.456
15524TIP3   OH246493   4.099   5.759   8.209
15524TIP3    H146494   4.111   5.789   8.301
15524TIP3    H246495   4.120   5.840   8.160
15525TIP3   OH246496   4.116   5.800   8.486
15525TIP3    H146497   4.070   5.713   8.490
15525TIP3    H246498   4.185   5.784   8.552
15526TIP3   OH246499   4.171   5.487   9.050
15526TIP3    H146500   4.087   5.515   9.088
15526TIP3    H246501   4.219   5.573   9.050
15527TIP3   OH246502   3.980   4.992   7.682
15527TIP3    H146503   4.046   5.057   7.650
15527TIP3    H246504   4.026   4.955   7.760
15528TIP3   OH246505   4.109   4.861   7.887
15528TIP3    H146506   4.040   4.819   7.943
15528TIP3    H246507   4.171   4.896   7.953
15529TIP3   OH246508   4.166   5.252   8.327
15529TIP3    H146509   4.217   5.184   8.278
15529TIP3    H246510   4.170   5.329   8.267
15530TIP3   OH246511   3.988   5.557   8.508
15530TIP3    H146512   3.917   5.596   8.562
15530TIP3    H246513   3.938   5.510   8.439
15531TIP3   OH246514   4.045   4.770   7.531
15531TIP3    H146515   3.974   4.770   7.462
15531TIP3    H246516   4.014   4.846   7.585
15532TIP3   OH246517   3.917   4.441   7.482
15532TIP3    H146518   3.868   4.476   7.407
15532TIP3    H246519   3.894   4.346   7.475
15533TIP3   OH246520   3.920   4.720   8.029
15533TIP3    H146521   3.925   4.624   8.019
15533TIP3    H246522   3.905   4.730   8.126
15534TIP3   OH246523   2.588   4.785   8.768
15534TIP3    H146524   2.530   4.762   8.694
15534TIP3    H246525   2.661   4.828   8.722
15535TIP3   OH246526   4.213   5.147   8.894
15535TIP3    H146527   4.287   5.084   8.881
15535TIP3    H246528   4.235   5.218   8.832
15536TIP3   OH246529   4.405   4.958   8.892
15536TIP3    H146530   4.331   4.904   8.927
15536TIP3    H246531   4.480   4.898   8.914
15537TIP3   OH246532   3.858   4.176   7.467
15537TIP3    H146533   3.926   4.140   7.527
15537TIP3    H246534   3.780   4.119   7.485
15538TIP3   OH246535   3.920   4.439   7.923
15538TIP3    H146536   3.960   4.350   7.937
15538TIP3    H246537   3.976   4.470   7.849
15539TIP3   OH246538   4.076   4.604   8.420
15539TIP3    H146539   4.161   4.628   8.377
15539TIP3    H246540   4.093   4.641   8.508
15540TIP3   OH246541   4.149   4.755   8.647
15540TIP3    H146542   4.065   4.791   8.682
15540TIP3    H246543   4.185   4.833   8.600
15541TIP3   OH246544   4.025   4.187   7.962
15541TIP3    H146545   4.073   4.169   8.046
15541TIP3    H246546   3.964   4.111   7.959
15542TIP3   OH246547   4.460   4.485   9.004
15542TIP3    H146548   4.381   4.513   8.954
15542TIP3    H246549   4.479   4.400   8.960
15543TIP3   OH246550   4.104   4.114   7.601
15543TIP3    H146551   4.141   4.047   7.540
15543TIP3    H246552   4.169   4.187   7.594
15544TIP3   OH246553   2.523   3.960   8.383
15544TIP3    H146554   2.428   3.941   8.363
15544TIP3    H246555   2.541   4.021   8.308
15545TIP3   OH246556   3.675   5.651   7.865
15545TIP3    H146557   3.723   5.641   7.780
15545TIP3    H246558   3.723   5.724   7.907
15546TIP3   OH246559   2.942   5.478   8.750
15546TIP3    H146560   2.902   5.566   8.734
15546TIP3    H246561   3.034   5.500   8.725
15547TIP3   OH246562   3.421   5.707   8.916
15547TIP3    H146563   3.467   5.712   9.001
15547TIP3    H246564   3.473   5.771   8.864
15548TIP3   OH246565   3.574   5.890   8.790
15548TIP3    H146566   3.644   5.844   8.742
15548TIP3    H246567   3.627   5.945   8.852
15549TIP3   OH246568   4.363   4.240   8.880
15549TIP3    H146569   4.271   4.225   8.853
15549TIP3    H246570   4.389   4.148   8.900
15550TIP3   OH246571   2.629   5.757   8.823
15550TIP3    H146572   2.558   5.802   8.772
15550TIP3    H246573   2.581   5.739   8.905
15551TIP3   OH246574   2.865   5.731   8.681
15551TIP3    H146575   2.780   5.747   8.729
15551TIP3    H246576   2.842   5.761   8.591
15552TIP3   OH246577   3.285   5.750   8.476
15552TIP3    H146578   3.216   5.767   8.410
15552TIP3    H246579   3.296   5.838   8.517
15553TIP3   OH246580   3.554   5.691   8.528
15553TIP3    H146581   3.460   5.709   8.506
15553TIP3    H246582   3.598   5.765   8.483
15554TIP3   OH246583   3.759   5.880   8.439
15554TIP3    H146584   3.748   5.965   8.392
15554TIP3    H246585   3.785   5.820   8.366
15555TIP3   OH246586   2.536   5.541   8.555
15555TIP3    H146587   2.563   5.518   8.647
15555TIP3    H246588   2.609   5.499   8.506
15556TIP3   OH246589   2.734   5.410   8.423
15556TIP3    H146590   2.749   5.324   8.468
15556TIP3    H246591   2.825   5.445   8.417
15557TIP3   OH246592   3.001   5.504   8.425
15557TIP3    H146593   3.029   5.411   8.417
15557TIP3    H246594   3.045   5.525   8.510
15558TIP3   OH246595   3.584   4.157   8.533
15558TIP3    H146596   3.523   4.087   8.562
15558TIP3    H246597   3.646   4.109   8.474
15559TIP3   OH246598   4.089   4.050   8.420
15559TIP3    H146599   4.126   4.096   8.341
15559TIP3    H246600   3.993   4.060   8.406
15560TIP3   OH246601   4.188   4.138   8.180
15560TIP3    H146602   4.263   4.086   8.143
15560TIP3    H246603   4.222   4.229   8.166
15561TIP3   OH246604   2.841   3.879   8.516
15561TIP3    H146605   2.748   3.874   8.489
15561TIP3    H246606   2.870   3.786   8.512
15562TIP3   OH246607   2.628   3.740   8.178
15562TIP3    H146608   2.653   3.789   8.096
15562TIP3    H246609   2.568   3.805   8.219
15563TIP3   OH246610   3.274   3.897   8.412
15563TIP3    H146611   3.324   3.950   8.347
15563TIP3    H246612   3.309   3.932   8.497
15564TIP3   OH246613   3.810   4.048   8.386
15564TIP3    H146614   3.809   4.010   8.297
15564TIP3    H246615   3.789   3.968   8.439
15565TIP3   OH246616   3.842   3.975   7.955
15565TIP3    H146617   3.757   4.019   7.972
15565TIP3    H246618   3.827   3.888   7.999
15566TIP3   OH246619   2.322   5.317   7.951
15566TIP3    H146620   2.238   5.280   7.919
15566TIP3    H246621   2.311   5.409   7.921
15567TIP3   OH246622   2.731   3.884   7.946
15567TIP3    H146623   2.778   3.832   7.878
15567TIP3    H246624   2.800   3.946   7.976
15568TIP3   OH246625   3.233   4.078   8.037
15568TIP3    H146626   3.296   4.030   8.094
15568TIP3    H246627   3.257   4.170   8.061
15569TIP3   OH246628   3.096   5.495   7.534
15569TIP3    H146629   3.184   5.517   7.498
15569TIP3    H246630   3.074   5.419   7.475
15570TIP3   OH246631   3.821   5.619   7.632
15570TIP3    H146632   3.814   5.521   7.621
15570TIP3    H246633   3.772   5.648   7.552
15571TIP3   OH246634   2.410   5.342   7.594
15571TIP3    H146635   2.409   5.337   7.691
15571TIP3    H246636   2.493   5.294   7.572
15572TIP3   OH246637   4.042   5.766   8.805
15572TIP3    H146638   3.962   5.738   8.756
15572TIP3    H246639   4.024   5.861   8.816
15573TIP3   OH246640   5.310   5.136   7.579
15573TIP3    H146641   5.277   5.226   7.556
15573TIP3    H246642   5.236   5.083   7.545
15574TIP3   OH246643   5.306   5.137   7.973
15574TIP3    H146644   5.345   5.111   8.058
15574TIP3    H246645   5.268   5.053   7.941
15575TIP3   OH246646   4.606   5.019   8.330
15575TIP3    H146647   4.630   4.954   8.398
15575TIP3    H246648   4.692   5.059   8.312
15576TIP3   OH246649   5.556   5.439   7.649
15576TIP3    H146650   5.538   5.370   7.715
15576TIP3    H246651   5.586   5.513   7.703
15577TIP3   OH246652   4.286   4.641   7.833
15577TIP3    H146653   4.235   4.722   7.851
15577TIP3    H246654   4.217   4.588   7.789
15578TIP3   OH246655   4.345   4.929   8.018
15578TIP3    H146656   4.393   4.850   8.050
15578TIP3    H246657   4.399   4.956   7.942
15579TIP3   OH246658   5.206   5.898   7.666
15579TIP3    H146659   5.245   5.827   7.610
15579TIP3    H246660   5.200   5.854   7.751
15580TIP3   OH246661   5.107   5.361   8.012
15580TIP3    H146662   5.149   5.283   7.971
15580TIP3    H246663   5.188   5.409   8.037
15581TIP3   OH246664   6.123   4.681   8.009
15581TIP3    H146665   6.154   4.764   8.051
15581TIP3    H246666   6.147   4.697   7.916
15582TIP3   OH246667   5.520   4.861   8.040
15582TIP3    H146668   5.563   4.777   8.063
15582TIP3    H246669   5.487   4.842   7.950
15583TIP3   OH246670   4.862   4.521   8.007
15583TIP3    H146671   4.841   4.593   7.943
15583TIP3    H246672   4.813   4.447   7.964
15584TIP3   OH246673   5.554   4.613   7.626
15584TIP3    H146674   5.624   4.599   7.694
15584TIP3    H246675   5.608   4.647   7.553
15585TIP3   OH246676   4.491   4.720   8.117
15585TIP3    H146677   4.574   4.701   8.164
15585TIP3    H246678   4.505   4.666   8.036
15586TIP3   OH246679   4.927   4.919   7.920
15586TIP3    H146680   5.023   4.896   7.928
15586TIP3    H246681   4.890   4.836   7.883
15587TIP3   OH246682   6.198   4.892   8.176
15587TIP3    H146683   6.111   4.934   8.158
15587TIP3    H246684   6.202   4.902   8.272
15588TIP3   OH246685   4.855   4.503   8.442
15588TIP3    H146686   4.795   4.539   8.374
15588TIP3    H246687   4.802   4.518   8.523
15589TIP3   OH246688   5.192   5.353   7.451
15589TIP3    H146689   5.157   5.342   7.361
15589TIP3    H246690   5.148   5.436   7.479
15590TIP3   OH246691   4.969   5.280   8.230
15590TIP3    H146692   4.899   5.344   8.243
15590TIP3    H246693   5.019   5.320   8.154
15591TIP3   OH246694   5.755   4.622   7.806
15591TIP3    H146695   5.747   4.570   7.888
15591TIP3    H246696   5.808   4.698   7.836
15592TIP3   OH246697   4.727   4.618   8.225
15592TIP3    H146698   4.789   4.690   8.251
15592TIP3    H246699   4.777   4.578   8.151
15593TIP3   OH246700   4.178   5.165   7.570
15593TIP3    H146701   4.137   5.187   7.483
15593TIP3    H246702   4.209   5.252   7.600
15594TIP3   OH246703   5.621   5.683   7.811
15594TIP3    H146704   5.531   5.674   7.850
15594TIP3    H246705   5.613   5.769   7.766
15595TIP3   OH246706   5.914   4.587   8.175
15595TIP3    H146707   5.826   4.610   8.140
15595TIP3    H246708   5.975   4.617   8.104
15596TIP3   OH246709   5.202   4.219   8.156
15596TIP3    H146710   5.190   4.125   8.179
15596TIP3    H246711   5.126   4.259   8.204
15597TIP3   OH246712   5.316   5.725   7.479
15597TIP3    H146713   5.367   5.642   7.462
15597TIP3    H246714   5.380   5.790   7.441
15598TIP3   OH246715   5.463   5.510   7.399
15598TIP3    H146716   5.434   5.428   7.356
15598TIP3    H246717   5.502   5.476   7.482
15599TIP3   OH246718   5.850   5.589   8.157
15599TIP3    H146719   5.836   5.513   8.097
15599TIP3    H246720   5.830   5.665   8.098
15600TIP3   OH246721   5.140   4.987   7.416
15600TIP3    H146722   5.060   5.040   7.395
15600TIP3    H246723   5.185   4.983   7.330
15601TIP3   OH246724   5.098   4.774   7.126
15601TIP3    H146725   5.165   4.826   7.173
15601TIP3    H246726   5.155   4.711   7.078
15602TIP3   OH246727   6.043   5.236   8.005
15602TIP3    H146728   5.957   5.284   8.007
15602TIP3    H246729   6.072   5.256   7.914
15603TIP3   OH246730   5.488   5.070   7.383
15603TIP3    H146731   5.434   5.094   7.461
15603TIP3    H246732   5.573   5.045   7.426
15604TIP3   OH246733   5.721   5.107   8.303
15604TIP3    H146734   5.715   5.190   8.354
15604TIP3    H246735   5.635   5.109   8.256
15605TIP3   OH246736   4.720   5.067   7.803
15605TIP3    H146737   4.677   5.008   7.737
15605TIP3    H246738   4.794   5.011   7.835
15606TIP3   OH246739   4.852   5.486   7.957
15606TIP3    H146740   4.821   5.444   7.876
15606TIP3    H246741   4.941   5.447   7.967
15607TIP3   OH246742   4.853   5.037   8.161
15607TIP3    H146743   4.883   5.005   8.073
15607TIP3    H246744   4.908   5.117   8.174
15608TIP3   OH246745   5.380   5.676   7.934
15608TIP3    H146746   5.367   5.756   7.987
15608TIP3    H246747   5.364   5.603   7.997
15609TIP3   OH246748   4.984   5.598   8.478
15609TIP3    H146749   4.931   5.667   8.522
15609TIP3    H246750   4.930   5.520   8.496
15610TIP3   OH246751   5.324   4.928   7.212
15610TIP3    H146752   5.384   4.988   7.261
15610TIP3    H246753   5.351   4.947   7.119
15611TIP3   OH246754   4.751   5.160   8.575
15611TIP3    H146755   4.754   5.239   8.633
15611TIP3    H246756   4.659   5.130   8.592
15612TIP3   OH246757   5.070   5.605   7.490
15612TIP3    H146758   5.155   5.653   7.494
15612TIP3    H246759   5.014   5.665   7.440
15613TIP3   OH246760   4.781   5.761   8.576
15613TIP3    H146761   4.734   5.826   8.523
15613TIP3    H246762   4.711   5.733   8.639
15614TIP3   OH246763   5.838   4.161   7.261
15614TIP3    H146764   5.760   4.190   7.313
15614TIP3    H246765   5.857   4.243   7.210
15615TIP3   OH246766   4.584   4.911   7.610
15615TIP3    H146767   4.516   4.953   7.554
15615TIP3    H246768   4.551   4.820   7.616
15616TIP3   OH246769   5.643   5.533   6.811
15616TIP3    H146770   5.651   5.629   6.794
15616TIP3    H246771   5.736   5.504   6.797
15617TIP3   OH246772   4.379   5.302   8.507
15617TIP3    H146773   4.304   5.277   8.450
15617TIP3    H246774   4.413   5.214   8.536
15618TIP3   OH246775   4.226   5.495   8.178
15618TIP3    H146776   4.265   5.509   8.092
15618TIP3    H246777   4.174   5.576   8.193
15619TIP3   OH246778   6.082   5.946   8.203
15619TIP3    H146779   6.084   5.849   8.214
15619TIP3    H246780   5.997   5.967   8.249
15620TIP3   OH246781   5.193   5.720   8.341
15620TIP3    H146782   5.187   5.814   8.370
15620TIP3    H246783   5.117   5.681   8.387
15621TIP3   OH246784   4.955   5.846   7.292
15621TIP3    H146785   4.910   5.828   7.207
15621TIP3    H246786   4.921   5.935   7.315
15622TIP3   OH246787   4.392   5.701   7.680
15622TIP3    H146788   4.428   5.689   7.770
15622TIP3    H246789   4.342   5.617   7.668
15623TIP3   OH246790   5.153   5.754   6.927
15623TIP3    H146791   5.211   5.683   6.891
15623TIP3    H246792   5.189   5.764   7.018
15624TIP3   OH246793   5.206   5.803   7.197
15624TIP3    H146794   5.118   5.811   7.239
15624TIP3    H246795   5.258   5.766   7.270
15625TIP3   OH246796   5.975   5.069   8.476
15625TIP3    H146797   5.889   5.074   8.431
15625TIP3    H246798   5.993   4.973   8.470
15626TIP3   OH246799   4.593   5.470   8.480
15626TIP3    H146800   4.642   5.461   8.565
15626TIP3    H246801   4.516   5.410   8.500
15627TIP3   OH246802   4.969   4.298   8.290
15627TIP3    H146803   4.881   4.268   8.260
15627TIP3    H246804   4.942   4.377   8.340
15628TIP3   OH246805   5.506   4.410   8.479
15628TIP3    H146806   5.577   4.383   8.541
15628TIP3    H246807   5.425   4.391   8.530
15629TIP3   OH246808   5.740   4.844   8.403
15629TIP3    H146809   5.690   4.840   8.487
15629TIP3    H246810   5.715   4.932   8.367
15630TIP3   OH246811   5.405   4.967   6.958
15630TIP3    H146812   5.367   4.948   6.870
15630TIP3    H246813   5.489   5.010   6.932
15631TIP3   OH246814   5.117   4.343   7.262
15631TIP3    H146815   5.081   4.340   7.352
15631TIP3    H246816   5.073   4.264   7.224
15632TIP3   OH246817   4.902   4.814   8.309
15632TIP3    H146818   4.853   4.835   8.391
15632TIP3    H246819   4.886   4.896   8.257
15633TIP3   OH246820   4.785   4.703   7.820
15633TIP3    H146821   4.693   4.675   7.839
15633TIP3    H246822   4.797   4.661   7.732
15634TIP3   OH246823   5.276   4.786   7.551
15634TIP3    H146824   5.226   4.857   7.505
15634TIP3    H246825   5.331   4.751   7.478
15635TIP3   OH246826   5.453   5.063   8.634
15635TIP3    H146827   5.429   4.989   8.694
15635TIP3    H246828   5.548   5.073   8.656
15636TIP3   OH246829   5.432   4.811   7.784
15636TIP3    H146830   5.369   4.837   7.714
15636TIP3    H246831   5.469   4.732   7.741
15637TIP3   OH246832   4.721   4.841   8.519
15637TIP3    H146833   4.760   4.896   8.588
15637TIP3    H246834   4.710   4.755   8.566
15638TIP3   OH246835   4.776   4.323   7.225
15638TIP3    H146836   4.762   4.322   7.322
15638TIP3    H246837   4.697   4.373   7.196
15639TIP3   OH246838   4.314   4.362   8.099
15639TIP3    H146839   4.390   4.395   8.150
15639TIP3    H246840   4.353   4.333   8.015
15640TIP3   OH246841   4.278   4.344   7.615
15640TIP3    H146842   4.323   4.381   7.536
15640TIP3    H246843   4.216   4.417   7.633
15641TIP3   OH246844   5.443   5.058   8.207
15641TIP3    H146845   5.477   4.987   8.147
15641TIP3    H246846   5.414   5.002   8.283
15642TIP3   OH246847   5.119   4.524   7.880
15642TIP3    H146848   5.039   4.522   7.937
15642TIP3    H246849   5.191   4.511   7.945
15643TIP3   OH246850   4.547   4.580   7.887
15643TIP3    H146851   4.453   4.587   7.858
15643TIP3    H246852   4.570   4.488   7.865
15644TIP3   OH246853   4.811   4.574   7.581
15644TIP3    H146854   4.905   4.589   7.558
15644TIP3    H246855   4.764   4.596   7.496
15645TIP3   OH246856   5.607   4.601   8.086
15645TIP3    H146857   5.575   4.613   8.178
15645TIP3    H246858   5.542   4.539   8.051
15646TIP3   OH246859   4.664   4.612   7.355
15646TIP3    H146860   4.595   4.564   7.307
15646TIP3    H246861   4.716   4.648   7.280
15647TIP3   OH246862   5.774   6.284   8.302
15647TIP3    H146863   5.770   6.316   8.210
15647TIP3    H246864   5.857   6.326   8.333
15648TIP3   OH246865   4.738   5.412   8.715
15648TIP3    H146866   4.814   5.432   8.772
15648TIP3    H246867   4.668   5.402   8.783
15649TIP3   OH246868   5.194   4.855   7.980
15649TIP3    H146869   5.266   4.812   7.932
15649TIP3    H246870   5.197   4.809   8.067
15650TIP3   OH246871   4.713   4.337   7.864
15650TIP3    H146872   4.676   4.261   7.913
15650TIP3    H246873   4.758   4.293   7.790
15651TIP3   OH246874   5.172   4.756   8.261
15651TIP3    H146875   5.082   4.787   8.282
15651TIP3    H246876   5.229   4.814   8.315
15652TIP3   OH246877   4.907   5.139   7.363
15652TIP3    H146878   4.836   5.072   7.351
15652TIP3    H246879   4.884   5.173   7.453
15653TIP3   OH246880   5.806   5.376   7.989
15653TIP3    H146881   5.830   5.426   7.908
15653TIP3    H246882   5.722   5.332   7.961
15654TIP3   OH246883   5.367   4.447   7.231
15654TIP3    H146884   5.271   4.427   7.240
15654TIP3    H246885   5.373   4.541   7.255
15655TIP3   OH246886   5.299   5.453   8.364
15655TIP3    H146887   5.347   5.440   8.446
15655TIP3    H246888   5.274   5.547   8.367
15656TIP3   OH246889   5.433   4.699   7.333
15656TIP3    H146890   5.530   4.705   7.347
15656TIP3    H246891   5.414   4.779   7.281
15657TIP3   OH246892   4.610   5.171   8.041
15657TIP3    H146893   4.642   5.143   7.953
15657TIP3    H246894   4.647   5.103   8.099
15658TIP3   OH246895   5.056   5.288   7.190
15658TIP3    H146896   5.007   5.374   7.192
15658TIP3    H246897   5.001   5.233   7.249
15659TIP3   OH246898   4.485   5.087   8.646
15659TIP3    H146899   4.505   5.073   8.741
15659TIP3    H246900   4.416   5.021   8.631
15660TIP3   OH246901   5.213   5.199   8.670
15660TIP3    H146902   5.152   5.134   8.631
15660TIP3    H246903   5.300   5.161   8.643
15661TIP3   OH246904   5.466   5.713   8.260
15661TIP3    H146905   5.370   5.716   8.271
15661TIP3    H246906   5.495   5.770   8.335
15662TIP3   OH246907   5.874   4.793   7.165
15662TIP3    H146908   5.813   4.749   7.101
15662TIP3    H246909   5.871   4.883   7.126
15663TIP3   OH246910   6.100   5.655   8.242
15663TIP3    H146911   6.003   5.645   8.236
15663TIP3    H246912   6.126   5.622   8.153
15664TIP3   OH246913   5.583   5.609   7.076
15664TIP3    H146914   5.551   5.538   7.134
15664TIP3    H246915   5.593   5.563   6.990
15665TIP3   OH246916   5.573   5.238   7.904
15665TIP3    H146917   5.480   5.214   7.918
15665TIP3    H246918   5.607   5.157   7.861
15666TIP3   OH246919   4.688   5.477   7.685
15666TIP3    H146920   4.699   5.553   7.624
15666TIP3    H246921   4.613   5.432   7.644
15667TIP3   OH246922   4.271   4.767   7.374
15667TIP3    H146923   4.314   4.853   7.395
15667TIP3    H246924   4.192   4.771   7.432
15668TIP3   OH246925   4.827   5.234   7.605
15668TIP3    H146926   4.806   5.323   7.637
15668TIP3    H246927   4.797   5.178   7.679
15669TIP3   OH246928   4.974   5.807   8.117
15669TIP3    H146929   5.021   5.881   8.074
15669TIP3    H246930   5.043   5.771   8.174
15670TIP3   OH246931   4.622   5.707   7.517
15670TIP3    H146932   4.536   5.718   7.562
15670TIP3    H246933   4.656   5.799   7.518
15671TIP3   OH246934   5.355   5.444   8.094
15671TIP3    H146935   5.344   5.439   8.191
15671TIP3    H246936   5.434   5.389   8.080
15672TIP3   OH246937   5.339   5.340   6.976
15672TIP3    H146938   5.390   5.314   7.055
15672TIP3    H246939   5.251   5.308   7.000
15673TIP3   OH246940   5.608   5.973   8.140
15673TIP3    H146941   5.526   5.920   8.133
15673TIP3    H246942   5.593   6.039   8.069
15674TIP3   OH246943   5.673   5.808   6.792
15674TIP3    H146944   5.703   5.879   6.733
15674TIP3    H246945   5.594   5.852   6.830
15675TIP3   OH246946   4.693   4.585   8.652
15675TIP3    H146947   4.596   4.579   8.666
15675TIP3    H246948   4.726   4.535   8.728
15676TIP3   OH246949   5.499   5.272   7.192
15676TIP3    H146950   5.488   5.204   7.261
15676TIP3    H246951   5.596   5.267   7.178
15677TIP3   OH246952   4.700   5.316   6.976
15677TIP3    H146953   4.711   5.223   6.948
15677TIP3    H246954   4.676   5.304   7.070
15678TIP3   OH246955   4.642   5.322   7.249
15678TIP3    H146956   4.722   5.295   7.296
15678TIP3    H246957   4.647   5.420   7.255
15679TIP3   OH246958   4.379   5.014   7.452
15679TIP3    H146959   4.310   5.058   7.507
15679TIP3    H246960   4.391   5.081   7.382
15680TIP3   OH246961   5.532   4.651   8.346
15680TIP3    H146962   5.614   4.688   8.384
15680TIP3    H246963   5.520   4.568   8.398
15681TIP3   OH246964   5.418   4.395   7.513
15681TIP3    H146965   5.403   4.419   7.419
15681TIP3    H246966   5.457   4.478   7.549
15682TIP3   OH246967   4.913   5.517   7.197
15682TIP3    H146968   4.825   5.544   7.232
15682TIP3    H246969   4.928   5.588   7.132
15683TIP3   OH246970   5.095   4.585   7.611
15683TIP3    H146971   5.160   4.657   7.595
15683TIP3    H246972   5.103   4.573   7.708
15684TIP3   OH246973   5.373   4.897   8.415
15684TIP3    H146974   5.398   4.945   8.496
15684TIP3    H246975   5.424   4.814   8.423
15685TIP3   OH246976   5.242   4.302   7.710
15685TIP3    H146977   5.242   4.377   7.772
15685TIP3    H246978   5.306   4.335   7.642
15686TIP3   OH246979   4.659   5.594   7.266
15686TIP3    H146980   4.629   5.663   7.202
15686TIP3    H246981   4.643   5.639   7.352
15687TIP3   OH246982   4.756   4.309   7.501
15687TIP3    H146983   4.752   4.398   7.540
15687TIP3    H246984   4.852   4.292   7.509
15688TIP3   OH246985   6.006   4.801   8.392
15688TIP3    H146986   5.909   4.803   8.405
15688TIP3    H246987   6.010   4.738   8.318
15689TIP3   OH246988   5.659   4.994   7.786
15689TIP3    H146989   5.583   4.934   7.798
15689TIP3    H246990   5.730   4.946   7.834
15690TIP3   OH246991   4.376   5.217   7.255
15690TIP3    H146992   4.449   5.281   7.261
15690TIP3    H246993   4.415   5.157   7.188
15691TIP3   OH246994   4.314   4.496   7.391
15691TIP3    H146995   4.315   4.594   7.389
15691TIP3    H246996   4.236   4.476   7.337
15692TIP3   OH246997   5.630   5.952   7.732
15692TIP3    H146998   5.587   6.000   7.658
15692TIP3    H246999   5.724   5.970   7.711
15693TIP3   OH247000   4.704   4.220   8.259
15693TIP3    H147001   4.674   4.184   8.172
15693TIP3    H247002   4.694   4.142   8.317
15694TIP3   OH247003   4.246   5.448   7.639
15694TIP3    H147004   4.176   5.470   7.702
15694TIP3    H247005   4.209   5.486   7.556
15695TIP3   OH247006   4.405   5.988   8.710
15695TIP3    H147007   4.488   5.992   8.762
15695TIP3    H247008   4.382   5.894   8.719
15696TIP3   OH247009   4.887   5.939   8.766
15696TIP3    H147010   4.983   5.924   8.769
15696TIP3    H247011   4.861   5.875   8.697
15697TIP3   OH247012   4.864   5.518   6.886
15697TIP3    H147013   4.809   5.444   6.922
15697TIP3    H247014   4.938   5.469   6.847
15698TIP3   OH247015   5.520   5.854   8.490
15698TIP3    H147016   5.515   5.781   8.556
15698TIP3    H247017   5.598   5.904   8.521
15699TIP3   OH247018   5.298   5.556   6.799
15699TIP3    H147019   5.338   5.490   6.859
15699TIP3    H247020   5.355   5.552   6.720
15700TIP3   OH247021   4.536   5.385   8.905
15700TIP3    H147022   4.555   5.290   8.916
15700TIP3    H247023   4.446   5.384   8.866
15701TIP3   OH247024   4.510   5.032   7.111
15701TIP3    H147025   4.568   5.001   7.183
15701TIP3    H247026   4.575   5.037   7.038
15702TIP3   OH247027   5.140   5.470   8.688
15702TIP3    H147028   5.118   5.485   8.595
15702TIP3    H247029   5.175   5.378   8.685
15703TIP3   OH247030   5.031   5.236   6.920
15703TIP3    H147031   5.029   5.246   7.017
15703TIP3    H247032   5.029   5.138   6.912
15704TIP3   OH247033   5.631   5.488   8.298
15704TIP3    H147034   5.709   5.526   8.252
15704TIP3    H247035   5.564   5.557   8.279
15705TIP3   OH247036   4.663   5.129   8.883
15705TIP3    H147037   4.705   5.043   8.893
15705TIP3    H247038   4.678   5.163   8.974
15706TIP3   OH247039   4.716   4.942   7.328
15706TIP3    H147040   4.687   4.898   7.410
15706TIP3    H247041   4.754   4.867   7.277
15707TIP3   OH247042   4.982   5.004   8.556
15707TIP3    H147043   4.907   5.067   8.556
15707TIP3    H247044   5.036   5.038   8.481
15708TIP3   OH247045   4.820   4.739   7.168
15708TIP3    H147046   4.794   4.746   7.074
15708TIP3    H247047   4.918   4.740   7.161
15709TIP3   OH247048   5.507   5.405   8.690
15709TIP3    H147049   5.577   5.364   8.638
15709TIP3    H247050   5.499   5.342   8.765
15710TIP3   OH247051   5.637   5.063   6.838
15710TIP3    H147052   5.617   5.019   6.753
15710TIP3    H247053   5.604   5.153   6.818
15711TIP3   OH247054   5.111   4.794   8.679
15711TIP3    H147055   5.111   4.715   8.623
15711TIP3    H247056   5.064   4.860   8.624
15712TIP3   OH247057   5.113   4.582   8.490
15712TIP3    H147058   5.141   4.620   8.405
15712TIP3    H247059   5.020   4.558   8.471
15713TIP3   OH247060   5.137   5.111   8.365
15713TIP3    H147061   5.226   5.120   8.327
15713TIP3    H247062   5.087   5.180   8.317
15714TIP3   OH247063   5.715   5.081   8.743
15714TIP3    H147064   5.752   5.007   8.795
15714TIP3    H247065   5.795   5.118   8.702
15715TIP3   OH247066   5.758   5.342   8.486
15715TIP3    H147067   5.702   5.396   8.426
15715TIP3    H247068   5.847   5.359   8.448
15716TIP3   OH247069   4.995   4.902   8.917
15716TIP3    H147070   4.915   4.847   8.931
15716TIP3    H247071   5.026   4.869   8.830
15717TIP3   OH247072   5.244   4.343   8.564
15717TIP3    H147073   5.194   4.424   8.541
15717TIP3    H247074   5.175   4.274   8.553
15718TIP3   OH247075   5.368   4.847   8.775
15718TIP3    H147076   5.352   4.829   8.870
15718TIP3    H247077   5.280   4.822   8.740
15719TIP3   OH247078   5.606   4.796   8.630
15719TIP3    H147079   5.535   4.796   8.697
15719TIP3    H247080   5.684   4.766   8.682
15720TIP3   OH247081   5.844   4.732   8.764
15720TIP3    H147082   5.853   4.638   8.790
15720TIP3    H247083   5.833   4.778   8.850
15721TIP3   OH247084   4.823   4.681   8.942
15721TIP3    H147085   4.832   4.588   8.917
15721TIP3    H247086   4.864   4.678   9.031
15722TIP3   OH247087   5.333   4.350   8.822
15722TIP3    H147088   5.404   4.284   8.816
15722TIP3    H247089   5.298   4.347   8.731
15723TIP3   OH247090   5.408   4.571   8.972
15723TIP3    H147091   5.385   4.499   8.910
15723TIP3    H247092   5.328   4.628   8.967
15724TIP3   OH247093   4.629   5.798   7.081
15724TIP3    H147094   4.724   5.788   7.058
15724TIP3    H247095   4.599   5.848   7.002
15725TIP3   OH247096   4.106   5.177   7.294
15725TIP3    H147097   4.201   5.198   7.275
15725TIP3    H247098   4.097   5.090   7.250
15726TIP3   OH247099   4.022   5.792   7.706
15726TIP3    H147100   3.956   5.733   7.664
15726TIP3    H247101   4.069   5.729   7.764
15727TIP3   OH247102   4.159   5.635   7.890
15727TIP3    H147103   4.106   5.582   7.951
15727TIP3    H247104   4.203   5.700   7.949
15728TIP3   OH247105   5.887   6.035   7.696
15728TIP3    H147106   5.910   6.072   7.783
15728TIP3    H247107   5.946   6.084   7.637
15729TIP3   OH247108   5.910   6.058   7.978
15729TIP3    H147109   5.864   5.971   7.971
15729TIP3    H247110   5.986   6.031   8.033
15730TIP3   OH247111   5.960   5.739   8.552
15730TIP3    H147112   5.883   5.752   8.610
15730TIP3    H247113   6.002   5.828   8.553
15731TIP3   OH247114   5.777   5.249   7.168
15731TIP3    H147115   5.842   5.315   7.138
15731TIP3    H247116   5.822   5.212   7.247
15732TIP3   OH247117   5.904   5.117   7.373
15732TIP3    H147118   5.836   5.076   7.431
15732TIP3    H247119   5.968   5.153   7.438
15733TIP3   OH247120   5.962   5.514   7.805
15733TIP3    H147121   6.013   5.444   7.759
15733TIP3    H247122   5.958   5.585   7.738
15734TIP3   OH247123   5.786   5.809   7.999
15734TIP3    H147124   5.713   5.852   8.048
15734TIP3    H247125   5.738   5.764   7.926
15735TIP3   OH247126   5.841   5.027   7.017
15735TIP3    H147127   5.769   5.028   6.950
15735TIP3    H247128   5.812   5.102   7.072
15736TIP3   OH247129   5.712   4.699   6.969
15736TIP3    H147130   5.664   4.733   6.892
15736TIP3    H247131   5.690   4.603   6.962
15737TIP3   OH247132   5.715   4.977   7.517
15737TIP3    H147133   5.723   4.881   7.509
15737TIP3    H247134   5.700   4.989   7.614
15738TIP3   OH247135   4.341   5.049   8.266
15738TIP3    H147136   4.338   5.014   8.175
15738TIP3    H247137   4.439   5.047   8.282
15739TIP3   OH247138   6.008   5.402   8.380
15739TIP3    H147139   6.077   5.333   8.367
15739TIP3    H247140   6.026   5.463   8.307
15740TIP3   OH247141   6.191   5.203   8.383
15740TIP3    H147142   6.116   5.152   8.419
15740TIP3    H247143   6.264   5.139   8.401
15741TIP3   OH247144   5.655   4.433   6.954
15741TIP3    H147145   5.726   4.399   7.011
15741TIP3    H247146   5.580   4.374   6.973
15742TIP3   OH247147   5.714   4.693   7.408
15742TIP3    H147148   5.755   4.604   7.423
15742TIP3    H247149   5.772   4.725   7.337
15743TIP3   OH247150   5.872   4.861   7.907
15743TIP3    H147151   5.957   4.886   7.865
15743TIP3    H247152   5.887   4.898   7.996
15744TIP3   OH247153   5.945   5.010   8.134
15744TIP3    H147154   5.869   5.042   8.186
15744TIP3    H247155   5.978   5.092   8.092
15745TIP3   OH247156   4.555   4.732   8.913
15745TIP3    H147157   4.653   4.741   8.925
15745TIP3    H247158   4.540   4.653   8.969
15746TIP3   OH247159   6.387   4.607   8.688
15746TIP3    H147160   6.454   4.542   8.656
15746TIP3    H247161   6.365   4.656   8.606
15747TIP3   OH247162   5.821   4.442   7.449
15747TIP3    H147163   5.869   4.426   7.533
15747TIP3    H247164   5.759   4.365   7.449
15748TIP3   OH247165   4.521   4.429   8.273
15748TIP3    H147166   4.581   4.352   8.280
15748TIP3    H247167   4.585   4.501   8.262
15749TIP3   OH247168   4.321   4.700   8.341
15749TIP3    H147169   4.370   4.693   8.256
15749TIP3    H247170   4.355   4.783   8.375
15750TIP3   OH247171   6.263   4.741   8.485
15750TIP3    H147172   6.178   4.781   8.510
15750TIP3    H247173   6.231   4.663   8.435
15751TIP3   OH247174   5.898   4.370   7.087
15751TIP3    H147175   5.938   4.302   7.028
15751TIP3    H247176   5.964   4.442   7.083
15752TIP3   OH247177   4.308   4.206   7.845
15752TIP3    H147178   4.215   4.197   7.872
15752TIP3    H247179   4.302   4.263   7.766
15753TIP3   OH247180   5.466   5.909   7.350
15753TIP3    H147181   5.518   5.899   7.268
15753TIP3    H247182   5.517   5.976   7.398
15754TIP3   OH247183   4.532   4.298   8.657
15754TIP3    H147184   4.478   4.270   8.733
15754TIP3    H247185   4.463   4.327   8.595
15755TIP3   OH247186   4.566   5.708   8.737
15755TIP3    H147187   4.471   5.691   8.723
15755TIP3    H247188   4.573   5.692   8.832
15756TIP3   OH247189   5.185   5.989   8.417
15756TIP3    H147190   5.228   5.987   8.505
15756TIP3    H247191   5.250   6.041   8.366
15757TIP3   OH247192   5.366   6.144   8.282
15757TIP3    H147193   5.436   6.096   8.237
15757TIP3    H247194   5.418   6.201   8.343
15758TIP3   OH247195   6.165   4.497   8.379
15758TIP3    H147196   6.075   4.477   8.349
15758TIP3    H247197   6.205   4.407   8.372
15759TIP3   OH247198   4.411   5.983   8.290
15759TIP3    H147199   4.320   6.019   8.281
15759TIP3    H247200   4.437   6.026   8.373
15760TIP3   OH247201   4.659   5.983   8.165
15760TIP3    H147202   4.571   5.993   8.206
15760TIP3    H247203   4.643   6.017   8.075
15761TIP3   OH247204   5.086   6.009   7.962
15761TIP3    H147205   5.017   6.028   7.896
15761TIP3    H247206   5.097   6.096   8.005
15762TIP3   OH247207   5.354   5.945   8.018
15762TIP3    H147208   5.260   5.965   7.996
15762TIP3    H247209   5.400   6.017   7.971
15763TIP3   OH247210   5.554   6.134   7.926
15763TIP3    H147211   5.543   6.220   7.880
15763TIP3    H247212   5.583   6.075   7.852
15764TIP3   OH247213   4.340   5.804   8.042
15764TIP3    H147214   4.374   5.849   8.121
15764TIP3    H247215   4.418   5.755   8.008
15765TIP3   OH247216   4.545   5.654   7.924
15765TIP3    H147217   4.578   5.574   7.880
15765TIP3    H247218   4.625   5.711   7.917
15766TIP3   OH247219   4.796   5.763   7.917
15766TIP3    H147220   4.831   5.673   7.905
15766TIP3    H247221   4.849   5.789   7.996
15767TIP3   OH247222   5.364   4.412   7.991
15767TIP3    H147223   5.327   4.341   8.045
15767TIP3    H247224   5.443   4.369   7.951
15768TIP3   OH247225   5.886   4.296   7.898
15768TIP3    H147226   5.923   4.343   7.819
15768TIP3    H247227   5.791   4.318   7.892
15769TIP3   OH247228   5.986   4.400   7.665
15769TIP3    H147229   6.059   4.345   7.630
15769TIP3    H247230   6.022   4.490   7.649
15770TIP3   OH247231   4.617   4.123   8.012
15770TIP3    H147232   4.524   4.091   8.016
15770TIP3    H247233   4.664   4.038   8.008
15771TIP3   OH247234   4.412   3.998   7.666
15771TIP3    H147235   4.437   4.054   7.590
15771TIP3    H247236   4.381   4.064   7.731
15772TIP3   OH247237   5.065   4.156   7.897
15772TIP3    H147238   5.119   4.205   7.832
15772TIP3    H247239   5.097   4.193   7.981
15773TIP3   OH247240   5.605   4.306   7.872
15773TIP3    H147241   5.624   4.264   7.787
15773TIP3    H247242   5.595   4.226   7.930
15774TIP3   OH247243   5.634   4.230   7.437
15774TIP3    H147244   5.552   4.277   7.463
15774TIP3    H247245   5.628   4.151   7.495
15775TIP3   OH247246   4.120   5.575   7.438
15775TIP3    H147247   4.034   5.539   7.407
15775TIP3    H247248   4.111   5.666   7.404
15776TIP3   OH247249   4.524   4.152   7.425
15776TIP3    H147250   4.571   4.090   7.367
15776TIP3    H247251   4.598   4.206   7.460
15777TIP3   OH247252   5.033   4.333   7.525
15777TIP3    H147253   5.093   4.289   7.587
15777TIP3    H247254   5.052   4.427   7.548
15778TIP3   OH247255   4.895   5.751   7.025
15778TIP3    H147256   4.982   5.775   6.987
15778TIP3    H247257   4.872   5.677   6.964
15779TIP3   OH247258   5.615   5.876   7.119
15779TIP3    H147259   5.608   5.778   7.108
15779TIP3    H247260   5.568   5.907   7.039
15780TIP3   OH247261   4.824   4.400   8.896
15780TIP3    H147262   4.802   4.362   8.983
15780TIP3    H247263   4.923   4.391   8.901
15781TIP3   OH247264   5.088   4.375   8.952
15781TIP3    H147265   5.176   4.361   8.912
15781TIP3    H247266   5.110   4.385   9.047
15782TIP3   OH247267   4.198   5.590   7.076
15782TIP3    H147268   4.203   5.609   7.170
15782TIP3    H247269   4.285   5.545   7.060
15783TIP3   OH247270   5.904   4.464   8.816
15783TIP3    H147271   5.922   4.434   8.908
15783TIP3    H247272   5.994   4.459   8.776
15784TIP3   OH247273   5.834   6.018   8.304
15784TIP3    H147274   5.757   5.987   8.251
15784TIP3    H247275   5.814   6.114   8.307
15785TIP3   OH247276   7.107   5.395   7.064
15785TIP3    H147277   7.076   5.485   7.042
15785TIP3    H247278   7.031   5.342   7.033
15786TIP3   OH247279   7.101   5.391   7.460
15786TIP3    H147280   7.141   5.367   7.545
15786TIP3    H247281   7.061   5.306   7.433
15787TIP3   OH247282   6.401   5.281   7.817
15787TIP3    H147283   6.430   5.212   7.879
15787TIP3    H247284   6.482   5.333   7.810
15788TIP3   OH247285   7.352   5.686   7.124
15788TIP3    H147286   7.335   5.625   7.197
15788TIP3    H247287   7.379   5.767   7.172
15789TIP3   OH247288   6.378   5.697   7.537
15789TIP3    H147289   6.369   5.600   7.537
15789TIP3    H247290   6.475   5.706   7.535
15790TIP3   OH247291   6.083   4.898   7.318
15790TIP3    H147292   6.033   4.979   7.339
15790TIP3    H247293   6.013   4.845   7.277
15791TIP3   OH247294   6.139   5.185   7.504
15791TIP3    H147295   6.189   5.106   7.537
15791TIP3    H247296   6.197   5.217   7.434
15792TIP3   OH247297   7.007   6.153   7.156
15792TIP3    H147298   7.046   6.087   7.095
15792TIP3    H247299   6.992   6.098   7.234
15793TIP3   OH247300   6.901   5.618   7.498
15793TIP3    H147301   6.940   5.539   7.457
15793TIP3    H247302   6.984   5.662   7.525
15794TIP3   OH247303   7.920   4.935   7.498
15794TIP3    H147304   7.947   5.019   7.542
15794TIP3    H247305   7.939   4.956   7.405
15795TIP3   OH247306   7.317   5.118   7.526
15795TIP3    H147307   7.359   5.033   7.549
15795TIP3    H247308   7.283   5.098   7.437
15796TIP3   OH247309   6.659   4.777   7.493
15796TIP3    H147310   6.637   4.849   7.430
15796TIP3    H247311   6.609   4.703   7.451
15797TIP3   OH247312   7.352   4.870   7.114
15797TIP3    H147313   7.422   4.854   7.182
15797TIP3    H247314   7.406   4.904   7.041
15798TIP3   OH247315   6.289   4.978   7.603
15798TIP3    H147316   6.371   4.958   7.651
15798TIP3    H247317   6.302   4.922   7.523
15799TIP3   OH247318   6.726   5.176   7.401
15799TIP3    H147319   6.820   5.152   7.413
15799TIP3    H247320   6.688   5.092   7.368
15800TIP3   OH247321   7.977   5.152   7.655
15800TIP3    H147322   7.890   5.196   7.649
15800TIP3    H247323   7.995   5.160   7.750
15801TIP3   OH247324   6.651   4.761   7.931
15801TIP3    H147325   6.591   4.797   7.863
15801TIP3    H247326   6.598   4.776   8.011
15802TIP3   OH247327   7.002   5.618   6.928
15802TIP3    H147328   6.951   5.595   6.849
15802TIP3    H247329   6.951   5.696   6.960
15803TIP3   OH247330   6.758   5.538   7.719
15803TIP3    H147331   6.695   5.605   7.754
15803TIP3    H247332   6.798   5.585   7.643
15804TIP3   OH247333   7.553   4.875   7.296
15804TIP3    H147334   7.532   4.833   7.381
15804TIP3    H247335   7.602   4.954   7.325
15805TIP3   OH247336   6.524   4.875   7.712
15805TIP3    H147337   6.587   4.947   7.737
15805TIP3    H247338   6.574   4.835   7.638
15806TIP3   OH247339   6.582   5.730   7.819
15806TIP3    H147340   6.559   5.820   7.786
15806TIP3    H247341   6.504   5.713   7.875
15807TIP3   OH247342   5.975   5.423   7.057
15807TIP3    H147343   5.934   5.449   6.973
15807TIP3    H247344   6.007   5.509   7.092
15808TIP3   OH247345   7.407   5.911   7.265
15808TIP3    H147346   7.327   5.904   7.322
15808TIP3    H247347   7.408   6.008   7.251
15809TIP3   OH247348   7.712   4.833   7.662
15809TIP3    H147349   7.626   4.864   7.631
15809TIP3    H247350   7.773   4.867   7.593
15810TIP3   OH247351   7.001   4.475   7.646
15810TIP3    H147352   6.986   4.380   7.667
15810TIP3    H247353   6.924   4.515   7.693
15811TIP3   OH247354   7.115   5.986   6.962
15811TIP3    H147355   7.166   5.903   6.952
15811TIP3    H247356   7.184   6.050   6.931
15812TIP3   OH247357   7.264   5.767   6.878
15812TIP3    H147358   7.202   5.694   6.862
15812TIP3    H247359   7.307   5.736   6.961
15813TIP3   OH247360   6.936   5.243   6.903
15813TIP3    H147361   6.855   5.294   6.883
15813TIP3    H247362   6.980   5.239   6.816
15814TIP3   OH247363   6.893   5.032   6.611
15814TIP3    H147364   6.961   5.082   6.660
15814TIP3    H247365   6.950   4.968   6.564
15815TIP3   OH247366   7.846   5.486   7.476
15815TIP3    H147367   7.763   5.532   7.503
15815TIP3    H247368   7.863   5.533   7.393
15816TIP3   OH247369   7.285   5.328   6.868
15816TIP3    H147370   7.230   5.352   6.946
15816TIP3    H247371   7.368   5.302   6.913
15817TIP3   OH247372   7.512   5.379   7.774
15817TIP3    H147373   7.507   5.476   7.783
15817TIP3    H247374   7.421   5.362   7.741
15818TIP3   OH247375   6.517   5.322   7.288
15818TIP3    H147376   6.475   5.263   7.222
15818TIP3    H247377   6.592   5.267   7.320
15819TIP3   OH247378   6.649   5.740   7.433
15819TIP3    H147379   6.624   5.704   7.347
15819TIP3    H247380   6.736   5.698   7.449
15820TIP3   OH247381   6.650   5.293   7.646
15820TIP3    H147382   6.682   5.266   7.557
15820TIP3    H247383   6.694   5.379   7.660
15821TIP3   OH247384   7.177   5.914   7.410
15821TIP3    H147385   7.155   5.997   7.456
15821TIP3    H247386   7.162   5.846   7.479
15822TIP3   OH247387   6.788   5.835   7.966
15822TIP3    H147388   6.728   5.896   8.015
15822TIP3    H247389   6.720   5.785   7.916
15823TIP3   OH247390   7.121   5.185   6.698
15823TIP3    H147391   7.181   5.245   6.748
15823TIP3    H247392   7.148   5.206   6.606
15824TIP3   OH247393   6.546   5.404   8.073
15824TIP3    H147394   6.549   5.493   8.114
15824TIP3    H247395   6.451   5.382   8.085
15825TIP3   OH247396   6.870   5.857   6.973
15825TIP3    H147397   6.950   5.913   6.978
15825TIP3    H247398   6.806   5.916   6.930
15826TIP3   OH247399   6.583   5.995   8.052
15826TIP3    H147400   6.541   6.009   7.965
15826TIP3    H247401   6.506   5.993   8.113
15827TIP3   OH247402   7.639   4.421   6.749
15827TIP3    H147403   7.557   4.442   6.798
15827TIP3    H247404   7.652   4.504   6.698
15828TIP3   OH247405   6.383   5.167   7.091
15828TIP3    H147406   6.312   5.209   7.039
15828TIP3    H247407   6.348   5.078   7.105
15829TIP3   OH247408   7.451   5.803   6.236
15829TIP3    H147409   7.454   5.898   6.263
15829TIP3    H247410   7.540   5.774   6.267
15830TIP3   OH247411   6.163   5.551   8.001
15830TIP3    H147412   6.095   5.531   7.934
15830TIP3    H247413   6.199   5.462   8.021
15831TIP3   OH247414   6.016   5.743   7.633
15831TIP3    H147415   6.112   5.741   7.626
15831TIP3    H247416   6.002   5.823   7.686
15832TIP3   OH247417   6.952   5.990   7.822
15832TIP3    H147418   6.904   6.073   7.833
15832TIP3    H247419   6.893   5.928   7.871
15833TIP3   OH247420   6.756   6.111   6.775
15833TIP3    H147421   6.702   6.091   6.697
15833TIP3    H247422   6.718   6.195   6.807
15834TIP3   OH247423   6.188   5.955   7.161
15834TIP3    H147424   6.232   5.946   7.248
15834TIP3    H247425   6.135   5.873   7.159
15835TIP3   OH247426   6.948   6.018   6.417
15835TIP3    H147427   7.000   5.942   6.384
15835TIP3    H247428   6.981   6.026   6.509
15836TIP3   OH247429   7.006   6.057   6.686
15836TIP3    H147430   6.915   6.072   6.722
15836TIP3    H247431   7.048   6.014   6.762
15837TIP3   OH247432   7.773   5.334   7.938
15837TIP3    H147433   7.687   5.342   7.895
15837TIP3    H247434   7.787   5.238   7.938
15838TIP3   OH247435   6.365   5.735   7.986
15838TIP3    H147436   6.416   5.715   8.067
15838TIP3    H247437   6.292   5.670   7.992
15839TIP3   OH247438   6.766   4.556   7.776
15839TIP3    H147439   6.678   4.525   7.747
15839TIP3    H247440   6.738   4.635   7.827
15840TIP3   OH247441   7.300   4.670   7.969
15840TIP3    H147442   7.371   4.639   8.030
15840TIP3    H247443   7.219   4.650   8.020
15841TIP3   OH247444   7.546   5.110   7.887
15841TIP3    H147445   7.487   5.101   7.965
15841TIP3    H247446   7.520   5.197   7.852
15842TIP3   OH247447   7.201   5.228   6.444
15842TIP3    H147448   7.163   5.204   6.357
15842TIP3    H247449   7.287   5.266   6.418
15843TIP3   OH247450   6.912   4.602   6.747
15843TIP3    H147451   6.876   4.599   6.838
15843TIP3    H247452   6.871   4.521   6.711
15844TIP3   OH247453   6.700   5.072   7.795
15844TIP3    H147454   6.648   5.090   7.876
15844TIP3    H247455   6.683   5.153   7.742
15845TIP3   OH247456   6.581   4.960   7.307
15845TIP3    H147457   6.489   4.932   7.327
15845TIP3    H247458   6.593   4.917   7.219
15846TIP3   OH247459   7.073   5.043   7.039
15846TIP3    H147460   7.023   5.114   6.993
15846TIP3    H247461   7.128   5.008   6.966
15847TIP3   OH247462   7.239   5.325   8.120
15847TIP3    H147463   7.231   5.247   8.180
15847TIP3    H247464   7.300   5.382   8.171
15848TIP3   OH247465   7.229   5.068   7.271
15848TIP3    H147466   7.164   5.092   7.202
15848TIP3    H247467   7.266   4.988   7.228
15849TIP3   OH247468   6.518   5.097   8.001
15849TIP3    H147469   6.548   5.158   8.070
15849TIP3    H247470   6.504   5.014   8.051
15850TIP3   OH247471   6.570   4.580   6.711
15850TIP3    H147472   6.559   4.577   6.808
15850TIP3    H247473   6.491   4.631   6.685
15851TIP3   OH247474   6.113   4.622   7.580
15851TIP3    H147475   6.187   4.653   7.636
15851TIP3    H247476   6.157   4.588   7.500
15852TIP3   OH247477   6.073   4.600   7.101
15852TIP3    H147478   6.119   4.637   7.022
15852TIP3    H247479   6.012   4.674   7.119
15853TIP3   OH247480   7.239   5.313   7.693
15853TIP3    H147481   7.272   5.242   7.633
15853TIP3    H247482   7.209   5.258   7.769
15854TIP3   OH247483   6.916   4.781   7.367
15854TIP3    H147484   6.835   4.778   7.422
15854TIP3    H247485   6.986   4.768   7.434
15855TIP3   OH247486   6.344   4.837   7.373
15855TIP3    H147487   6.250   4.844   7.345
15855TIP3    H247488   6.367   4.744   7.352
15856TIP3   OH247489   6.607   4.830   7.067
15856TIP3    H147490   6.701   4.844   7.045
15856TIP3    H247491   6.560   4.852   6.984
15857TIP3   OH247492   7.401   4.856   7.565
15857TIP3    H147493   7.375   4.868   7.659
15857TIP3    H247494   7.331   4.795   7.536
15858TIP3   OH247495   6.460   4.868   6.842
15858TIP3    H147496   6.389   4.821   6.795
15858TIP3    H247497   6.511   4.904   6.766
15859TIP3   OH247498   6.526   5.655   8.206
15859TIP3    H147499   6.605   5.692   8.250
15859TIP3    H247500   6.465   5.649   8.282
15860TIP3   OH247501   6.991   5.112   7.469
15860TIP3    H147502   7.062   5.066   7.421
15860TIP3    H247503   6.992   5.066   7.555
15861TIP3   OH247504   6.510   4.593   7.351
15861TIP3    H147505   6.472   4.518   7.401
15861TIP3    H247506   6.555   4.547   7.279
15862TIP3   OH247507   6.969   5.013   7.746
15862TIP3    H147508   6.879   5.044   7.768
15862TIP3    H247509   7.026   5.069   7.802
15863TIP3   OH247510   6.705   5.394   6.850
15863TIP3    H147511   6.633   5.328   6.837
15863TIP3    H247512   6.684   5.428   6.940
15864TIP3   OH247513   7.605   5.613   7.490
15864TIP3    H147514   7.632   5.681   7.425
15864TIP3    H247515   7.520   5.582   7.452
15865TIP3   OH247516   7.161   4.705   6.717
15865TIP3    H147517   7.066   4.682   6.727
15865TIP3    H247518   7.166   4.799   6.744
15866TIP3   OH247519   7.096   5.703   7.860
15866TIP3    H147520   7.101   5.652   7.942
15866TIP3    H247521   7.036   5.775   7.884
15867TIP3   OH247522   7.229   4.956   6.821
15867TIP3    H147523   7.326   4.961   6.835
15867TIP3    H247524   7.211   5.036   6.769
15868TIP3   OH247525   6.402   5.422   7.523
15868TIP3    H147526   6.439   5.390   7.438
15868TIP3    H247527   6.441   5.360   7.586
15869TIP3   OH247528   6.850   5.546   6.675
15869TIP3    H147529   6.800   5.631   6.678
15869TIP3    H247530   6.794   5.490   6.734
15870TIP3   OH247531   6.280   5.335   8.138
15870TIP3    H147532   6.292   5.315   8.233
15870TIP3    H247533   6.210   5.272   8.114
15871TIP3   OH247534   6.997   5.443   8.153
15871TIP3    H147535   6.935   5.379   8.114
15871TIP3    H247536   7.083   5.404   8.127
15872TIP3   OH247537   7.292   5.908   7.763
15872TIP3    H147538   7.198   5.893   7.745
15872TIP3    H247539   7.289   5.991   7.815
15873TIP3   OH247540   7.672   5.048   6.651
15873TIP3    H147541   7.609   5.005   6.588
15873TIP3    H247542   7.670   5.138   6.612
15874TIP3   OH247543   7.380   5.854   6.559
15874TIP3    H147544   7.352   5.820   6.646
15874TIP3    H247545   7.366   5.777   6.503
15875TIP3   OH247546   7.361   5.497   7.388
15875TIP3    H147547   7.268   5.468   7.401
15875TIP3    H247548   7.399   5.417   7.347
15876TIP3   OH247549   6.500   5.724   7.152
15876TIP3    H147550   6.493   5.805   7.097
15876TIP3    H247551   6.407   5.704   7.167
15877TIP3   OH247552   6.066   5.025   6.859
15877TIP3    H147553   6.109   5.110   6.881
15877TIP3    H247554   5.988   5.028   6.919
15878TIP3   OH247555   6.631   5.487   7.092
15878TIP3    H147556   6.597   5.576   7.112
15878TIP3    H247557   6.597   5.435   7.166
15879TIP3   OH247558   6.769   6.065   7.611
15879TIP3    H147559   6.812   6.139   7.565
15879TIP3    H247560   6.844   6.012   7.642
15880TIP3   OH247561   6.418   5.959   7.003
15880TIP3    H147562   6.332   5.969   7.049
15880TIP3    H247563   6.451   6.052   7.005
15881TIP3   OH247564   7.150   5.698   7.587
15881TIP3    H147565   7.147   5.685   7.684
15881TIP3    H247566   7.225   5.642   7.562
15882TIP3   OH247567   7.140   5.596   6.457
15882TIP3    H147568   7.189   5.568   6.538
15882TIP3    H247569   7.051   5.564   6.480
15883TIP3   OH247570   7.473   6.073   6.281
15883TIP3    H147571   7.515   6.148   6.237
15883TIP3    H247572   7.392   6.117   6.314
15884TIP3   OH247573   6.486   4.844   8.142
15884TIP3    H147574   6.389   4.847   8.154
15884TIP3    H247575   6.513   4.788   8.216
15885TIP3   OH247576   7.296   5.521   6.667
15885TIP3    H147577   7.281   5.462   6.743
15885TIP3    H247578   7.394   5.519   6.664
15886TIP3   OH247579   6.207   5.925   7.776
15886TIP3    H147580   6.261   5.857   7.817
15886TIP3    H247581   6.233   6.004   7.826
15887TIP3   OH247582   6.498   5.570   6.461
15887TIP3    H147583   6.507   5.476   6.437
15887TIP3    H247584   6.476   5.563   6.556
15888TIP3   OH247585   6.440   5.579   6.731
15888TIP3    H147586   6.510   5.550   6.791
15888TIP3    H247587   6.443   5.676   6.742
15889TIP3   OH247588   6.173   5.270   6.940
15889TIP3    H147589   6.106   5.315   6.996
15889TIP3    H247590   6.184   5.338   6.870
15890TIP3   OH247591   7.336   4.901   7.824
15890TIP3    H147592   7.405   4.946   7.876
15890TIP3    H247593   7.317   4.823   7.881
15891TIP3   OH247594   7.211   4.653   7.000
15891TIP3    H147595   7.197   4.676   6.906
15891TIP3    H247596   7.250   4.736   7.035
15892TIP3   OH247597   6.710   5.778   6.681
15892TIP3    H147598   6.622   5.797   6.719
15892TIP3    H247599   6.720   5.854   6.623
15893TIP3   OH247600   6.892   4.841   7.099
15893TIP3    H147601   6.957   4.914   7.083
15893TIP3    H247602   6.899   4.830   7.196
15894TIP3   OH247603   7.168   5.154   7.902
15894TIP3    H147604   7.192   5.210   7.979
15894TIP3    H247605   7.222   5.075   7.919
15895TIP3   OH247606   7.037   4.558   7.197
15895TIP3    H147607   7.032   4.635   7.256
15895TIP3    H247608   7.100   4.591   7.129
15896TIP3   OH247609   6.457   5.850   6.753
15896TIP3    H147610   6.425   5.920   6.691
15896TIP3    H247611   6.438   5.892   6.840
15897TIP3   OH247612   6.552   4.565   6.987
15897TIP3    H147613   6.548   4.654   7.027
15897TIP3    H247614   6.648   4.547   6.994
15898TIP3   OH247615   7.813   5.055   7.886
15898TIP3    H147616   7.717   5.060   7.903
15898TIP3    H247617   7.812   5.000   7.806
15899TIP3   OH247618   7.455   5.250   7.270
15899TIP3    H147619   7.378   5.193   7.284
15899TIP3    H247620   7.525   5.203   7.321
15900TIP3   OH247621   6.171   5.473   6.742
15900TIP3    H147622   6.239   5.542   6.749
15900TIP3    H247623   6.214   5.415   6.675
15901TIP3   OH247624   6.111   4.754   6.877
15901TIP3    H147625   6.112   4.852   6.875
15901TIP3    H247626   6.031   4.734   6.827
15902TIP3   OH247627   7.404   6.183   7.207
15902TIP3    H147628   7.371   6.262   7.159
15902TIP3    H247629   7.498   6.189   7.193
15903TIP3   OH247630   6.501   4.475   7.746
15903TIP3    H147631   6.471   4.439   7.660
15903TIP3    H247632   6.492   4.398   7.805
15904TIP3   OH247633   6.034   5.692   7.124
15904TIP3    H147634   5.974   5.723   7.194
15904TIP3    H247635   5.997   5.738   7.045
15905TIP3   OH247636   6.202   6.227   8.188
15905TIP3    H147637   6.287   6.191   8.219
15905TIP3    H247638   6.152   6.144   8.181
15906TIP3   OH247639   6.658   5.773   6.370
15906TIP3    H147640   6.601   5.703   6.410
15906TIP3    H247641   6.732   5.719   6.338
15907TIP3   OH247642   7.081   5.811   6.298
15907TIP3    H147643   7.114   5.738   6.355
15907TIP3    H247644   7.152   5.825   6.235
15908TIP3   OH247645   6.326   5.631   8.403
15908TIP3    H147646   6.345   5.535   8.396
15908TIP3    H247647   6.240   5.637   8.355
15909TIP3   OH247648   6.308   5.289   6.597
15909TIP3    H147649   6.364   5.258   6.671
15909TIP3    H247650   6.375   5.294   6.526
15910TIP3   OH247651   6.925   5.708   8.173
15910TIP3    H147652   6.887   5.737   8.088
15910TIP3    H247653   6.952   5.615   8.157
15911TIP3   OH247654   6.832   5.493   6.405
15911TIP3    H147655   6.826   5.504   6.503
15911TIP3    H247656   6.828   5.395   6.398
15912TIP3   OH247657   7.459   5.690   7.788
15912TIP3    H147658   7.523   5.709   7.718
15912TIP3    H247659   7.396   5.764   7.775
15913TIP3   OH247660   6.450   5.381   8.382
15913TIP3    H147661   6.518   5.320   8.352
15913TIP3    H247662   6.478   5.398   8.474
15914TIP3   OH247663   6.511   5.200   6.815
15914TIP3    H147664   6.482   5.160   6.899
15914TIP3    H247665   6.548   5.122   6.767
15915TIP3   OH247666   6.784   5.263   8.047
15915TIP3    H147667   6.703   5.320   8.047
15915TIP3    H247668   6.832   5.297   7.968
15916TIP3   OH247669   6.615   4.995   6.655
15916TIP3    H147670   6.590   5.002   6.561
15916TIP3    H247671   6.713   4.996   6.648
15917TIP3   OH247672   7.430   5.326   6.323
15917TIP3    H147673   7.414   5.276   6.240
15917TIP3    H247674   7.396   5.414   6.295
15918TIP3   OH247675   6.907   5.051   8.167
15918TIP3    H147676   6.907   4.972   8.109
15918TIP3    H247677   6.861   5.118   8.111
15919TIP3   OH247678   6.909   4.841   7.978
15919TIP3    H147679   6.937   4.877   7.892
15919TIP3    H247680   6.816   4.815   7.960
15920TIP3   OH247681   6.931   5.373   7.853
15920TIP3    H147682   7.016   5.379   7.807
15920TIP3    H247683   6.876   5.437   7.803
15921TIP3   OH247684   6.785   5.156   8.402
15921TIP3    H147685   6.717   5.088   8.421
15921TIP3    H247686   6.816   5.129   8.313
15922TIP3   OH247687   7.039   4.600   8.051
15922TIP3    H147688   6.989   4.680   8.027
15922TIP3    H247689   6.971   4.530   8.040
15923TIP3   OH247690   7.163   5.102   8.263
15923TIP3    H147691   7.136   5.086   8.355
15923TIP3    H247692   7.077   5.080   8.220
15924TIP3   OH247693   7.377   5.046   8.090
15924TIP3    H147694   7.314   5.054   8.164
15924TIP3    H247695   7.458   5.013   8.137
15925TIP3   OH247696   7.606   4.962   8.210
15925TIP3    H147697   7.628   4.867   8.220
15925TIP3    H247698   7.621   4.994   8.301
15926TIP3   OH247699   6.624   4.937   8.455
15926TIP3    H147700   6.624   4.844   8.424
15926TIP3    H247701   6.659   4.926   8.546
15927TIP3   OH247702   7.135   4.610   8.308
15927TIP3    H147703   7.200   4.537   8.301
15927TIP3    H247704   7.095   4.605   8.219
15928TIP3   OH247705   7.195   4.822   8.469
15928TIP3    H147706   7.178   4.750   8.404
15928TIP3    H247707   7.118   4.880   8.455
15929TIP3   OH247708   6.424   6.054   6.566
15929TIP3    H147709   6.518   6.045   6.543
15929TIP3    H247710   6.393   6.105   6.490
15930TIP3   OH247711   5.901   5.435   6.776
15930TIP3    H147712   5.996   5.455   6.762
15930TIP3    H247713   5.894   5.347   6.735
15931TIP3   OH247714   5.820   6.046   7.196
15931TIP3    H147715   5.754   5.986   7.155
15931TIP3    H247716   5.863   5.985   7.259
15932TIP3   OH247717   5.954   5.889   7.381
15932TIP3    H147718   5.939   5.822   7.449
15932TIP3    H247719   6.006   5.954   7.431
15933TIP3   OH247720   7.573   5.507   6.655
15933TIP3    H147721   7.643   5.569   6.625
15933TIP3    H247722   7.616   5.470   6.736
15934TIP3   OH247723   7.699   5.376   6.864
15934TIP3    H147724   7.628   5.330   6.914
15934TIP3    H247725   7.749   5.419   6.936
15935TIP3   OH247726   7.735   5.758   7.289
15935TIP3    H147727   7.813   5.715   7.249
15935TIP3    H247728   7.696   5.808   7.216
15936TIP3   OH247729   7.635   5.285   6.503
15936TIP3    H147730   7.563   5.285   6.437
15936TIP3    H247731   7.607   5.360   6.559
15937TIP3   OH247732   7.506   4.956   6.456
15937TIP3    H147733   7.461   4.983   6.375
15937TIP3    H247734   7.487   4.860   6.454
15938TIP3   OH247735   7.512   5.232   7.001
15938TIP3    H147736   7.517   5.136   6.994
15938TIP3    H247737   7.496   5.244   7.098
15939TIP3   OH247738   6.136   5.305   7.754
15939TIP3    H147739   6.133   5.270   7.662
15939TIP3    H247740   6.234   5.305   7.769
15940TIP3   OH247741   7.450   4.691   6.441
15940TIP3    H147742   7.521   4.655   6.498
15940TIP3    H247743   7.374   4.632   6.460
15941TIP3   OH247744   7.511   4.950   6.894
15941TIP3    H147745   7.550   4.861   6.910
15941TIP3    H247746   7.568   4.981   6.822
15942TIP3   OH247747   7.663   5.114   7.395
15942TIP3    H147748   7.748   5.138   7.352
15942TIP3    H247749   7.677   5.156   7.482
15943TIP3   OH247750   7.729   5.270   7.617
15943TIP3    H147751   7.655   5.306   7.669
15943TIP3    H247752   7.767   5.350   7.577
15944TIP3   OH247753   6.360   4.996   8.433
15944TIP3    H147754   6.458   4.987   8.435
15944TIP3    H247755   6.334   4.907   8.463
15945TIP3   OH247756   7.617   4.700   6.935
15945TIP3    H147757   7.664   4.683   7.019
15945TIP3    H247758   7.556   4.623   6.934
15946TIP3   OH247759   6.318   4.685   7.755
15946TIP3    H147760   6.378   4.608   7.764
15946TIP3    H247761   6.382   4.757   7.747
15947TIP3   OH247762   6.116   4.957   7.826
15947TIP3    H147763   6.167   4.952   7.742
15947TIP3    H247764   6.150   5.038   7.865
15948TIP3   OH247765   8.056   4.962   7.993
15948TIP3    H147766   7.984   5.027   7.980
15948TIP3    H247767   8.024   4.889   7.937
15949TIP3   OH247768   7.694   4.629   6.571
15949TIP3    H147769   7.732   4.559   6.514
15949TIP3    H247770   7.763   4.698   6.567
15950TIP3   OH247771   6.105   4.459   7.329
15950TIP3    H147772   6.013   4.453   7.360
15950TIP3    H247773   6.097   4.518   7.251
15951TIP3   OH247774   7.279   6.169   6.840
15951TIP3    H147775   7.317   6.143   6.754
15951TIP3    H247776   7.326   6.251   6.857
15952TIP3   OH247777   6.325   4.544   8.145
15952TIP3    H147778   6.273   4.533   8.226
15952TIP3    H247779   6.257   4.579   8.084
15953TIP3   OH247780   6.360   5.985   8.239
15953TIP3    H147781   6.273   5.952   8.212
15953TIP3    H247782   6.367   5.950   8.329
15954TIP3   OH247783   6.545   5.998   7.766
15954TIP3    H147784   6.489   6.068   7.725
15954TIP3    H247785   6.628   6.018   7.721
15955TIP3   OH247786   7.954   4.744   7.854
15955TIP3    H147787   7.865   4.729   7.818
15955TIP3    H247788   7.992   4.653   7.848
15956TIP3   OH247789   6.211   6.255   7.795
15956TIP3    H147790   6.121   6.281   7.765
15956TIP3    H247791   6.219   6.319   7.869
15957TIP3   OH247792   6.434   6.207   7.640
15957TIP3    H147793   6.352   6.234   7.687
15957TIP3    H247794   6.434   6.266   7.563
15958TIP3   OH247795   6.871   6.298   7.453
15958TIP3    H147796   6.808   6.286   7.379
15958TIP3    H247797   6.831   6.375   7.496
15959TIP3   OH247798   7.122   6.173   7.491
15959TIP3    H147799   7.040   6.218   7.462
15959TIP3    H247800   7.190   6.207   7.429
15960TIP3   OH247801   6.129   6.052   7.534
15960TIP3    H147802   6.154   6.023   7.625
15960TIP3    H247803   6.203   6.010   7.484
15961TIP3   OH247804   6.325   5.924   7.396
15961TIP3    H147805   6.340   5.841   7.446
15961TIP3    H247806   6.416   5.960   7.391
15962TIP3   OH247807   6.591   6.015   7.395
15962TIP3    H147808   6.622   5.923   7.391
15962TIP3    H247809   6.626   6.041   7.482
15963TIP3   OH247810   7.162   4.671   7.484
15963TIP3    H147811   7.122   4.599   7.537
15963TIP3    H247812   7.238   4.626   7.442
15964TIP3   OH247813   7.684   4.554   7.385
15964TIP3    H147814   7.720   4.608   7.311
15964TIP3    H247815   7.589   4.575   7.381
15965TIP3   OH247816   7.782   4.656   7.151
15965TIP3    H147817   7.857   4.604   7.115
15965TIP3    H247818   7.816   4.747   7.137
15966TIP3   OH247819   6.412   4.380   7.499
15966TIP3    H147820   6.320   4.346   7.504
15966TIP3    H247821   6.461   4.295   7.496
15967TIP3   OH247822   6.200   4.255   7.151
15967TIP3    H147823   6.231   4.310   7.077
15967TIP3    H247824   6.175   4.321   7.218
15968TIP3   OH247825   6.860   4.414   7.382
15968TIP3    H147826   6.917   4.461   7.319
15968TIP3    H247827   6.890   4.450   7.467
15969TIP3   OH247828   7.400   4.562   7.364
15969TIP3    H147829   7.404   4.518   7.278
15969TIP3    H247830   7.391   4.484   7.424
15970TIP3   OH247831   7.435   4.487   6.929
15970TIP3    H147832   7.349   4.530   6.947
15970TIP3    H247833   7.422   4.400   6.973
15971TIP3   OH247834   5.916   5.831   6.924
15971TIP3    H147835   5.830   5.798   6.892
15971TIP3    H247836   5.909   5.924   6.894
15972TIP3   OH247837   6.321   4.410   6.910
15972TIP3    H147838   6.368   4.346   6.853
15972TIP3    H247839   6.396   4.463   6.946
15973TIP3   OH247840   6.828   4.591   7.010
15973TIP3    H147841   6.886   4.542   7.070
15973TIP3    H247842   6.851   4.683   7.036
15974TIP3   OH247843   6.689   6.006   6.510
15974TIP3    H147844   6.775   6.033   6.472
15974TIP3    H247845   6.667   5.932   6.449
15975TIP3   OH247846   7.407   6.123   6.600
15975TIP3    H147847   7.404   6.026   6.583
15975TIP3    H247848   7.358   6.158   6.522
15976TIP3   OH247849   6.620   4.664   8.395
15976TIP3    H147850   6.584   4.591   8.449
15976TIP3    H247851   6.715   4.662   8.422
15977TIP3   OH247852   6.875   4.663   8.508
15977TIP3    H147853   6.958   4.631   8.469
15977TIP3    H247854   6.857   4.592   8.574
15978TIP3   OH247855   5.992   5.845   6.563
15978TIP3    H147856   5.992   5.871   6.657
15978TIP3    H247857   6.081   5.803   6.552
15979TIP3   OH247858   7.683   4.711   8.287
15979TIP3    H147859   7.701   4.685   8.380
15979TIP3    H247860   7.771   4.698   8.246
15980TIP3   OH247861   7.877   5.162   6.808
15980TIP3    H147862   7.819   5.238   6.825
15980TIP3    H247863   7.813   5.100   6.770
15981TIP3   OH247864   7.953   5.450   6.982
15981TIP3    H147865   7.990   5.366   7.018
15981TIP3    H247866   7.970   5.440   6.888
15982TIP3   OH247867   8.433   5.034   6.995
15982TIP3    H147868   8.433   5.098   6.922
15982TIP3    H247869   8.397   4.955   6.949
15983TIP3   OH247870   9.142   5.129   6.634
15983TIP3    H147871   9.226   5.098   6.670
15983TIP3    H247872   9.174   5.175   6.554
15984TIP3   OH247873   8.083   5.238   7.090
15984TIP3    H147874   8.164   5.214   7.139
15984TIP3    H247875   8.094   5.180   7.011
15985TIP3   OH247876   8.506   5.434   6.871
15985TIP3    H147877   8.591   5.413   6.910
15985TIP3    H247878   8.472   5.346   6.843
15986TIP3   OH247879   8.463   5.023   7.387
15986TIP3    H147880   8.395   5.056   7.325
15986TIP3    H247881   8.413   5.031   7.471
15987TIP3   OH247882   8.316   5.155   7.202
15987TIP3    H147883   8.383   5.223   7.221
15987TIP3    H247884   8.359   5.107   7.128
15988TIP3   OH247885   7.773   5.667   6.546
15988TIP3    H147886   7.734   5.697   6.461
15988TIP3    H247887   7.804   5.753   6.583
15989TIP3   OH247888   8.770   4.746   7.099
15989TIP3    H147889   8.757   4.655   7.132
15989TIP3    H247890   8.703   4.792   7.155
15990TIP3   OH247891   8.727   5.500   6.382
15990TIP3    H147892   8.652   5.556   6.358
15990TIP3    H247893   8.778   5.497   6.299
15991TIP3   OH247894   8.690   5.282   6.100
15991TIP3    H147895   8.759   5.340   6.140
15991TIP3    H247896   8.748   5.225   6.046
15992TIP3   OH247897   3.902   0.419   1.239
15992TIP3    H147898   3.863   0.503   1.269
15992TIP3    H247899   3.996   0.434   1.259
15993TIP3   OH247900   8.304   5.583   6.773
15993TIP3    H147901   8.259   5.524   6.708
15993TIP3    H247902   8.380   5.526   6.801
15994TIP3   OH247903   8.910   5.436   6.172
15994TIP3    H147904   8.968   5.484   6.236
15994TIP3    H247905   8.923   5.494   6.093
15995TIP3   OH247906   9.466   4.712   6.251
15995TIP3    H147907   9.394   4.706   6.317
15995TIP3    H247908   9.418   4.689   6.170
15996TIP3   OH247909   8.172   5.421   6.589
15996TIP3    H147910   8.105   5.462   6.529
15996TIP3    H247911   8.146   5.328   6.587
15997TIP3   OH247912   7.774   5.989   7.077
15997TIP3    H147913   7.864   5.990   7.113
15997TIP3    H247914   7.727   6.032   7.151
15998TIP3   OH247915   7.940   6.219   6.608
15998TIP3    H147916   7.978   6.214   6.697
15998TIP3    H247917   7.876   6.146   6.608
15999TIP3   OH247918   8.743   6.246   5.918
15999TIP3    H147919   8.784   6.174   5.866
15999TIP3    H247920   8.821   6.281   5.964
16000TIP3   OH247921   8.563   4.805   7.266
16000TIP3    H147922   8.471   4.779   7.242
16000TIP3    H247923   8.544   4.886   7.318
16001TIP3   OH247924   8.725   4.827   6.243
16001TIP3    H147925   8.669   4.843   6.321
16001TIP3    H247926   8.660   4.791   6.177
16002TIP3   OH247927   8.381   5.206   6.789
16002TIP3    H147928   8.289   5.179   6.813
16002TIP3    H247929   8.387   5.167   6.699
16003TIP3   OH247930   8.854   5.294   6.517
16003TIP3    H147931   8.811   5.373   6.478
16003TIP3    H247932   8.928   5.281   6.455
16004TIP3   OH247933   8.390   4.863   6.198
16004TIP3    H147934   8.381   4.829   6.288
16004TIP3    H247935   8.299   4.892   6.180
16005TIP3   OH247936   7.907   4.880   7.065
16005TIP3    H147937   7.983   4.910   7.119
16005TIP3    H247938   7.948   4.840   6.987
16006TIP3   OH247939   7.871   4.856   6.589
16006TIP3    H147940   7.916   4.892   6.510
16006TIP3    H247941   7.808   4.929   6.606
16007TIP3   OH247942   8.140   5.094   6.861
16007TIP3    H147943   8.046   5.100   6.832
16007TIP3    H247944   8.163   5.001   6.844
16008TIP3   OH247945   8.401   5.086   6.544
16008TIP3    H147946   8.493   5.102   6.517
16008TIP3    H247947   8.350   5.110   6.464
16009TIP3   OH247948   8.248   5.133   6.326
16009TIP3    H147949   8.180   5.084   6.277
16009TIP3    H247950   8.305   5.164   6.252
16010TIP3   OH247951   8.304   4.849   6.835
16010TIP3    H147952   8.269   4.774   6.888
16010TIP3    H247953   8.347   4.803   6.762
16011TIP3   OH247954   8.488   5.658   6.345
16011TIP3    H147955   8.422   5.587   6.331
16011TIP3    H247956   8.472   5.684   6.438
16012TIP3   OH247957   8.966   4.952   6.153
16012TIP3    H147958   8.871   4.940   6.170
16012TIP3    H247959   8.984   5.040   6.192
16013TIP3   OH247960   9.021   5.188   6.288
16013TIP3    H147961   9.116   5.198   6.309
16013TIP3    H247962   9.004   5.269   6.235
16014TIP3   OH247963   8.245   5.678   7.023
16014TIP3    H147964   8.260   5.658   6.928
16014TIP3    H247965   8.215   5.591   7.052
16015TIP3   OH247966   8.616   5.802   6.149
16015TIP3    H147967   8.582   5.891   6.171
16015TIP3    H247968   8.577   5.748   6.220
16016TIP3   OH247969   9.486   5.265   6.103
16016TIP3    H147970   9.419   5.206   6.064
16016TIP3    H247971   9.475   5.341   6.041
16017TIP3   OH247972   8.269   5.959   6.638
16017TIP3    H147973   8.321   6.040   6.621
16017TIP3    H247974   8.182   5.982   6.605
16018TIP3   OH247975   7.861   5.281   6.345
16018TIP3    H147976   7.906   5.365   6.368
16018TIP3    H247977   7.784   5.284   6.406
16019TIP3   OH247978   8.444   5.751   6.602
16019TIP3    H147979   8.380   5.825   6.611
16019TIP3    H247980   8.403   5.687   6.663
16020TIP3   OH247981   8.179   6.213   6.471
16020TIP3    H147982   8.088   6.226   6.507
16020TIP3    H247983   8.223   6.295   6.494
16021TIP3   OH247984   8.306   5.092   7.594
16021TIP3    H147985   8.231   5.140   7.633
16021TIP3    H247986   8.318   5.022   7.660
16022TIP3   OH247987   8.282   5.833   5.952
16022TIP3    H147988   8.321   5.748   5.922
16022TIP3    H247989   8.263   5.813   6.045
16023TIP3   OH247990   8.232   5.831   6.227
16023TIP3    H147991   8.317   5.804   6.266
16023TIP3    H247992   8.239   5.929   6.231
16024TIP3   OH247993   7.972   5.524   6.424
16024TIP3    H147994   7.905   5.569   6.479
16024TIP3    H247995   7.988   5.592   6.356
16025TIP3   OH247996   9.010   4.922   6.480
16025TIP3    H147997   8.994   4.965   6.395
16025TIP3    H247998   9.051   4.995   6.530
16026TIP3   OH247999   8.513   6.050   6.199
16026TIP3    H148000   8.419   6.072   6.211
16026TIP3    H248001   8.534   6.102   6.120
16027TIP3   OH248002   8.684   5.092   6.568
16027TIP3    H148003   8.744   5.164   6.538
16027TIP3    H248004   8.688   5.106   6.663
16028TIP3   OH248005   8.841   4.813   6.677
16028TIP3    H148006   8.884   4.854   6.755
16028TIP3    H248007   8.895   4.853   6.606
16029TIP3   OH248008   8.246   6.105   6.229
16029TIP3    H148009   8.220   6.178   6.168
16029TIP3    H248010   8.218   6.143   6.315
16030TIP3   OH248011   8.350   4.812   6.476
16030TIP3    H148012   8.338   4.903   6.510
16030TIP3    H248013   8.447   4.803   6.487
16031TIP3   OH248014   7.965   5.733   6.224
16031TIP3    H148015   8.040   5.794   6.236
16031TIP3    H248016   8.007   5.671   6.161
16032TIP3   OH248017   7.906   5.010   6.366
16032TIP3    H148018   7.907   5.107   6.361
16032TIP3    H248019   7.830   4.988   6.311
16033TIP3   OH248020   8.295   4.733   7.236
16033TIP3    H148021   8.267   4.696   7.150
16033TIP3    H248022   8.287   4.656   7.296
16034TIP3   OH248023   7.821   5.927   6.610
16034TIP3    H148024   7.761   5.961   6.678
16034TIP3    H248025   7.791   5.977   6.531
16035TIP3   OH248026   8.457   6.027   5.864
16035TIP3    H148027   8.401   5.954   5.898
16035TIP3    H248028   8.533   5.976   5.829
16036TIP3   OH248029   8.888   6.068   5.768
16036TIP3    H148030   8.951   6.030   5.831
16036TIP3    H248031   8.945   6.079   5.689
16037TIP3   OH248032   8.100   5.543   6.087
16037TIP3    H148033   8.159   5.513   6.158
16037TIP3    H248034   8.165   5.548   6.013
16038TIP3   OH248035   8.583   5.745   5.882
16038TIP3    H148036   8.615   5.760   5.974
16038TIP3    H248037   8.606   5.650   5.873
16039TIP3   OH248038   8.306   5.453   6.302
16039TIP3    H148039   8.280   5.401   6.379
16039TIP3    H248040   8.349   5.384   6.245
16040TIP3   OH248041   8.415   5.254   6.143
16040TIP3    H148042   8.392   5.259   6.047
16040TIP3    H248043   8.513   5.255   6.136
16041TIP3   OH248044   9.261   5.592   5.769
16041TIP3    H148045   9.197   5.531   5.729
16041TIP3    H248046   9.207   5.674   5.768
16042TIP3   OH248047   8.222   6.323   6.059
16042TIP3    H148048   8.317   6.306   6.039
16042TIP3    H248049   8.196   6.366   5.975
16043TIP3   OH248050   7.697   5.689   6.272
16043TIP3    H148051   7.790   5.715   6.253
16043TIP3    H248052   7.694   5.601   6.228
16044TIP3   OH248053   7.605   6.296   6.682
16044TIP3    H148054   7.544   6.231   6.641
16044TIP3    H248055   7.657   6.236   6.741
16045TIP3   OH248056   7.754   6.141   6.851
16045TIP3    H148057   7.741   6.068   6.915
16045TIP3    H248058   7.802   6.202   6.910
16046TIP3   OH248059   9.399   5.485   5.974
16046TIP3    H148060   9.343   5.522   5.901
16046TIP3    H248061   9.447   5.564   6.002
16047TIP3   OH248062   9.232   5.209   5.979
16047TIP3    H148063   9.266   5.284   5.927
16047TIP3    H248064   9.240   5.135   5.916
16048TIP3   OH248065   7.958   5.597   7.213
16048TIP3    H148066   7.946   5.551   7.127
16048TIP3    H248067   8.021   5.540   7.257
16049TIP3   OH248068   9.263   4.926   5.935
16049TIP3    H148069   9.326   4.884   5.993
16049TIP3    H248070   9.180   4.917   5.984
16050TIP3   OH248071   9.277   5.195   6.392
16050TIP3    H148072   9.330   5.112   6.399
16050TIP3    H248073   9.345   5.258   6.362
16051TIP3   OH248074   9.403   4.959   6.450
16051TIP3    H148075   9.475   4.931   6.509
16051TIP3    H248076   9.353   4.876   6.437
16052TIP3   OH248077   8.115   4.945   7.236
16052TIP3    H148078   8.174   4.867   7.247
16052TIP3    H248079   8.179   5.018   7.242
16053TIP3   OH248080   7.906   5.208   7.310
16053TIP3    H148081   7.963   5.211   7.231
16053TIP3    H248082   7.943   5.275   7.368
16054TIP3   OH248083   7.901   4.718   6.819
16054TIP3    H148084   7.808   4.710   6.848
16054TIP3    H248085   7.893   4.776   6.740
16055TIP3   OH248086   8.120   4.800   7.635
16055TIP3    H148087   8.061   4.786   7.711
16055TIP3    H248088   8.057   4.838   7.570
16056TIP3   OH248089   8.942   4.950   6.911
16056TIP3    H148090   8.899   4.899   6.983
16056TIP3    H248091   9.025   4.897   6.898
16057TIP3   OH248092   8.210   4.637   6.986
16057TIP3    H148093   8.118   4.604   6.991
16057TIP3    H248094   8.258   4.551   6.982
16058TIP3   OH248095   8.000   4.512   6.640
16058TIP3    H148096   8.027   4.568   6.565
16058TIP3    H248097   7.972   4.578   6.706
16059TIP3   OH248098   8.652   4.672   6.858
16059TIP3    H148099   8.710   4.720   6.798
16059TIP3    H248100   8.681   4.706   6.944
16060TIP3   OH248101   9.157   4.817   6.817
16060TIP3    H148102   9.224   4.781   6.757
16060TIP3    H248103   9.155   4.745   6.884
16061TIP3   OH248104   9.237   4.736   6.423
16061TIP3    H148105   9.154   4.785   6.434
16061TIP3    H248106   9.217   4.652   6.470
16062TIP3   OH248107   7.712   6.089   6.425
16062TIP3    H148108   7.626   6.059   6.392
16062TIP3    H248109   7.711   6.180   6.390
16063TIP3   OH248110   8.116   4.669   6.400
16063TIP3    H148111   8.160   4.603   6.342
16063TIP3    H248112   8.193   4.719   6.434
16064TIP3   OH248113   8.623   4.838   6.497
16064TIP3    H148114   8.685   4.799   6.561
16064TIP3    H248115   8.642   4.933   6.514
16065TIP3   OH248116   8.480   6.266   5.992
16065TIP3    H148117   8.573   6.284   5.967
16065TIP3    H248118   8.463   6.189   5.933
16066TIP3   OH248119   7.801   6.113   6.053
16066TIP3    H148120   7.804   6.131   6.147
16066TIP3    H248121   7.887   6.066   6.037
16067TIP3   OH248122   1.333   6.427   8.262
16067TIP3    H148123   1.326   6.516   8.222
16067TIP3    H248124   1.271   6.378   8.205
16068TIP3   OH248125   1.170   6.381   8.562
16068TIP3    H148126   1.193   6.316   8.631
16068TIP3    H248127   1.232   6.351   8.494
16069TIP3   OH248128   1.586   6.675   8.300
16069TIP3    H148129   1.639   6.631   8.369
16069TIP3    H248130   1.593   6.767   8.327
16070TIP3   OH248131   2.173   6.000   8.655
16070TIP3    H148132   2.196   6.084   8.700
16070TIP3    H248133   2.193   6.023   8.563
16071TIP3   OH248134   1.624   6.192   8.691
16071TIP3    H148135   1.643   6.098   8.707
16071TIP3    H248136   1.549   6.185   8.631
16072TIP3   OH248137   1.605   5.915   8.296
16072TIP3    H148138   1.673   5.901   8.367
16072TIP3    H248139   1.661   5.949   8.224
16073TIP3   OH248140   2.266   6.209   8.814
16073TIP3    H148141   2.190   6.269   8.800
16073TIP3    H248142   2.230   6.159   8.891
16074TIP3   OH248143   1.248   6.636   8.111
16074TIP3    H148144   1.226   6.618   8.018
16074TIP3    H248145   1.215   6.728   8.120
16075TIP3   OH248146   1.803   5.917   8.484
16075TIP3    H148147   1.825   5.881   8.573
16075TIP3    H248148   1.850   6.003   8.491
16076TIP3   OH248149   1.931   5.869   8.729
16076TIP3    H148150   1.904   5.945   8.783
16076TIP3    H248151   2.021   5.896   8.703
16077TIP3   OH248152   1.515   6.788   8.060
16077TIP3    H148153   1.506   6.724   7.988
16077TIP3    H248154   1.544   6.730   8.133
16078TIP3   OH248155   1.175   6.296   8.071
16078TIP3    H148156   1.089   6.319   8.033
16078TIP3    H248157   1.230   6.286   7.990
16079TIP3   OH248158   1.172   6.078   7.792
16079TIP3    H148159   1.243   6.130   7.833
16079TIP3    H248160   1.225   6.011   7.743
16080TIP3   OH248161   2.068   6.557   8.665
16080TIP3    H148162   2.010   6.632   8.650
16080TIP3    H248163   2.113   6.557   8.577
16081TIP3   OH248164   1.531   6.377   8.058
16081TIP3    H148165   1.484   6.395   8.142
16081TIP3    H248166   1.618   6.346   8.092
16082TIP3   OH248167   1.375   6.239   7.880
16082TIP3    H148168   1.435   6.297   7.932
16082TIP3    H248169   1.403   6.259   7.788
16083TIP3   OH248170   1.889   5.467   7.926
16083TIP3    H148171   1.807   5.489   7.974
16083TIP3    H248172   1.903   5.548   7.872
16084TIP3   OH248173   1.689   6.835   7.474
16084TIP3    H148174   1.697   6.932   7.456
16084TIP3    H248175   1.782   6.807   7.463
16085TIP3   OH248176   1.224   7.083   7.586
16085TIP3    H148177   1.266   6.999   7.561
16085TIP3    H248178   1.225   7.078   7.684
16086TIP3   OH248179   1.233   7.096   7.866
16086TIP3    H148180   1.155   7.057   7.909
16086TIP3    H248181   1.305   7.071   7.925
16087TIP3   OH248182   1.455   6.274   7.625
16087TIP3    H148183   1.416   6.248   7.540
16087TIP3    H248184   1.538   6.315   7.596
16088TIP3   OH248185   1.163   5.645   7.920
16088TIP3    H148186   1.133   5.637   8.012
16088TIP3    H248187   1.128   5.560   7.884
16089TIP3   OH248188   1.325   6.098   8.207
16089TIP3    H148189   1.275   6.167   8.160
16089TIP3    H248190   1.382   6.061   8.137
16090TIP3   OH248191   1.474   6.115   8.448
16090TIP3    H148192   1.414   6.133   8.373
16090TIP3    H248193   1.519   6.036   8.413
16091TIP3   OH248194   0.831   5.604   7.884
16091TIP3    H148195   0.818   5.589   7.980
16091TIP3    H248196   0.747   5.645   7.860
16092TIP3   OH248197   1.182   5.809   8.492
16092TIP3    H148198   1.112   5.752   8.527
16092TIP3    H248199   1.205   5.860   8.572
16093TIP3   OH248200   0.868   5.864   8.210
16093TIP3    H148201   0.966   5.868   8.213
16093TIP3    H248202   0.850   5.927   8.138
16094TIP3   OH248203   1.597   5.921   8.747
16094TIP3    H148204   1.530   5.970   8.800
16094TIP3    H248205   1.538   5.864   8.692
16095TIP3   OH248206   1.249   6.114   8.609
16095TIP3    H148207   1.332   6.095   8.561
16095TIP3    H248208   1.275   6.103   8.701
16096TIP3   OH248209   1.411   5.750   7.896
16096TIP3    H148210   1.315   5.728   7.902
16096TIP3    H248211   1.414   5.845   7.919
16097TIP3   OH248212   1.480   6.003   7.997
16097TIP3    H148213   1.577   6.001   8.014
16097TIP3    H248214   1.469   6.083   7.943
16098TIP3   OH248215   1.097   6.598   7.874
16098TIP3    H148216   1.060   6.687   7.887
16098TIP3    H248217   1.031   6.541   7.919
16099TIP3   OH248218   1.919   6.095   7.825
16099TIP3    H148219   1.853   6.053   7.765
16099TIP3    H248220   1.918   6.185   7.785
16100TIP3   OH248221   1.615   6.906   7.736
16100TIP3    H148222   1.602   6.830   7.793
16100TIP3    H248223   1.634   6.866   7.649
16101TIP3   OH248224   1.694   6.561   8.538
16101TIP3    H148225   1.648   6.527   8.617
16101TIP3    H248226   1.715   6.476   8.493
16102TIP3   OH248227   1.390   6.639   7.637
16102TIP3    H148228   1.433   6.612   7.721
16102TIP3    H248229   1.300   6.606   7.649
16103TIP3   OH248230   1.725   7.108   7.453
16103TIP3    H148231   1.770   7.187   7.415
16103TIP3    H248232   1.643   7.150   7.485
16104TIP3   OH248233   1.544   6.577   7.866
16104TIP3    H148234   1.534   6.507   7.934
16104TIP3    H248235   1.639   6.567   7.844
16105TIP3   OH248236   1.466   5.701   8.172
16105TIP3    H148237   1.451   5.723   8.078
16105TIP3    H248238   1.503   5.785   8.208
16106TIP3   OH248239   1.139   5.895   8.240
16106TIP3    H148240   1.204   5.967   8.226
16106TIP3    H248241   1.154   5.878   8.336
16107TIP3   OH248242   1.304   5.595   8.365
16107TIP3    H148243   1.285   5.677   8.417
16107TIP3    H248244   1.367   5.631   8.299
16108TIP3   OH248245   0.834   5.574   8.163
16108TIP3    H148246   0.826   5.644   8.230
16108TIP3    H248247   0.932   5.566   8.161
16109TIP3   OH248248   1.712   6.302   8.439
16109TIP3    H148249   1.633   6.256   8.471
16109TIP3    H248250   1.781   6.256   8.492
16110TIP3   OH248251   0.912   6.810   7.524
16110TIP3    H148252   0.862   6.727   7.530
16110TIP3    H248253   0.986   6.784   7.468
16111TIP3   OH248254   1.342   6.857   7.464
16111TIP3    H148255   1.386   6.796   7.526
16111TIP3    H248256   1.400   6.855   7.386
16112TIP3   OH248257   1.098   6.542   7.598
16112TIP3    H148258   1.092   6.554   7.695
16112TIP3    H248259   1.103   6.444   7.590
16113TIP3   OH248260   0.902   6.043   7.821
16113TIP3    H148261   0.890   5.983   7.745
16113TIP3    H248262   0.999   6.057   7.820
16114TIP3   OH248263   1.690   6.366   7.496
16114TIP3    H148264   1.661   6.320   7.414
16114TIP3    H248265   1.652   6.456   7.477
16115TIP3   OH248266   1.820   6.547   7.827
16115TIP3    H148267   1.886   6.615   7.798
16115TIP3    H248268   1.865   6.511   7.907
16116TIP3   OH248269   1.948   6.418   8.033
16116TIP3    H148270   1.882   6.378   8.095
16116TIP3    H248271   2.015   6.455   8.095
16117TIP3   OH248272   1.926   6.731   8.373
16117TIP3    H148273   2.005   6.675   8.384
16117TIP3    H248274   1.959   6.800   8.311
16118TIP3   OH248275   1.898   6.328   7.669
16118TIP3    H148276   1.821   6.329   7.608
16118TIP3    H248277   1.873   6.402   7.728
16119TIP3   OH248278   1.745   6.003   7.637
16119TIP3    H148279   1.708   6.028   7.552
16119TIP3    H248280   1.730   5.906   7.635
16120TIP3   OH248281   1.758   6.276   8.175
16120TIP3    H148282   1.768   6.179   8.170
16120TIP3    H248283   1.746   6.290   8.272
16121TIP3   OH248284   1.695   5.737   7.622
16121TIP3    H148285   1.770   5.700   7.673
16121TIP3    H248286   1.624   5.673   7.636
16122TIP3   OH248287   1.757   5.993   8.070
16122TIP3    H148288   1.798   5.904   8.085
16122TIP3    H248289   1.816   6.025   8.000
16123TIP3   OH248290   1.918   6.164   8.558
16123TIP3    H148291   2.005   6.190   8.520
16123TIP3    H248292   1.934   6.191   8.650
16124TIP3   OH248293   2.011   6.311   8.780
16124TIP3    H148294   1.940   6.317   8.846
16124TIP3    H248295   2.016   6.402   8.744
16125TIP3   OH248296   1.866   5.745   8.111
16125TIP3    H148297   1.915   5.729   8.194
16125TIP3    H248298   1.806   5.668   8.109
16126TIP3   OH248299   1.940   5.671   7.746
16126TIP3    H148300   1.977   5.601   7.688
16126TIP3    H248301   2.007   5.741   7.739
16127TIP3   OH248302   1.437   5.731   8.647
16127TIP3    H148303   1.369   5.678   8.691
16127TIP3    H248304   1.496   5.664   8.609
16128TIP3   OH248305   1.938   5.590   8.551
16128TIP3    H148306   1.976   5.649   8.481
16128TIP3    H248307   1.862   5.642   8.580
16129TIP3   OH248308   2.033   5.704   8.324
16129TIP3    H148309   2.106   5.649   8.288
16129TIP3    H248310   2.069   5.794   8.310
16130TIP3   OH248311   1.087   5.526   8.534
16130TIP3    H148312   1.172   5.531   8.488
16130TIP3    H248313   1.100   5.450   8.592
16131TIP3   OH248314   1.642   5.573   8.549
16131TIP3    H148315   1.658   5.588   8.455
16131TIP3    H248316   1.666   5.480   8.558
16132TIP3   OH248317   1.684   5.534   8.103
16132TIP3    H148318   1.598   5.577   8.121
16132TIP3    H248319   1.670   5.447   8.146
16133TIP3   OH248320   1.098   5.629   8.185
16133TIP3    H148321   1.156   5.590   8.254
16133TIP3    H248322   1.118   5.724   8.197
16134TIP3   OH248323   1.667   7.171   7.779
16134TIP3    H148324   1.651   7.074   7.772
16134TIP3    H248325   1.622   7.202   7.699
16135TIP3   OH248326   3.151   6.692   7.728
16135TIP3    H148327   3.121   6.783   7.708
16135TIP3    H248328   3.074   6.642   7.698
16136TIP3   OH248329   3.153   6.690   8.117
16136TIP3    H148330   3.188   6.671   8.207
16136TIP3    H248331   3.109   6.606   8.095
16137TIP3   OH248332   2.444   6.573   8.475
16137TIP3    H148333   2.476   6.504   8.536
16137TIP3    H248334   2.525   6.623   8.460
16138TIP3   OH248335   3.398   6.996   7.799
16138TIP3    H148336   3.376   6.934   7.870
16138TIP3    H248337   3.426   7.075   7.849
16139TIP3   OH248338   2.440   6.987   8.234
16139TIP3    H148339   2.425   6.891   8.217
16139TIP3    H248340   2.526   7.000   8.186
16140TIP3   OH248341   2.130   6.197   7.978
16140TIP3    H148342   2.085   6.279   8.004
16140TIP3    H248343   2.054   6.147   7.943
16141TIP3   OH248344   2.183   6.485   8.161
16141TIP3    H148345   2.235   6.409   8.196
16141TIP3    H248346   2.251   6.535   8.113
16142TIP3   OH248347   3.042   7.451   7.813
16142TIP3    H148348   3.086   7.379   7.763
16142TIP3    H248349   3.045   7.418   7.903
16143TIP3   OH248350   2.947   6.916   8.162
16143TIP3    H148351   2.991   6.842   8.117
16143TIP3    H248352   3.027   6.964   8.192
16144TIP3   OH248353   3.968   6.238   8.163
16144TIP3    H148354   3.994   6.322   8.206
16144TIP3    H248355   3.980   6.261   8.069
16145TIP3   OH248356   3.362   6.417   8.191
16145TIP3    H148357   3.403   6.331   8.213
16145TIP3    H248358   3.328   6.399   8.101
16146TIP3   OH248359   2.704   6.077   8.156
16146TIP3    H148360   2.683   6.150   8.094
16146TIP3    H248361   2.653   6.004   8.115
16147TIP3   OH248362   3.397   6.172   7.778
16147TIP3    H148363   3.469   6.156   7.845
16147TIP3    H248364   3.450   6.206   7.704
16148TIP3   OH248365   2.334   6.281   8.263
16148TIP3    H148366   2.415   6.262   8.314
16148TIP3    H248367   2.350   6.224   8.185
16149TIP3   OH248368   2.771   6.476   8.064
16149TIP3    H148369   2.866   6.454   8.076
16149TIP3    H248370   2.735   6.392   8.031
16150TIP3   OH248371   4.037   6.449   8.331
16150TIP3    H148372   3.952   6.494   8.315
16150TIP3    H248373   4.059   6.484   8.419
16151TIP3   OH248374   2.695   6.063   8.593
16151TIP3    H148375   2.636   6.098   8.524
16151TIP3    H248376   2.642   6.084   8.673
16152TIP3   OH248377   3.039   6.913   7.598
16152TIP3    H148378   2.998   6.903   7.511
16152TIP3    H248379   2.995   6.995   7.629
16153TIP3   OH248380   2.807   6.837   8.384
16153TIP3    H148381   2.754   6.908   8.426
16153TIP3    H248382   2.849   6.883   8.308
16154TIP3   OH248383   3.600   6.175   7.961
16154TIP3    H148384   3.573   6.139   8.047
16154TIP3    H248385   3.649   6.255   7.988
16155TIP3   OH248386   2.568   6.176   8.375
16155TIP3    H148387   2.629   6.249   8.401
16155TIP3    H248388   2.620   6.136   8.302
16156TIP3   OH248389   2.596   7.018   8.478
16156TIP3    H148390   2.616   7.087   8.413
16156TIP3    H248391   2.523   6.972   8.434
16157TIP3   OH248392   2.019   6.719   7.721
16157TIP3    H148393   1.981   6.753   7.638
16157TIP3    H248394   2.051   6.803   7.762
16158TIP3   OH248395   3.467   7.237   7.953
16158TIP3    H148396   3.379   7.224   7.994
16158TIP3    H248397   3.457   7.325   7.913
16159TIP3   OH248398   3.757   6.133   8.324
16159TIP3    H148399   3.669   6.162   8.295
16159TIP3    H248400   3.815   6.169   8.255
16160TIP3   OH248401   3.046   5.775   8.310
16160TIP3    H148402   3.030   5.681   8.329
16160TIP3    H248403   2.970   5.816   8.357
16161TIP3   OH248404   3.162   7.281   7.631
16161TIP3    H148405   3.214   7.199   7.613
16161TIP3    H248406   3.225   7.347   7.593
16162TIP3   OH248407   3.309   7.065   7.547
16162TIP3    H148408   3.263   6.986   7.517
16162TIP3    H248409   3.349   7.033   7.631
16163TIP3   OH248410   3.688   7.146   8.308
16163TIP3    H148411   3.674   7.071   8.247
16163TIP3    H248412   3.667   7.223   8.250
16164TIP3   OH248413   2.979   6.541   7.566
16164TIP3    H148414   2.902   6.597   7.545
16164TIP3    H248415   3.027   6.541   7.481
16165TIP3   OH248416   2.937   6.331   7.280
16165TIP3    H148417   3.004   6.384   7.326
16165TIP3    H248418   2.995   6.269   7.230
16166TIP3   OH248419   3.882   6.788   8.153
16166TIP3    H148420   3.798   6.839   8.156
16166TIP3    H248421   3.916   6.814   8.065
16167TIP3   OH248422   3.329   6.626   7.533
16167TIP3    H148423   3.274   6.651   7.611
16167TIP3    H248424   3.414   6.603   7.577
16168TIP3   OH248425   3.562   6.663   8.453
16168TIP3    H148426   3.560   6.746   8.506
16168TIP3    H248427   3.476   6.670   8.407
16169TIP3   OH248428   2.560   6.619   7.954
16169TIP3    H148429   2.527   6.562   7.882
16169TIP3    H248430   2.638   6.569   7.985
16170TIP3   OH248431   2.681   7.014   8.106
16170TIP3    H148432   2.673   7.004   8.010
16170TIP3    H248433   2.776   6.993   8.121
16171TIP3   OH248434   2.691   6.598   8.306
16171TIP3    H148435   2.728   6.571   8.220
16171TIP3    H248436   2.740   6.682   8.325
16172TIP3   OH248437   3.228   7.211   8.072
16172TIP3    H148438   3.210   7.302   8.106
16172TIP3    H248439   3.204   7.154   8.147
16173TIP3   OH248440   3.164   6.487   7.361
16173TIP3    H148441   3.225   6.547   7.410
16173TIP3    H248442   3.191   6.506   7.268
16174TIP3   OH248443   2.597   6.676   8.713
16174TIP3    H148444   2.602   6.733   8.791
16174TIP3    H248445   2.508   6.698   8.681
16175TIP3   OH248446   2.916   7.158   7.634
16175TIP3    H148447   2.997   7.211   7.644
16175TIP3    H248448   2.853   7.224   7.601
16176TIP3   OH248449   3.685   5.722   7.414
16176TIP3    H148450   3.602   5.744   7.461
16176TIP3    H248451   3.700   5.804   7.361
16177TIP3   OH248452   2.433   6.461   7.739
16177TIP3    H148453   2.360   6.509   7.695
16177TIP3    H248454   2.386   6.389   7.781
16178TIP3   OH248455   3.484   7.091   6.960
16178TIP3    H148456   3.493   7.187   6.945
16178TIP3    H248457   3.577   7.061   6.947
16179TIP3   OH248458   2.340   6.838   8.675
16179TIP3    H148459   2.255   6.856   8.631
16179TIP3    H248460   2.317   6.762   8.731
16180TIP3   OH248461   2.047   6.950   8.257
16180TIP3    H148462   2.143   6.957   8.245
16180TIP3    H248463   2.030   7.030   8.308
16181TIP3   OH248464   3.937   7.494   8.357
16181TIP3    H148465   3.933   7.399   8.376
16181TIP3    H248466   3.854   7.524   8.402
16182TIP3   OH248467   3.043   7.288   8.507
16182TIP3    H148468   3.077   7.354   8.571
16182TIP3    H248469   2.950   7.287   8.538
16183TIP3   OH248470   2.797   7.404   7.439
16183TIP3    H148471   2.748   7.392   7.357
16183TIP3    H248472   2.763   7.490   7.470
16184TIP3   OH248473   2.227   7.262   7.825
16184TIP3    H148474   2.284   7.250   7.905
16184TIP3    H248475   2.168   7.187   7.836
16185TIP3   OH248476   2.994   7.311   7.077
16185TIP3    H148477   3.052   7.241   7.043
16185TIP3    H248478   3.029   7.323   7.168
16186TIP3   OH248479   3.048   7.361   7.346
16186TIP3    H148480   2.959   7.369   7.388
16186TIP3    H248481   3.100   7.326   7.420
16187TIP3   OH248482   3.817   6.624   8.630
16187TIP3    H148483   3.731   6.635   8.588
16187TIP3    H248484   3.831   6.527   8.623
16188TIP3   OH248485   2.811   5.857   8.440
16188TIP3    H148486   2.723   5.826   8.410
16188TIP3    H248487   2.784   5.937   8.490
16189TIP3   OH248488   3.344   5.970   8.632
16189TIP3    H148489   3.415   5.948   8.697
16189TIP3    H248490   3.262   5.955   8.683
16190TIP3   OH248491   3.582   6.403   8.549
16190TIP3    H148492   3.532   6.398   8.634
16190TIP3    H248493   3.558   6.491   8.515
16191TIP3   OH248494   3.244   6.525   7.107
16191TIP3    H148495   3.208   6.504   7.018
16191TIP3    H248496   3.328   6.568   7.083
16192TIP3   OH248497   2.955   5.904   7.411
16192TIP3    H148498   2.920   5.899   7.503
16192TIP3    H248499   2.917   5.822   7.374
16193TIP3   OH248500   2.744   6.373   8.451
16193TIP3    H148501   2.696   6.390   8.535
16193TIP3    H248502   2.727   6.456   8.402
16194TIP3   OH248503   2.627   6.257   7.967
16194TIP3    H148504   2.535   6.231   7.990
16194TIP3    H248505   2.636   6.215   7.879
16195TIP3   OH248506   3.114   6.339   7.700
16195TIP3    H148507   3.067   6.413   7.656
16195TIP3    H248508   3.172   6.308   7.628
16196TIP3   OH248509   3.295   6.624   8.777
16196TIP3    H148510   3.271   6.550   8.837
16196TIP3    H248511   3.387   6.640   8.803
16197TIP3   OH248512   3.272   6.368   7.936
16197TIP3    H148513   3.209   6.398   7.867
16197TIP3    H248514   3.308   6.290   7.890
16198TIP3   OH248515   2.566   6.396   8.657
16198TIP3    H148516   2.589   6.465   8.722
16198TIP3    H248517   2.555   6.317   8.714
16199TIP3   OH248518   2.603   5.900   7.373
16199TIP3    H148519   2.596   5.873   7.467
16199TIP3    H248520   2.526   5.858   7.331
16200TIP3   OH248521   2.157   5.927   8.241
16200TIP3    H148522   2.232   5.956   8.298
16200TIP3    H248523   2.200   5.890   8.163
16201TIP3   OH248524   2.113   5.901   7.760
16201TIP3    H148525   2.183   5.937   7.703
16201TIP3    H248526   2.054   5.977   7.774
16202TIP3   OH248527   3.282   6.615   8.356
16202TIP3    H148528   3.317   6.544   8.297
16202TIP3    H248529   3.253   6.561   8.432
16203TIP3   OH248530   2.961   6.078   8.031
16203TIP3    H148531   2.880   6.077   8.086
16203TIP3    H248532   3.031   6.074   8.098
16204TIP3   OH248533   2.391   6.138   8.034
16204TIP3    H148534   2.295   6.144   8.009
16204TIP3    H248535   2.411   6.044   8.019
16205TIP3   OH248536   2.656   6.133   7.720
16205TIP3    H148537   2.754   6.138   7.727
16205TIP3    H248538   2.640   6.184   7.641
16206TIP3   OH248539   3.449   6.154   8.229
16206TIP3    H148540   3.422   6.169   8.323
16206TIP3    H248541   3.377   6.096   8.200
16207TIP3   OH248542   2.444   6.164   7.439
16207TIP3    H148543   2.484   6.078   7.463
16207TIP3    H248544   2.524   6.210   7.407
16208TIP3   OH248545   3.035   6.410   8.129
16208TIP3    H148546   3.111   6.372   8.082
16208TIP3    H248547   3.041   6.367   8.216
16209TIP3   OH248548   2.553   5.894   8.013
16209TIP3    H148549   2.515   5.819   8.064
16209TIP3    H248550   2.608   5.845   7.949
16210TIP3   OH248551   3.014   6.311   8.417
16210TIP3    H148552   2.923   6.346   8.432
16210TIP3    H248553   3.070   6.373   8.468
16211TIP3   OH248554   2.751   6.693   7.512
16211TIP3    H148555   2.674   6.634   7.498
16211TIP3    H248556   2.730   6.729   7.602
16212TIP3   OH248557   3.648   6.931   8.138
16212TIP3    H148558   3.671   6.984   8.059
16212TIP3    H248559   3.563   6.890   8.112
16213TIP3   OH248560   3.208   6.003   7.387
16213TIP3    H148561   3.111   5.984   7.391
16213TIP3    H248562   3.213   6.099   7.406
16214TIP3   OH248563   3.134   7.010   8.525
16214TIP3    H148564   3.197   7.002   8.599
16214TIP3    H248565   3.114   7.105   8.524
16215TIP3   OH248566   3.274   6.259   7.483
16215TIP3    H148567   3.371   6.265   7.496
16215TIP3    H248568   3.255   6.338   7.430
16216TIP3   OH248569   2.439   6.712   8.184
16216TIP3    H148570   2.481   6.689   8.099
16216TIP3    H248571   2.489   6.657   8.247
16217TIP3   OH248572   2.895   6.846   7.335
16217TIP3    H148573   2.845   6.931   7.338
16217TIP3    H248574   2.842   6.791   7.397
16218TIP3   OH248575   2.299   6.609   8.834
16218TIP3    H148576   2.314   6.545   8.907
16218TIP3    H248577   2.229   6.563   8.784
16219TIP3   OH248578   3.049   6.746   8.824
16219TIP3    H148579   2.993   6.681   8.778
16219TIP3    H248580   3.138   6.720   8.792
16220TIP3   OH248581   3.307   7.258   8.404
16220TIP3    H148582   3.212   7.275   8.415
16220TIP3    H248583   3.343   7.303   8.484
16221TIP3   OH248584   3.718   6.351   7.316
16221TIP3    H148585   3.656   6.308   7.252
16221TIP3    H248586   3.714   6.441   7.276
16222TIP3   OH248587   3.937   7.204   8.397
16222TIP3    H148588   3.840   7.200   8.385
16222TIP3    H248589   3.965   7.177   8.307
16223TIP3   OH248590   3.421   7.168   7.225
16223TIP3    H148591   3.391   7.100   7.288
16223TIP3    H248592   3.432   7.118   7.143
16224TIP3   OH248593   3.416   6.796   8.055
16224TIP3    H148594   3.322   6.773   8.070
16224TIP3    H248595   3.447   6.715   8.010
16225TIP3   OH248596   2.546   7.023   7.810
16225TIP3    H148597   2.543   7.104   7.756
16225TIP3    H248598   2.461   7.030   7.857
16226TIP3   OH248599   2.111   6.332   7.485
16226TIP3    H148600   2.146   6.415   7.523
16226TIP3    H248601   2.037   6.316   7.548
16227TIP3   OH248602   2.671   6.784   7.753
16227TIP3    H148603   2.638   6.874   7.769
16227TIP3    H248604   2.640   6.738   7.833
16228TIP3   OH248605   2.836   7.330   8.267
16228TIP3    H148606   2.825   7.425   8.287
16228TIP3    H248607   2.914   7.308   8.319
16229TIP3   OH248608   2.462   7.261   7.664
16229TIP3    H148609   2.376   7.273   7.710
16229TIP3    H248610   2.498   7.353   7.672
16230TIP3   OH248611   3.193   6.992   8.254
16230TIP3    H148612   3.182   6.991   8.351
16230TIP3    H248613   3.281   6.954   8.243
16231TIP3   OH248614   3.179   6.897   7.127
16231TIP3    H148615   3.234   6.870   7.204
16231TIP3    H248616   3.091   6.869   7.157
16232TIP3   OH248617   3.458   7.539   8.299
16232TIP3    H148618   3.374   7.490   8.305
16232TIP3    H248619   3.437   7.602   8.225
16233TIP3   OH248620   3.516   7.368   6.944
16233TIP3    H148621   3.557   7.444   6.900
16233TIP3    H248622   3.435   7.410   6.977
16234TIP3   OH248623   2.530   6.158   8.797
16234TIP3    H148624   2.433   6.180   8.796
16234TIP3    H248625   2.533   6.099   8.873
16235TIP3   OH248626   3.340   6.823   7.336
16235TIP3    H148627   3.329   6.759   7.410
16235TIP3    H248628   3.437   6.822   7.326
16236TIP3   OH248629   2.541   6.874   7.125
16236TIP3    H148630   2.555   6.781   7.102
16236TIP3    H248631   2.522   6.867   7.221
16237TIP3   OH248632   2.486   6.878   7.397
16237TIP3    H148633   2.559   6.857   7.457
16237TIP3    H248634   2.484   6.977   7.404
16238TIP3   OH248635   2.213   6.565   7.599
16238TIP3    H148636   2.148   6.611   7.657
16238TIP3    H248637   2.229   6.636   7.534
16239TIP3   OH248638   3.381   6.202   8.488
16239TIP3    H148639   3.453   6.248   8.535
16239TIP3    H248640   3.364   6.125   8.546
16240TIP3   OH248641   3.253   5.956   7.665
16240TIP3    H148642   3.240   5.976   7.570
16240TIP3    H248643   3.294   6.039   7.697
16241TIP3   OH248644   2.750   7.074   7.343
16241TIP3    H148645   2.663   7.098   7.381
16241TIP3    H248646   2.770   7.156   7.295
16242TIP3   OH248647   2.928   6.145   7.765
16242TIP3    H148648   2.995   6.214   7.744
16242TIP3    H248649   2.943   6.133   7.862
16243TIP3   OH248650   3.212   6.456   8.566
16243TIP3    H148651   3.233   6.513   8.643
16243TIP3    H248652   3.264   6.376   8.586
16244TIP3   OH248653   3.080   5.860   7.861
16244TIP3    H148654   3.074   5.938   7.919
16244TIP3    H248655   3.145   5.893   7.794
16245TIP3   OH248656   2.495   7.149   7.415
16245TIP3    H148657   2.467   7.221   7.354
16245TIP3    H248658   2.481   7.192   7.503
16246TIP3   OH248659   2.598   5.867   7.648
16246TIP3    H148660   2.604   5.955   7.692
16246TIP3    H248661   2.692   5.841   7.655
16247TIP3   OH248662   3.846   6.354   8.549
16247TIP3    H148663   3.748   6.355   8.558
16247TIP3    H248664   3.855   6.316   8.461
16248TIP3   OH248665   3.501   6.548   7.934
16248TIP3    H148666   3.423   6.492   7.950
16248TIP3    H248667   3.571   6.501   7.986
16249TIP3   OH248668   2.216   6.774   7.407
16249TIP3    H148669   2.280   6.847   7.420
16249TIP3    H248670   2.265   6.722   7.340
16250TIP3   OH248671   3.473   7.504   7.876
16250TIP3    H148672   3.430   7.553   7.802
16250TIP3    H248673   3.567   7.527   7.858
16251TIP3   OH248674   2.548   5.778   8.407
16251TIP3    H148675   2.516   5.742   8.321
16251TIP3    H248676   2.534   5.701   8.466
16252TIP3   OH248677   2.072   6.979   7.791
16252TIP3    H148678   2.016   7.022   7.857
16252TIP3    H248679   2.047   7.029   7.710
16253TIP3   OH248680   2.702   7.076   7.030
16253TIP3    H148681   2.648   7.005   7.072
16253TIP3    H248682   2.779   7.024   7.001
16254TIP3   OH248683   3.386   7.377   8.632
16254TIP3    H148684   3.377   7.347   8.724
16254TIP3    H248685   3.431   7.461   8.644
16255TIP3   OH248686   3.139   7.113   6.950
16255TIP3    H148687   3.178   7.048   7.012
16255TIP3    H248688   3.198   7.109   6.873
16256TIP3   OH248689   2.356   6.580   7.269
16256TIP3    H148690   2.420   6.569   7.342
16256TIP3    H248691   2.418   6.589   7.193
16257TIP3   OH248692   2.920   6.986   8.758
16257TIP3    H148693   2.952   6.971   8.668
16257TIP3    H248694   2.967   6.916   8.807
16258TIP3   OH248695   2.865   6.793   7.067
16258TIP3    H148696   2.868   6.805   7.164
16258TIP3    H248697   2.867   6.695   7.062
16259TIP3   OH248698   3.471   7.040   8.443
16259TIP3    H148699   3.550   7.081   8.403
16259TIP3    H248700   3.405   7.111   8.426
16260TIP3   OH248701   2.544   6.504   7.470
16260TIP3    H148702   2.524   6.473   7.560
16260TIP3    H248703   2.592   6.429   7.429
16261TIP3   OH248704   2.843   6.546   8.697
16261TIP3    H148705   2.759   6.597   8.697
16261TIP3    H248706   2.891   6.587   8.621
16262TIP3   OH248707   2.661   6.292   7.327
16262TIP3    H148708   2.640   6.299   7.231
16262TIP3    H248709   2.759   6.293   7.322
16263TIP3   OH248710   3.329   6.961   8.813
16263TIP3    H148711   3.422   6.955   8.787
16263TIP3    H248712   3.327   6.913   8.896
16264TIP3   OH248713   3.477   6.620   6.989
16264TIP3    H148714   3.458   6.577   6.903
16264TIP3    H248715   3.444   6.710   6.969
16265TIP3   OH248716   2.956   6.345   8.837
16265TIP3    H148717   2.958   6.266   8.780
16265TIP3    H248718   2.919   6.412   8.775
16266TIP3   OH248719   2.955   6.137   8.641
16266TIP3    H148720   2.982   6.181   8.558
16266TIP3    H248721   2.861   6.117   8.623
16267TIP3   OH248722   2.983   6.670   8.507
16267TIP3    H148723   3.071   6.694   8.473
16267TIP3    H248724   2.926   6.737   8.463
16268TIP3   OH248725   3.549   6.643   8.897
16268TIP3    H148726   3.596   6.571   8.944
16268TIP3    H248727   3.622   6.693   8.858
16269TIP3   OH248728   3.603   6.891   8.624
16269TIP3    H148729   3.543   6.947   8.569
16269TIP3    H248730   3.690   6.917   8.587
16270TIP3   OH248731   2.755   6.485   8.991
16270TIP3    H148732   2.750   6.408   9.048
16270TIP3    H248733   2.826   6.460   8.930
16271TIP3   OH248734   3.084   5.902   8.721
16271TIP3    H148735   3.036   5.984   8.694
16271TIP3    H248736   3.016   5.834   8.707
16272TIP3   OH248737   3.220   6.407   8.917
16272TIP3    H148738   3.241   6.394   9.011
16272TIP3    H248739   3.127   6.376   8.911
16273TIP3   OH248740   3.448   6.345   8.773
16273TIP3    H148741   3.375   6.353   8.837
16273TIP3    H248742   3.523   6.320   8.830
16274TIP3   OH248743   3.685   6.286   8.915
16274TIP3    H148744   3.692   6.194   8.947
16274TIP3    H248745   3.671   6.337   8.998
16275TIP3   OH248746   3.221   5.891   8.960
16275TIP3    H148747   3.268   5.810   8.931
16275TIP3    H248748   3.154   5.900   8.889
16276TIP3   OH248749   3.298   6.127   9.077
16276TIP3    H148750   3.282   6.050   9.020
16276TIP3    H248751   3.212   6.129   9.126
16277TIP3   OH248752   2.467   7.346   7.221
16277TIP3    H148753   2.563   7.340   7.206
16277TIP3    H248754   2.442   7.406   7.148
16278TIP3   OH248755   1.947   6.745   7.442
16278TIP3    H148756   2.042   6.765   7.429
16278TIP3    H248757   1.939   6.658   7.397
16279TIP3   OH248758   1.846   7.359   7.869
16279TIP3    H148759   1.787   7.294   7.824
16279TIP3    H248760   1.899   7.298   7.924
16280TIP3   OH248761   2.000   7.194   8.029
16280TIP3    H148762   2.018   7.124   8.094
16280TIP3    H248763   2.042   7.269   8.073
16281TIP3   OH248764   3.730   7.590   7.845
16281TIP3    H148765   3.748   7.621   7.936
16281TIP3    H248766   3.789   7.647   7.793
16282TIP3   OH248767   3.759   7.604   8.121
16282TIP3    H148768   3.718   7.515   8.126
16282TIP3    H248769   3.836   7.592   8.180
16283TIP3   OH248770   3.808   7.302   8.710
16283TIP3    H148771   3.719   7.335   8.731
16283TIP3    H248772   3.856   7.386   8.696
16284TIP3   OH248773   3.618   6.807   7.318
16284TIP3    H148774   3.683   6.874   7.287
16284TIP3    H248775   3.664   6.771   7.397
16285TIP3   OH248776   3.746   6.674   7.524
16285TIP3    H148777   3.675   6.632   7.578
16285TIP3    H248778   3.801   6.717   7.593
16286TIP3   OH248779   3.805   7.071   7.955
16286TIP3    H148780   3.852   7.009   7.897
16286TIP3    H248781   3.796   7.150   7.898
16287TIP3   OH248782   3.625   7.362   8.149
16287TIP3    H148783   3.555   7.413   8.194
16287TIP3    H248784   3.576   7.321   8.075
16288TIP3   OH248785   3.682   6.585   7.167
16288TIP3    H148786   3.610   6.585   7.100
16288TIP3    H248787   3.653   6.661   7.221
16289TIP3   OH248788   3.552   6.256   7.122
16289TIP3    H148789   3.509   6.291   7.044
16289TIP3    H248790   3.530   6.161   7.115
16290TIP3   OH248791   3.557   6.535   7.666
16290TIP3    H148792   3.562   6.439   7.657
16290TIP3    H248793   3.541   6.547   7.762
16291TIP3   OH248794   2.175   6.588   8.418
16291TIP3    H148795   2.175   6.562   8.323
16291TIP3    H248796   2.271   6.599   8.434
16292TIP3   OH248797   3.850   6.962   8.529
16292TIP3    H148798   3.920   6.894   8.514
16292TIP3    H248799   3.875   7.032   8.467
16293TIP3   OH248800   4.029   6.757   8.525
16293TIP3    H148801   3.956   6.709   8.569
16293TIP3    H248802   4.103   6.696   8.545
16294TIP3   OH248803   3.494   5.991   7.107
16294TIP3    H148804   3.564   5.955   7.164
16294TIP3    H248805   3.418   5.932   7.123
16295TIP3   OH248806   3.556   6.252   7.559
16295TIP3    H148807   3.596   6.163   7.573
16295TIP3    H248808   3.612   6.284   7.486
16296TIP3   OH248809   3.714   6.415   8.059
16296TIP3    H148810   3.799   6.441   8.017
16296TIP3    H248811   3.727   6.457   8.147
16297TIP3   OH248812   3.784   6.566   8.286
16297TIP3    H148813   3.709   6.599   8.338
16297TIP3    H248814   3.816   6.649   8.244
16298TIP3   OH248815   4.230   6.161   8.841
16298TIP3    H148816   4.296   6.100   8.803
16298TIP3    H248817   4.203   6.214   8.763
16299TIP3   OH248818   3.663   6.001   7.599
16299TIP3    H148819   3.708   5.984   7.684
16299TIP3    H248820   3.601   5.925   7.596
16300TIP3   OH248821   2.362   5.987   8.414
16300TIP3    H148822   2.421   5.911   8.431
16300TIP3    H248823   2.427   6.060   8.410
16301TIP3   OH248824   2.164   6.258   8.483
16301TIP3    H148825   2.213   6.253   8.399
16301TIP3    H248826   2.195   6.343   8.518
16302TIP3   OH248827   4.104   6.298   8.646
16302TIP3    H148828   4.024   6.343   8.678
16302TIP3    H248829   4.063   6.229   8.590
16303TIP3   OH248830   3.741   5.928   7.237
16303TIP3    H148831   3.777   5.861   7.176
16303TIP3    H248832   3.806   6.001   7.229
16304TIP3   OH248833   2.148   5.765   7.992
16304TIP3    H148834   2.057   5.753   8.024
16304TIP3    H248835   2.135   5.821   7.913
16305TIP3   OH248836   3.305   7.465   7.496
16305TIP3    H148837   3.364   7.460   7.418
16305TIP3    H248838   3.349   7.532   7.551
16306TIP3   OH248839   2.395   5.861   8.738
16306TIP3    H148840   2.358   5.833   8.824
16306TIP3    H248841   2.320   5.910   8.700
16307TIP3   OH248842   4.005   6.060   8.527
16307TIP3    H148843   3.914   6.054   8.493
16307TIP3    H248844   4.035   5.966   8.518
16308TIP3   OH248845   2.945   7.604   8.116
16308TIP3    H148846   2.879   7.579   8.048
16308TIP3    H248847   2.892   7.660   8.172
16309TIP3   OH248848   3.190   7.476   8.130
16309TIP3    H148849   3.099   7.512   8.121
16309TIP3    H248850   3.241   7.558   8.133
16310TIP3   OH248851   3.402   7.684   8.074
16310TIP3    H148852   3.384   7.767   8.025
16310TIP3    H248853   3.422   7.622   8.000
16311TIP3   OH248854   2.379   7.186   8.035
16311TIP3    H148855   2.385   7.135   8.118
16311TIP3    H248856   2.451   7.251   8.046
16312TIP3   OH248857   2.629   7.330   8.043
16312TIP3    H148858   2.686   7.252   8.053
16312TIP3    H248859   2.618   7.358   8.136
16313TIP3   OH248860   3.210   5.974   8.150
16313TIP3    H148861   3.168   5.903   8.202
16313TIP3    H248862   3.285   5.927   8.107
16314TIP3   OH248863   3.733   5.857   8.053
16314TIP3    H148864   3.765   5.911   7.977
16314TIP3    H248865   3.637   5.875   8.049
16315TIP3   OH248866   3.827   5.953   7.817
16315TIP3    H148867   3.900   5.904   7.775
16315TIP3    H248868   3.858   6.045   7.802
16316TIP3   OH248869   2.456   5.681   8.161
16316TIP3    H148870   2.364   5.647   8.166
16316TIP3    H248871   2.505   5.596   8.158
16317TIP3   OH248872   2.247   5.555   7.823
16317TIP3    H148873   2.275   5.608   7.747
16317TIP3    H248874   2.221   5.623   7.888
16318TIP3   OH248875   2.902   5.718   8.045
16318TIP3    H148876   2.961   5.762   7.981
16318TIP3    H248877   2.934   5.753   8.130
16319TIP3   OH248878   3.449   5.863   8.028
16319TIP3    H148879   3.447   5.822   7.940
16319TIP3    H248880   3.437   5.784   8.086
16320TIP3   OH248881   3.480   5.789   7.594
16320TIP3    H148882   3.393   5.831   7.608
16320TIP3    H248883   3.465   5.702   7.636
16321TIP3   OH248884   1.966   7.126   7.592
16321TIP3    H148885   1.879   7.099   7.557
16321TIP3    H248886   1.965   7.220   7.569
16322TIP3   OH248887   2.371   5.720   7.572
16322TIP3    H148888   2.411   5.646   7.521
16322TIP3    H248889   2.451   5.761   7.612
16323TIP3   OH248890   2.873   5.891   7.674
16323TIP3    H148891   2.933   5.841   7.732
16323TIP3    H248892   2.898   5.983   7.701
16324TIP3   OH248893   2.735   7.307   7.174
16324TIP3    H148894   2.823   7.331   7.138
16324TIP3    H248895   2.713   7.232   7.114
16325TIP3   OH248896   3.458   7.435   7.266
16325TIP3    H148897   3.449   7.337   7.257
16325TIP3    H248898   3.410   7.465   7.187
16326TIP3   OH248899   2.034   7.143   7.227
16326TIP3    H148900   2.039   7.172   7.319
16326TIP3    H248901   2.123   7.103   7.212
16327TIP3   OH248902   3.750   6.014   8.965
16327TIP3    H148903   3.779   5.978   9.050
16327TIP3    H248904   3.835   6.021   8.916
16328TIP3   OH248905   3.693   7.575   8.441
16328TIP3    H148906   3.612   7.546   8.396
16328TIP3    H248907   3.679   7.670   8.445
16329TIP3   OH248908   4.943   6.944   7.219
16329TIP3    H148909   4.915   7.036   7.202
16329TIP3    H248910   4.871   6.897   7.175
16330TIP3   OH248911   4.936   6.952   7.608
16330TIP3    H148912   4.977   6.935   7.696
16330TIP3    H248913   4.914   6.863   7.579
16331TIP3   OH248914   4.275   6.855   7.941
16331TIP3    H148915   4.288   6.778   7.999
16331TIP3    H248916   4.314   6.926   7.996
16332TIP3   OH248917   5.192   7.248   7.286
16332TIP3    H148918   5.182   7.189   7.362
16332TIP3    H248919   5.219   7.332   7.330
16333TIP3   OH248920   4.221   7.258   7.685
16333TIP3    H148921   4.213   7.160   7.690
16333TIP3    H248922   4.318   7.268   7.680
16334TIP3   OH248923   3.925   6.457   7.472
16334TIP3    H148924   3.871   6.537   7.491
16334TIP3    H248925   3.857   6.403   7.427
16335TIP3   OH248926   3.982   6.747   7.655
16335TIP3    H148927   4.033   6.668   7.684
16335TIP3    H248928   4.018   6.764   7.567
16336TIP3   OH248929   4.840   7.708   7.302
16336TIP3    H148930   4.883   7.637   7.250
16336TIP3    H248931   4.842   7.671   7.391
16337TIP3   OH248932   4.743   7.167   7.650
16337TIP3    H148933   4.796   7.093   7.614
16337TIP3    H248934   4.818   7.224   7.678
16338TIP3   OH248935   5.760   6.494   7.649
16338TIP3    H148936   5.787   6.577   7.694
16338TIP3    H248937   5.779   6.515   7.557
16339TIP3   OH248938   5.147   6.670   7.679
16339TIP3    H148939   5.198   6.590   7.700
16339TIP3    H248940   5.120   6.651   7.587
16340TIP3   OH248941   4.498   6.333   7.646
16340TIP3    H148942   4.471   6.397   7.577
16340TIP3    H248943   4.454   6.253   7.609
16341TIP3   OH248944   5.192   6.431   7.267
16341TIP3    H148945   5.264   6.415   7.332
16341TIP3    H248946   5.245   6.463   7.191
16342TIP3   OH248947   4.129   6.537   7.752
16342TIP3    H148948   4.208   6.510   7.803
16342TIP3    H248949   4.140   6.480   7.673
16343TIP3   OH248950   5.829   6.700   7.822
16343TIP3    H148951   5.748   6.754   7.807
16343TIP3    H248952   5.869   6.745   7.899
16344TIP3   OH248953   4.489   6.319   8.082
16344TIP3    H148954   4.427   6.355   8.016
16344TIP3    H248955   4.439   6.336   8.164
16345TIP3   OH248956   4.821   7.162   7.091
16345TIP3    H148957   4.799   7.162   6.996
16345TIP3    H248958   4.786   7.249   7.118
16346TIP3   OH248959   4.591   7.085   7.875
16346TIP3    H148960   4.533   7.157   7.908
16346TIP3    H248961   4.632   7.128   7.798
16347TIP3   OH248962   5.395   6.434   7.448
16347TIP3    H148963   5.378   6.395   7.535
16347TIP3    H248964   5.448   6.513   7.471
16348TIP3   OH248965   4.363   6.435   7.864
16348TIP3    H148966   4.419   6.513   7.882
16348TIP3    H248967   4.414   6.392   7.792
16349TIP3   OH248968   4.429   7.291   7.970
16349TIP3    H148969   4.407   7.380   7.935
16349TIP3    H248970   4.349   7.276   8.025
16350TIP3   OH248971   3.817   6.978   7.207
16350TIP3    H148972   3.776   7.005   7.123
16350TIP3    H248973   3.847   7.065   7.243
16351TIP3   OH248974   5.239   7.486   7.427
16351TIP3    H148975   5.151   7.485   7.472
16351TIP3    H248976   5.241   7.577   7.391
16352TIP3   OH248977   5.554   6.385   7.810
16352TIP3    H148978   5.468   6.420   7.780
16352TIP3    H248979   5.615   6.422   7.744
16353TIP3   OH248980   4.841   6.034   7.793
16353TIP3    H148981   4.829   5.940   7.815
16353TIP3    H248982   4.766   6.074   7.842
16354TIP3   OH248983   4.956   7.532   7.123
16354TIP3    H148984   5.006   7.450   7.101
16354TIP3    H248985   5.014   7.598   7.080
16355TIP3   OH248986   5.099   7.317   7.036
16355TIP3    H148987   5.082   7.235   6.989
16355TIP3    H248988   5.138   7.285   7.120
16356TIP3   OH248989   5.482   7.397   7.797
16356TIP3    H148990   5.484   7.318   7.738
16356TIP3    H248991   5.458   7.468   7.734
16357TIP3   OH248992   4.776   6.802   7.052
16357TIP3    H148993   4.699   6.858   7.028
16357TIP3    H248994   4.824   6.797   6.967
16358TIP3   OH248995   4.735   6.587   6.764
16358TIP3    H148996   4.803   6.641   6.810
16358TIP3    H248997   4.794   6.524   6.716
16359TIP3   OH248998   5.684   7.035   7.634
16359TIP3    H148999   5.607   7.094   7.653
16359TIP3    H249000   5.709   7.071   7.546
16360TIP3   OH249001   5.124   6.883   7.022
16360TIP3    H149002   5.071   6.907   7.101
16360TIP3    H249003   5.210   6.860   7.064
16361TIP3   OH249004   5.360   6.919   7.939
16361TIP3    H149005   5.365   7.002   7.991
16361TIP3    H249006   5.277   6.934   7.891
16362TIP3   OH249007   4.406   6.817   7.446
16362TIP3    H149008   4.325   6.781   7.403
16362TIP3    H249009   4.442   6.868   7.371
16363TIP3   OH249010   4.487   7.287   7.587
16363TIP3    H149011   4.477   7.269   7.493
16363TIP3    H249012   4.576   7.251   7.607
16364TIP3   OH249013   5.011   7.491   7.572
16364TIP3    H149014   5.003   7.575   7.622
16364TIP3    H249015   4.999   7.423   7.640
16365TIP3   OH249016   4.632   7.409   8.120
16365TIP3    H149017   4.569   7.468   8.166
16365TIP3    H249018   4.569   7.355   8.067
16366TIP3   OH249019   4.959   6.744   6.849
16366TIP3    H149020   5.021   6.803   6.898
16366TIP3    H249021   4.987   6.762   6.756
16367TIP3   OH249022   4.379   6.961   8.208
16367TIP3    H149023   4.391   7.049   8.250
16367TIP3    H249024   4.289   6.940   8.241
16368TIP3   OH249025   4.708   7.416   7.126
16368TIP3    H149026   4.792   7.465   7.134
16368TIP3    H249027   4.651   7.483   7.084
16369TIP3   OH249028   4.424   7.570   8.206
16369TIP3    H149029   4.386   7.579   8.117
16369TIP3    H249030   4.345   7.545   8.260
16370TIP3   OH249031   5.481   5.978   6.900
16370TIP3    H149032   5.399   6.002   6.947
16370TIP3    H249033   5.497   6.060   6.847
16371TIP3   OH249034   4.209   6.729   7.268
16371TIP3    H149035   4.151   6.778   7.206
16371TIP3    H249036   4.179   6.639   7.252
16372TIP3   OH249037   5.280   7.348   6.446
16372TIP3    H149038   5.289   7.444   6.432
16372TIP3    H249039   5.373   7.319   6.434
16373TIP3   OH249040   4.002   7.106   8.154
16373TIP3    H149041   3.932   7.089   8.087
16373TIP3    H249042   4.035   7.016   8.173
16374TIP3   OH249043   3.859   7.302   7.788
16374TIP3    H149044   3.955   7.309   7.784
16374TIP3    H249045   3.836   7.382   7.836
16375TIP3   OH249046   4.827   7.530   7.970
16375TIP3    H149047   4.824   7.626   7.994
16375TIP3    H249048   4.756   7.494   8.028
16376TIP3   OH249049   4.591   7.658   6.932
16376TIP3    H149050   4.548   7.648   6.845
16376TIP3    H249051   4.561   7.748   6.959
16377TIP3   OH249052   4.028   7.514   7.313
16377TIP3    H149053   4.077   7.508   7.398
16377TIP3    H249054   3.969   7.437   7.320
16378TIP3   OH249055   4.788   7.566   6.563
16378TIP3    H149056   4.848   7.496   6.528
16378TIP3    H249057   4.823   7.579   6.654
16379TIP3   OH249058   4.841   7.615   6.830
16379TIP3    H149059   4.757   7.621   6.880
16379TIP3    H249060   4.906   7.601   6.901
16380TIP3   OH249061   5.612   6.878   8.107
16380TIP3    H149062   5.531   6.898   8.058
16380TIP3    H249063   5.620   6.781   8.095
16381TIP3   OH249064   4.209   7.287   8.131
16381TIP3    H149065   4.253   7.282   8.218
16381TIP3    H249066   4.133   7.227   8.144
16382TIP3   OH249067   4.606   6.114   7.928
16382TIP3    H149068   4.518   6.086   7.896
16382TIP3    H249069   4.580   6.194   7.977
16383TIP3   OH249070   5.145   6.226   8.121
16383TIP3    H149071   5.215   6.201   8.184
16383TIP3    H249072   5.063   6.208   8.171
16384TIP3   OH249073   5.375   6.655   8.034
16384TIP3    H149074   5.327   6.654   8.120
16384TIP3    H249075   5.358   6.745   8.001
16385TIP3   OH249076   5.040   6.781   6.595
16385TIP3    H149077   5.004   6.761   6.507
16385TIP3    H249078   5.125   6.824   6.571
16386TIP3   OH249079   4.751   6.159   6.898
16386TIP3    H149080   4.713   6.155   6.988
16386TIP3    H249081   4.712   6.078   6.860
16387TIP3   OH249082   4.524   6.663   7.925
16387TIP3    H149083   4.476   6.649   8.010
16387TIP3    H249084   4.546   6.757   7.934
16388TIP3   OH249085   4.421   6.525   7.472
16388TIP3    H149086   4.327   6.495   7.485
16388TIP3    H249087   4.433   6.491   7.379
16389TIP3   OH249088   4.911   6.599   7.186
16389TIP3    H149089   4.864   6.671   7.140
16389TIP3    H249090   4.969   6.565   7.114
16390TIP3   OH249091   5.087   6.871   8.260
16390TIP3    H149092   5.068   6.803   8.328
16390TIP3    H249093   5.176   6.900   8.288
16391TIP3   OH249094   5.062   6.625   7.422
16391TIP3    H149095   5.006   6.655   7.348
16391TIP3    H249096   5.102   6.547   7.378
16392TIP3   OH249097   4.363   6.647   8.144
16392TIP3    H149098   4.383   6.717   8.208
16392TIP3    H249099   4.346   6.571   8.203
16393TIP3   OH249100   4.411   6.137   6.862
16393TIP3    H149101   4.397   6.135   6.959
16393TIP3    H249102   4.333   6.187   6.833
16394TIP3   OH249103   3.948   6.177   7.734
16394TIP3    H149104   4.026   6.209   7.784
16394TIP3    H249105   3.986   6.147   7.650
16395TIP3   OH249106   3.916   6.159   7.254
16395TIP3    H149107   3.960   6.196   7.174
16395TIP3    H249108   3.853   6.232   7.271
16396TIP3   OH249109   5.063   6.870   7.839
16396TIP3    H149110   5.104   6.799   7.784
16396TIP3    H249111   5.041   6.817   7.919
16397TIP3   OH249112   4.757   6.343   7.519
16397TIP3    H149113   4.681   6.329   7.578
16397TIP3    H249114   4.833   6.326   7.579
16398TIP3   OH249115   4.185   6.395   7.523
16398TIP3    H149116   4.091   6.405   7.494
16398TIP3    H249117   4.204   6.302   7.499
16399TIP3   OH249118   4.448   6.409   7.227
16399TIP3    H149119   4.543   6.409   7.203
16399TIP3    H249120   4.403   6.419   7.141
16400TIP3   OH249121   5.246   6.413   7.719
16400TIP3    H149122   5.216   6.426   7.812
16400TIP3    H249123   5.178   6.353   7.686
16401TIP3   OH249124   4.306   6.424   6.995
16401TIP3    H149125   4.236   6.377   6.946
16401TIP3    H249126   4.357   6.460   6.920
16402TIP3   OH249127   4.376   7.205   8.358
16402TIP3    H149128   4.453   7.242   8.406
16402TIP3    H249129   4.309   7.209   8.428
16403TIP3   OH249130   4.805   6.655   7.617
16403TIP3    H149131   4.882   6.633   7.561
16403TIP3    H249132   4.838   6.625   7.704
16404TIP3   OH249133   4.357   6.150   7.499
16404TIP3    H149134   4.316   6.073   7.546
16404TIP3    H249135   4.393   6.107   7.421
16405TIP3   OH249136   4.806   6.569   7.916
16405TIP3    H149137   4.728   6.625   7.927
16405TIP3    H249138   4.876   6.621   7.960
16406TIP3   OH249139   4.541   6.955   7.006
16406TIP3    H149140   4.472   6.887   6.987
16406TIP3    H249141   4.520   6.977   7.099
16407TIP3   OH249142   5.450   7.184   7.622
16407TIP3    H149143   5.476   7.239   7.544
16407TIP3    H249144   5.364   7.148   7.595
16408TIP3   OH249145   5.005   6.258   6.877
16408TIP3    H149146   4.908   6.240   6.878
16408TIP3    H249147   5.011   6.354   6.892
16409TIP3   OH249148   4.933   7.264   8.004
16409TIP3    H149149   4.983   7.265   8.087
16409TIP3    H249150   4.901   7.356   7.998
16410TIP3   OH249151   5.071   6.516   6.971
16410TIP3    H149152   5.168   6.521   6.982
16410TIP3    H249153   5.052   6.594   6.916
16411TIP3   OH249154   4.240   6.978   7.681
16411TIP3    H149155   4.283   6.924   7.615
16411TIP3    H249156   4.257   6.930   7.765
16412TIP3   OH249157   4.692   7.102   6.824
16412TIP3    H149158   4.644   7.188   6.825
16412TIP3    H249159   4.638   7.050   6.888
16413TIP3   OH249160   4.124   6.887   8.287
16413TIP3    H149161   4.140   6.877   8.383
16413TIP3    H249162   4.048   6.826   8.276
16414TIP3   OH249163   4.850   7.007   8.306
16414TIP3    H149164   4.792   6.945   8.259
16414TIP3    H249165   4.939   6.974   8.280
16415TIP3   OH249166   5.097   7.514   7.891
16415TIP3    H149167   5.001   7.522   7.905
16415TIP3    H249168   5.130   7.572   7.963
16416TIP3   OH249169   5.512   6.608   6.803
16416TIP3    H149170   5.449   6.565   6.740
16416TIP3    H249171   5.509   6.698   6.762
16417TIP3   OH249172   5.730   7.435   7.893
16417TIP3    H149173   5.635   7.420   7.877
16417TIP3    H249174   5.767   7.395   7.812
16418TIP3   OH249175   5.215   7.425   6.710
16418TIP3    H149176   5.187   7.355   6.771
16418TIP3    H249177   5.228   7.377   6.626
16419TIP3   OH249178   5.209   7.055   7.539
16419TIP3    H149179   5.115   7.033   7.552
16419TIP3    H249180   5.241   6.973   7.496
16420TIP3   OH249181   4.344   7.281   7.298
16420TIP3    H149182   4.346   7.363   7.245
16420TIP3    H249183   4.249   7.274   7.316
16421TIP3   OH249184   3.909   6.583   7.011
16421TIP3    H149185   3.950   6.670   7.030
16421TIP3    H249186   3.830   6.587   7.068
16422TIP3   OH249187   4.463   7.029   7.266
16422TIP3    H149188   4.472   7.121   7.235
16422TIP3    H249189   4.404   7.046   7.340
16423TIP3   OH249190   4.612   7.624   7.766
16423TIP3    H149191   4.652   7.698   7.716
16423TIP3    H249192   4.689   7.587   7.811
16424TIP3   OH249193   4.261   7.518   7.155
16424TIP3    H149194   4.175   7.529   7.200
16424TIP3    H249195   4.295   7.611   7.158
16425TIP3   OH249196   4.991   7.255   7.734
16425TIP3    H149197   4.981   7.252   7.832
16425TIP3    H249198   5.080   7.220   7.723
16426TIP3   OH249199   4.977   7.151   6.615
16426TIP3    H149200   5.029   7.126   6.694
16426TIP3    H249201   4.888   7.125   6.642
16427TIP3   OH249202   5.237   7.781   7.774
16427TIP3    H149203   5.150   7.742   7.753
16427TIP3    H249204   5.240   7.854   7.709
16428TIP3   OH249205   5.312   7.624   6.431
16428TIP3    H149206   5.349   7.700   6.383
16428TIP3    H249207   5.231   7.666   6.466
16429TIP3   OH249208   4.327   6.396   8.295
16429TIP3    H149209   4.231   6.405   8.312
16429TIP3    H249210   4.357   6.350   8.375
16430TIP3   OH249211   5.136   7.085   6.832
16430TIP3    H149212   5.127   7.015   6.900
16430TIP3    H249213   5.233   7.081   6.816
16431TIP3   OH249214   4.051   7.487   7.925
16431TIP3    H149215   4.108   7.425   7.973
16431TIP3    H249216   4.065   7.569   7.975
16432TIP3   OH249217   4.337   7.130   6.612
16432TIP3    H149218   4.350   7.037   6.586
16432TIP3    H249219   4.314   7.121   6.707
16433TIP3   OH249220   4.280   7.136   6.885
16433TIP3    H149221   4.362   7.115   6.931
16433TIP3    H249222   4.280   7.234   6.891
16434TIP3   OH249223   4.018   6.830   7.090
16434TIP3    H149224   3.949   6.875   7.144
16434TIP3    H249225   4.029   6.896   7.019
16435TIP3   OH249226   5.172   6.462   7.978
16435TIP3    H149227   5.250   6.507   8.015
16435TIP3    H249228   5.162   6.384   8.037
16436TIP3   OH249229   5.050   6.212   7.152
16436TIP3    H149230   5.036   6.231   7.057
16436TIP3    H249231   5.091   6.296   7.183
16437TIP3   OH249232   4.547   7.329   6.832
16437TIP3    H149233   4.460   7.357   6.867
16437TIP3    H249234   4.570   7.408   6.780
16438TIP3   OH249235   4.731   6.400   7.249
16438TIP3    H149236   4.797   6.469   7.228
16438TIP3    H249237   4.745   6.388   7.346
16439TIP3   OH249238   5.008   6.705   8.052
16439TIP3    H149239   5.033   6.763   8.127
16439TIP3    H249240   5.066   6.628   8.065
16440TIP3   OH249241   4.878   6.114   7.345
16440TIP3    H149242   4.879   6.190   7.406
16440TIP3    H249243   4.941   6.146   7.276
16441TIP3   OH249244   4.293   7.407   6.903
16441TIP3    H149245   4.265   7.478   6.841
16441TIP3    H249246   4.279   7.452   6.990
16442TIP3   OH249247   4.391   6.125   7.140
16442TIP3    H149248   4.385   6.215   7.176
16442TIP3    H249249   4.487   6.109   7.146
16443TIP3   OH249250   5.644   6.610   8.046
16443TIP3    H149251   5.546   6.604   8.043
16443TIP3    H249252   5.667   6.593   7.953
16444TIP3   OH249253   5.296   6.806   7.423
16444TIP3    H149254   5.221   6.745   7.438
16444TIP3    H249255   5.369   6.761   7.472
16445TIP3   OH249256   4.011   7.031   6.893
16445TIP3    H149257   4.080   7.099   6.901
16445TIP3    H249258   4.054   6.974   6.824
16446TIP3   OH249259   3.951   6.311   7.030
16446TIP3    H149260   3.951   6.409   7.027
16446TIP3    H249261   3.878   6.291   6.971
16447TIP3   OH249262   5.275   7.751   7.363
16447TIP3    H149263   5.222   7.795   7.293
16447TIP3    H249264   5.365   7.770   7.331
16448TIP3   OH249265   4.343   6.035   7.888
16448TIP3    H149266   4.312   6.006   7.800
16448TIP3    H249267   4.325   5.955   7.941
16449TIP3   OH249268   3.873   7.241   7.276
16449TIP3    H149269   3.816   7.277   7.345
16449TIP3    H249270   3.840   7.290   7.196
16450TIP3   OH249271   4.031   7.782   8.330
16450TIP3    H149272   4.097   7.796   8.400
16450TIP3    H249273   4.009   7.688   8.340
16451TIP3   OH249274   4.524   7.753   8.387
16451TIP3    H149275   4.615   7.721   8.392
16451TIP3    H249276   4.490   7.697   8.315
16452TIP3   OH249277   4.499   7.333   6.519
16452TIP3    H149278   4.446   7.260   6.558
16452TIP3    H249279   4.576   7.284   6.485
16453TIP3   OH249280   5.156   7.647   8.124
16453TIP3    H149281   5.177   7.590   8.199
16453TIP3    H249282   5.223   7.715   8.133
16454TIP3   OH249283   4.935   7.369   6.435
16454TIP3    H149284   4.980   7.308   6.496
16454TIP3    H249285   4.993   7.368   6.356
16455TIP3   OH249286   4.172   7.193   8.547
16455TIP3    H149287   4.184   7.097   8.551
16455TIP3    H249288   4.084   7.201   8.505
16456TIP3   OH249289   4.146   6.846   6.747
16456TIP3    H149290   4.205   6.819   6.819
16456TIP3    H249291   4.211   6.852   6.673
16457TIP3   OH249292   4.768   7.277   8.326
16457TIP3    H149293   4.734   7.306   8.239
16457TIP3    H249294   4.801   7.187   8.308
16458TIP3   OH249295   4.663   7.050   6.555
16458TIP3    H149296   4.665   7.062   6.652
16458TIP3    H249297   4.664   6.952   6.549
16459TIP3   OH249298   5.265   7.297   7.930
16459TIP3    H149299   5.346   7.331   7.886
16459TIP3    H249300   5.203   7.372   7.912
16460TIP3   OH249301   4.291   6.930   8.532
16460TIP3    H149302   4.371   6.879   8.514
16460TIP3    H249303   4.314   6.967   8.620
16461TIP3   OH249304   4.357   6.753   6.966
16461TIP3    H149305   4.322   6.700   7.039
16461TIP3    H249306   4.396   6.684   6.908
16462TIP3   OH249307   4.620   6.813   8.184
16462TIP3    H149308   4.546   6.878   8.191
16462TIP3    H249309   4.675   6.853   8.113
16463TIP3   OH249310   4.458   6.553   6.806
16463TIP3    H149311   4.432   6.559   6.712
16463TIP3    H249312   4.556   6.553   6.798
16464TIP3   OH249313   5.155   7.217   8.321
16464TIP3    H149314   5.223   7.179   8.264
16464TIP3    H249315   5.146   7.150   8.390
16465TIP3   OH249316   5.273   6.876   6.477
16465TIP3    H149317   5.255   6.833   6.391
16465TIP3    H249318   5.241   6.967   6.456
16466TIP3   OH249319   4.748   6.609   8.316
16466TIP3    H149320   4.749   6.530   8.259
16466TIP3    H249321   4.702   6.675   8.259
16467TIP3   OH249322   4.750   6.391   8.131
16467TIP3    H149323   4.778   6.437   8.049
16467TIP3    H249324   4.656   6.370   8.111
16468TIP3   OH249325   4.769   6.916   7.987
16468TIP3    H149326   4.857   6.949   7.962
16468TIP3    H249327   4.711   6.985   7.947
16469TIP3   OH249328   5.371   6.898   8.378
16469TIP3    H149329   5.423   6.817   8.391
16469TIP3    H249330   5.433   6.953   8.328
16470TIP3   OH249331   5.380   7.138   8.116
16470TIP3    H149332   5.331   7.201   8.059
16470TIP3    H249333   5.471   7.153   8.081
16471TIP3   OH249334   4.621   6.714   8.545
16471TIP3    H149335   4.553   6.646   8.566
16471TIP3    H249336   4.655   6.682   8.460
16472TIP3   OH249337   4.883   6.155   8.202
16472TIP3    H149338   4.832   6.236   8.178
16472TIP3    H249339   4.816   6.085   8.189
16473TIP3   OH249340   5.008   6.657   8.411
16473TIP3    H149341   4.989   6.647   8.506
16473TIP3    H249342   4.919   6.636   8.376
16474TIP3   OH249343   5.243   6.605   8.265
16474TIP3    H149344   5.170   6.614   8.329
16474TIP3    H249345   5.319   6.582   8.322
16475TIP3   OH249346   5.471   6.551   8.413
16475TIP3    H149347   5.484   6.458   8.437
16475TIP3    H249348   5.475   6.596   8.500
16476TIP3   OH249349   4.462   6.493   8.605
16476TIP3    H149350   4.469   6.399   8.578
16476TIP3    H249351   4.495   6.488   8.697
16477TIP3   OH249352   4.972   6.164   8.462
16477TIP3    H149353   5.041   6.096   8.452
16477TIP3    H249354   4.934   6.163   8.371
16478TIP3   OH249355   5.039   6.382   8.619
16478TIP3    H149356   5.019   6.311   8.554
16478TIP3    H249357   4.962   6.442   8.608
16479TIP3   OH249358   4.264   7.606   6.713
16479TIP3    H149359   4.360   7.599   6.696
16479TIP3    H249360   4.238   7.661   6.637
16480TIP3   OH249361   3.742   6.992   6.928
16480TIP3    H149362   3.837   7.013   6.913
16480TIP3    H249363   3.735   6.904   6.886
16481TIP3   OH249364   3.663   7.602   7.344
16481TIP3    H149365   3.596   7.543   7.305
16481TIP3    H249366   3.706   7.542   7.409
16482TIP3   OH249367   3.798   7.446   7.529
16482TIP3    H149368   3.780   7.382   7.599
16482TIP3    H249369   3.848   7.513   7.579
16483TIP3   OH249370   5.565   7.814   7.334
16483TIP3    H149371   5.529   7.833   7.424
16483TIP3    H249372   5.532   7.894   7.285
16484TIP3   OH249373   5.517   7.837   7.594
16484TIP3    H149374   5.476   7.752   7.620
16484TIP3    H249375   5.599   7.833   7.645
16485TIP3   OH249376   5.413   7.064   6.805
16485TIP3    H149377   5.478   7.131   6.773
16485TIP3    H249378   5.460   7.027   6.882
16486TIP3   OH249379   5.543   6.930   7.008
16486TIP3    H149380   5.474   6.891   7.067
16486TIP3    H249381   5.605   6.969   7.072
16487TIP3   OH249382   5.583   7.323   7.425
16487TIP3    H149383   5.639   7.261   7.375
16487TIP3    H249384   5.580   7.401   7.366
16488TIP3   OH249385   5.397   7.594   7.633
16488TIP3    H149386   5.330   7.645   7.683
16488TIP3    H249387   5.345   7.557   7.558
16489TIP3   OH249388   5.478   6.841   6.655
16489TIP3    H149389   5.406   6.842   6.587
16489TIP3    H249390   5.449   6.918   6.708
16490TIP3   OH249391   5.345   6.515   6.611
16490TIP3    H149392   5.309   6.548   6.528
16490TIP3    H249393   5.323   6.419   6.603
16491TIP3   OH249394   5.352   6.793   7.154
16491TIP3    H149395   5.360   6.697   7.146
16491TIP3    H249396   5.337   6.805   7.250
16492TIP3   OH249397   3.993   6.851   7.909
16492TIP3    H149398   3.981   6.824   7.816
16492TIP3    H249399   4.090   6.863   7.912
16493TIP3   OH249400   5.610   7.159   7.960
16493TIP3    H149401   5.690   7.106   7.973
16493TIP3    H249402   5.647   7.248   7.976
16494TIP3   OH249403   5.835   7.016   8.035
16494TIP3    H149404   5.759   6.969   8.077
16494TIP3    H249405   5.900   6.943   8.031
16495TIP3   OH249406   5.289   6.249   6.597
16495TIP3    H149407   5.362   6.212   6.651
16495TIP3    H249408   5.216   6.187   6.611
16496TIP3   OH249409   5.351   6.508   7.046
16496TIP3    H149410   5.393   6.419   7.059
16496TIP3    H249411   5.407   6.542   6.974
16497TIP3   OH249412   5.509   6.675   7.546
16497TIP3    H149413   5.595   6.698   7.504
16497TIP3    H249414   5.523   6.716   7.634
16498TIP3   OH249415   5.580   6.824   7.775
16498TIP3    H149416   5.505   6.862   7.825
16498TIP3    H249417   5.614   6.904   7.729
16499TIP3   OH249418   4.196   6.545   8.565
16499TIP3    H149419   4.294   6.544   8.578
16499TIP3    H249420   4.173   6.460   8.609
16500TIP3   OH249421   6.029   6.383   8.340
16500TIP3    H149422   6.092   6.340   8.279
16500TIP3    H249423   6.001   6.461   8.289
16501TIP3   OH249424   5.459   6.258   7.087
16501TIP3    H149425   5.507   6.240   7.170
16501TIP3    H249426   5.398   6.181   7.084
16502TIP3   OH249427   4.159   6.241   7.902
16502TIP3    H149428   4.221   6.166   7.910
16502TIP3    H249429   4.220   6.316   7.900
16503TIP3   OH249430   3.959   6.512   7.979
16503TIP3    H149431   4.007   6.516   7.894
16503TIP3    H249432   3.975   6.600   8.015
16504TIP3   OH249433   5.885   6.542   8.159
16504TIP3    H149434   5.802   6.590   8.138
16504TIP3    H249435   5.876   6.469   8.095
16505TIP3   OH249436   5.537   6.185   6.725
16505TIP3    H149437   5.574   6.119   6.662
16505TIP3    H249438   5.600   6.259   6.716
16506TIP3   OH249439   3.946   6.023   7.485
16506TIP3    H149440   3.853   6.012   7.509
16506TIP3    H249441   3.939   6.079   7.405
16507TIP3   OH249442   5.087   7.714   6.974
16507TIP3    H149443   5.150   7.715   6.899
16507TIP3    H249444   5.126   7.783   7.032
16508TIP3   OH249445   4.158   6.082   8.286
16508TIP3    H149446   4.116   6.090   8.373
16508TIP3    H249447   4.097   6.134   8.231
16509TIP3   OH249448   4.212   7.507   8.373
16509TIP3    H149449   4.116   7.497   8.359
16509TIP3    H249450   4.215   7.529   8.467
16510TIP3   OH249451   4.388   7.561   7.917
16510TIP3    H149452   4.338   7.637   7.881
16510TIP3    H249453   4.473   7.578   7.872
16511TIP3   OH249454   4.831   7.804   8.029
16511TIP3    H149455   4.864   7.797   8.121
16511TIP3    H249456   4.901   7.859   7.989
16512TIP3   OH249457   5.033   7.965   7.926
16512TIP3    H149458   5.080   7.903   7.868
16512TIP3    H249459   5.110   8.018   7.955
16513TIP3   OH249460   5.803   6.315   8.014
16513TIP3    H149461   5.714   6.312   7.976
16513TIP3    H249462   5.832   6.221   8.003
16514TIP3   OH249463   4.059   7.815   7.950
16514TIP3    H149464   3.967   7.843   7.931
16514TIP3    H249465   4.079   7.876   8.024
16515TIP3   OH249466   4.291   7.791   7.803
16515TIP3    H149467   4.206   7.805   7.849
16515TIP3    H249468   4.271   7.826   7.714
16516TIP3   OH249469   4.720   7.820   7.599
16516TIP3    H149470   4.652   7.839   7.532
16516TIP3    H249471   4.732   7.908   7.640
16517TIP3   OH249472   4.990   7.757   7.655
16517TIP3    H149473   4.899   7.782   7.632
16517TIP3    H249474   5.042   7.827   7.610
16518TIP3   OH249475   5.176   7.941   7.562
16518TIP3    H149476   5.172   8.033   7.527
16518TIP3    H249477   5.225   7.897   7.490
16519TIP3   OH249478   3.971   7.610   7.682
16519TIP3    H149479   3.995   7.583   7.773
16519TIP3    H249480   4.045   7.568   7.633
16520TIP3   OH249481   4.167   7.484   7.544
16520TIP3    H149482   4.182   7.401   7.597
16520TIP3    H249483   4.258   7.522   7.544
16521TIP3   OH249484   4.431   7.575   7.555
16521TIP3    H149485   4.467   7.485   7.546
16521TIP3    H249486   4.478   7.604   7.636
16522TIP3   OH249487   4.998   6.229   7.629
16522TIP3    H149488   4.963   6.157   7.684
16522TIP3    H249489   5.078   6.189   7.589
16523TIP3   OH249490   5.524   6.111   7.539
16523TIP3    H149491   5.561   6.163   7.465
16523TIP3    H249492   5.430   6.136   7.535
16524TIP3   OH249493   5.622   6.207   7.304
16524TIP3    H149494   5.697   6.157   7.265
16524TIP3    H249495   5.656   6.299   7.290
16525TIP3   OH249496   4.252   5.940   7.647
16525TIP3    H149497   4.159   5.910   7.649
16525TIP3    H249498   4.299   5.854   7.643
16526TIP3   OH249499   4.054   5.812   7.305
16526TIP3    H149500   4.077   5.866   7.227
16526TIP3    H249501   4.020   5.880   7.367
16527TIP3   OH249502   4.704   5.972   7.535
16527TIP3    H149503   4.756   6.016   7.466
16527TIP3    H249504   4.743   6.009   7.616
16528TIP3   OH249505   5.235   6.121   7.517
16528TIP3    H149506   5.245   6.082   7.429
16528TIP3    H249507   5.228   6.040   7.574
16529TIP3   OH249508   5.276   6.046   7.079
16529TIP3    H149509   5.190   6.089   7.094
16529TIP3    H249510   5.261   5.959   7.123
16530TIP3   OH249511   3.759   7.386   7.078
16530TIP3    H149512   3.673   7.354   7.045
16530TIP3    H249513   3.751   7.480   7.056
16531TIP3   OH249514   4.162   5.965   7.064
16531TIP3    H149515   4.207   5.902   7.003
16531TIP3    H249516   4.236   6.018   7.097
16532TIP3   OH249517   4.665   6.150   7.162
16532TIP3    H149518   4.728   6.101   7.218
16532TIP3    H249519   4.691   6.242   7.186
16533TIP3   OH249520   4.532   7.564   6.663
16533TIP3    H149521   4.619   7.589   6.626
16533TIP3    H249522   4.510   7.490   6.602
16534TIP3   OH249523   5.257   7.692   6.753
16534TIP3    H149524   5.246   7.594   6.741
16534TIP3    H249525   5.209   7.725   6.674
16535TIP3   OH249526   4.463   6.216   8.536
16535TIP3    H149527   4.425   6.148   8.594
16535TIP3    H249528   4.556   6.216   8.567
16536TIP3   OH249529   4.713   6.216   8.655
16536TIP3    H149530   4.801   6.194   8.622
16536TIP3    H249531   4.699   6.146   8.723
16537TIP3   OH249532   3.833   7.402   6.714
16537TIP3    H149533   3.839   7.423   6.808
16537TIP3    H249534   3.920   7.359   6.696
16538TIP3   OH249535   5.538   6.281   8.449
16538TIP3    H149536   5.559   6.253   8.541
16538TIP3    H249537   5.627   6.280   8.407
16539TIP3   OH249538   6.746   7.225   6.705
16539TIP3    H149539   6.709   7.311   6.672
16539TIP3    H249540   6.673   7.166   6.678
16540TIP3   OH249541   6.689   7.219   7.106
16540TIP3    H149542   6.757   7.158   7.137
16540TIP3    H249543   6.646   7.167   7.037
16541TIP3   OH249544   6.047   7.100   7.449
16541TIP3    H149545   6.061   7.055   7.534
16541TIP3    H249546   6.108   7.175   7.456
16542TIP3   OH249547   6.034   7.506   7.170
16542TIP3    H149548   6.002   7.414   7.181
16542TIP3    H249549   6.124   7.487   7.137
16543TIP3   OH249550   5.719   6.710   6.957
16543TIP3    H149551   5.671   6.792   6.977
16543TIP3    H249552   5.649   6.660   6.911
16544TIP3   OH249553   5.776   7.001   7.140
16544TIP3    H149554   5.827   6.923   7.170
16544TIP3    H249555   5.834   7.040   7.074
16545TIP3   OH249556   6.911   6.889   7.188
16545TIP3    H149557   6.939   6.802   7.153
16545TIP3    H249558   6.904   6.940   7.105
16546TIP3   OH249559   6.297   6.589   7.128
16546TIP3    H149560   6.274   6.663   7.067
16546TIP3    H249561   6.246   6.516   7.086
16547TIP3   OH249562   6.968   6.677   6.723
16547TIP3    H149563   7.038   6.638   6.779
16547TIP3    H249564   7.021   6.720   6.654
16548TIP3   OH249565   5.925   6.794   7.240
16548TIP3    H149566   6.007   6.772   7.288
16548TIP3    H249567   5.936   6.738   7.161
16549TIP3   OH249568   6.360   6.988   7.036
16549TIP3    H149569   6.454   6.961   7.047
16549TIP3    H249570   6.320   6.905   7.001
16550TIP3   OH249571   6.290   6.573   7.571
16550TIP3    H149572   6.231   6.608   7.501
16550TIP3    H249573   6.236   6.590   7.651
16551TIP3   OH249574   6.642   7.438   6.569
16551TIP3    H149575   6.594   7.429   6.486
16551TIP3    H249576   6.610   7.526   6.598
16552TIP3   OH249577   7.154   6.639   6.914
16552TIP3    H149578   7.106   6.595   6.987
16552TIP3    H249579   7.125   6.731   6.925
16553TIP3   OH249580   6.161   6.683   7.349
16553TIP3    H149581   6.220   6.759   7.371
16553TIP3    H249582   6.209   6.644   7.273
16554TIP3   OH249583   5.611   7.234   6.694
16554TIP3    H149584   5.571   7.263   6.610
16554TIP3    H249585   5.641   7.320   6.731
16555TIP3   OH249586   6.639   6.287   7.291
16555TIP3    H149587   6.618   6.193   7.302
16555TIP3    H249588   6.561   6.328   7.336
16556TIP3   OH249589   6.938   7.568   6.544
16556TIP3    H149590   6.875   7.519   6.490
16556TIP3    H249591   6.878   7.613   6.608
16557TIP3   OH249592   6.578   7.066   6.542
16557TIP3    H149593   6.495   7.116   6.527
16557TIP3    H249594   6.615   7.064   6.452
16558TIP3   OH249595   6.531   6.844   6.249
16558TIP3    H149596   6.598   6.899   6.296
16558TIP3    H249597   6.591   6.782   6.202
16559TIP3   OH249598   6.912   7.143   6.504
16559TIP3    H149599   6.857   7.174   6.580
16559TIP3    H249600   6.993   7.115   6.551
16560TIP3   OH249601   6.148   7.133   6.929
16560TIP3    H149602   6.110   7.077   6.858
16560TIP3    H249603   6.227   7.081   6.956
16561TIP3   OH249604   6.275   7.471   7.051
16561TIP3    H149605   6.246   7.487   6.960
16561TIP3    H249606   6.343   7.538   7.064
16562TIP3   OH249607   6.323   7.117   7.278
16562TIP3    H149608   6.335   7.080   7.188
16562TIP3    H249609   6.330   7.212   7.261
16563TIP3   OH249610   6.757   6.995   6.331
16563TIP3    H149611   6.813   7.060   6.380
16563TIP3    H249612   6.784   7.016   6.238
16564TIP3   OH249613   6.538   7.685   6.618
16564TIP3    H149614   6.592   7.726   6.688
16564TIP3    H249615   6.462   7.745   6.615
16565TIP3   OH249616   7.274   6.233   6.386
16565TIP3    H149617   7.191   6.257   6.433
16565TIP3    H249618   7.292   6.316   6.336
16566TIP3   OH249619   6.020   6.978   6.725
16566TIP3    H149620   5.952   7.027   6.674
16566TIP3    H249621   5.976   6.894   6.739
16567TIP3   OH249622   7.078   7.606   5.946
16567TIP3    H149623   7.086   7.702   5.928
16567TIP3    H249624   7.162   7.574   5.907
16568TIP3   OH249625   5.781   7.321   7.653
16568TIP3    H149626   5.733   7.336   7.570
16568TIP3    H249627   5.854   7.264   7.627
16569TIP3   OH249628   5.650   7.559   7.277
16569TIP3    H149629   5.742   7.564   7.308
16569TIP3    H249630   5.613   7.645   7.308
16570TIP3   OH249631   6.378   7.930   6.395
16570TIP3    H149632   6.338   7.899   6.312
16570TIP3    H249633   6.327   8.009   6.416
16571TIP3   OH249634   5.826   7.772   6.800
16571TIP3    H149635   5.874   7.763   6.885
16571TIP3    H249636   5.757   7.706   6.812
16572TIP3   OH249637   6.582   7.820   6.048
16572TIP3    H149638   6.643   7.753   6.009
16572TIP3    H249639   6.616   7.826   6.140
16573TIP3   OH249640   6.628   7.857   6.321
16573TIP3    H149641   6.537   7.868   6.357
16573TIP3    H249642   6.679   7.864   6.404
16574TIP3   OH249643   6.407   6.371   7.415
16574TIP3    H149644   6.318   6.340   7.388
16574TIP3    H249645   6.381   6.450   7.466
16575TIP3   OH249646   6.836   7.035   6.077
16575TIP3    H149647   6.802   7.015   5.987
16575TIP3    H249648   6.920   7.080   6.054
16576TIP3   OH249649   6.552   6.412   6.384
16576TIP3    H149650   6.513   6.411   6.474
16576TIP3    H249651   6.507   6.334   6.346
16577TIP3   OH249652   6.320   6.892   7.431
16577TIP3    H149653   6.262   6.918   7.506
16577TIP3    H249654   6.319   6.974   7.377
16578TIP3   OH249655   6.219   6.770   6.943
16578TIP3    H149656   6.126   6.746   6.961
16578TIP3    H249657   6.230   6.730   6.854
16579TIP3   OH249658   6.703   6.853   6.660
16579TIP3    H149659   6.656   6.929   6.618
16579TIP3    H249660   6.760   6.822   6.587
16580TIP3   OH249661   6.827   6.840   6.914
16580TIP3    H149662   6.789   6.903   6.851
16580TIP3    H249663   6.858   6.773   6.851
16581TIP3   OH249664   6.181   6.935   7.668
16581TIP3    H149665   6.126   6.987   7.729
16581TIP3    H249666   6.167   6.845   7.704
16582TIP3   OH249667   6.209   6.394   6.349
16582TIP3    H149668   6.193   6.394   6.446
16582TIP3    H249669   6.131   6.445   6.319
16583TIP3   OH249670   5.745   6.432   7.223
16583TIP3    H149671   5.821   6.465   7.276
16583TIP3    H249672   5.786   6.407   7.139
16584TIP3   OH249673   5.711   6.417   6.740
16584TIP3    H149674   5.754   6.454   6.659
16584TIP3    H249675   5.649   6.490   6.758
16585TIP3   OH249676   6.550   6.580   7.005
16585TIP3    H149677   6.463   6.580   7.050
16585TIP3    H249678   6.607   6.611   7.076
16586TIP3   OH249679   5.980   6.652   7.011
16586TIP3    H149680   5.886   6.662   6.982
16586TIP3    H249681   5.999   6.559   6.988
16587TIP3   OH249682   6.248   6.645   6.702
16587TIP3    H149683   6.339   6.662   6.673
16587TIP3    H249684   6.195   6.666   6.622
16588TIP3   OH249685   7.016   6.637   7.165
16588TIP3    H149686   7.027   6.647   7.261
16588TIP3    H249687   6.943   6.572   7.160
16589TIP3   OH249688   6.099   6.677   6.480
16589TIP3    H149689   6.027   6.633   6.432
16589TIP3    H249690   6.149   6.716   6.405
16590TIP3   OH249691   6.616   6.905   7.091
16590TIP3    H149692   6.696   6.877   7.041
16590TIP3    H249693   6.630   6.864   7.178
16591TIP3   OH249694   6.151   6.406   6.986
16591TIP3    H149695   6.112   6.331   7.037
16591TIP3    H249696   6.179   6.362   6.905
16592TIP3   OH249697   6.579   6.798   7.374
16592TIP3    H149698   6.490   6.833   7.393
16592TIP3    H249699   6.635   6.847   7.435
16593TIP3   OH249700   6.345   7.205   6.490
16593TIP3    H149701   6.271   7.143   6.475
16593TIP3    H249702   6.321   7.241   6.579
16594TIP3   OH249703   6.801   6.516   6.358
16594TIP3    H149704   6.704   6.498   6.361
16594TIP3    H249705   6.806   6.612   6.377
16595TIP3   OH249706   6.869   6.772   6.448
16595TIP3    H149707   6.965   6.785   6.456
16595TIP3    H249708   6.842   6.851   6.396
16596TIP3   OH249709   6.033   7.227   7.166
16596TIP3    H149710   6.074   7.203   7.080
16596TIP3    H249711   6.067   7.159   7.225
16597TIP3   OH249712   6.489   7.357   6.312
16597TIP3    H149713   6.440   7.443   6.313
16597TIP3    H249714   6.435   7.304   6.374
16598TIP3   OH249715   5.940   7.085   7.759
16598TIP3    H149716   5.926   7.115   7.851
16598TIP3    H249717   5.848   7.072   7.730
16599TIP3   OH249718   7.312   6.865   6.288
16599TIP3    H149719   7.250   6.819   6.227
16599TIP3    H249720   7.303   6.954   6.249
16600TIP3   OH249721   7.017   7.674   6.213
16600TIP3    H149722   6.983   7.592   6.250
16600TIP3    H249723   7.033   7.650   6.120
16601TIP3   OH249724   6.140   7.539   6.793
16601TIP3    H149725   6.140   7.619   6.737
16601TIP3    H249726   6.045   7.523   6.801
16602TIP3   OH249727   5.705   6.838   6.498
16602TIP3    H149728   5.746   6.925   6.518
16602TIP3    H249729   5.625   6.842   6.556
16603TIP3   OH249730   6.266   7.298   6.730
16603TIP3    H149731   6.234   7.389   6.748
16603TIP3    H249732   6.232   7.252   6.809
16604TIP3   OH249733   6.057   7.774   6.639
16604TIP3    H149734   5.971   7.786   6.685
16604TIP3    H249735   6.089   7.867   6.633
16605TIP3   OH249736   6.767   7.406   6.097
16605TIP3    H149737   6.819   7.379   6.177
16605TIP3    H249738   6.677   7.383   6.125
16606TIP3   OH249739   7.105   7.876   5.918
16606TIP3    H149740   7.098   7.935   5.840
16606TIP3    H249741   7.022   7.902   5.965
16607TIP3   OH249742   6.129   6.653   7.786
16607TIP3    H149743   6.033   6.664   7.797
16607TIP3    H249744   6.150   6.595   7.861
16608TIP3   OH249745   6.930   7.340   6.309
16608TIP3    H149746   6.914   7.278   6.382
16608TIP3    H249747   7.026   7.329   6.297
16609TIP3   OH249748   6.135   7.385   6.098
16609TIP3    H149749   6.146   7.291   6.075
16609TIP3    H249750   6.114   7.378   6.194
16610TIP3   OH249751   6.077   7.393   6.369
16610TIP3    H149752   6.149   7.370   6.430
16610TIP3    H249753   6.078   7.491   6.375
16611TIP3   OH249754   5.811   7.086   6.578
16611TIP3    H149755   5.744   7.131   6.633
16611TIP3    H249756   5.822   7.153   6.507
16612TIP3   OH249757   6.843   6.454   6.628
16612TIP3    H149758   6.823   6.470   6.533
16612TIP3    H249759   6.874   6.543   6.655
16613TIP3   OH249760   6.344   7.584   6.318
16613TIP3    H149761   6.258   7.611   6.354
16613TIP3    H249762   6.366   7.664   6.266
16614TIP3   OH249763   6.539   6.648   6.735
16614TIP3    H149764   6.597   6.724   6.714
16614TIP3    H249765   6.539   6.649   6.833
16615TIP3   OH249766   6.676   6.378   6.843
16615TIP3    H149767   6.645   6.461   6.885
16615TIP3    H249768   6.734   6.411   6.772
16616TIP3   OH249769   6.091   7.664   6.389
16616TIP3    H149770   6.061   7.735   6.327
16616TIP3    H249771   6.076   7.706   6.476
16617TIP3   OH249772   6.188   6.380   6.627
16617TIP3    H149773   6.184   6.471   6.662
16617TIP3    H249774   6.284   6.364   6.632
16618TIP3   OH249775   5.806   7.287   6.380
16618TIP3    H149776   5.872   7.359   6.388
16618TIP3    H249777   5.852   7.232   6.313
16619TIP3   OH249778   5.748   6.566   6.514
16619TIP3    H149779   5.743   6.664   6.511
16619TIP3    H249780   5.675   6.540   6.455
16620TIP3   OH249781   6.144   6.289   7.382
16620TIP3    H149782   6.111   6.256   7.296
16620TIP3    H249783   6.131   6.212   7.440
16621TIP3   OH249784   5.666   7.494   6.764
16621TIP3    H149785   5.614   7.534   6.835
16621TIP3    H249786   5.634   7.544   6.685
16622TIP3   OH249787   6.294   7.587   6.004
16622TIP3    H149788   6.241   7.515   6.044
16622TIP3    H249789   6.372   7.538   5.973
16623TIP3   OH249790   6.731   7.627   5.920
16623TIP3    H149791   6.777   7.566   5.980
16623TIP3    H249792   6.787   7.626   5.840
16624TIP3   OH249793   5.944   7.104   6.234
16624TIP3    H149794   6.002   7.077   6.307
16624TIP3    H249795   6.011   7.110   6.161
16625TIP3   OH249796   6.462   7.307   6.042
16625TIP3    H149797   6.460   7.319   6.139
16625TIP3    H249798   6.459   7.210   6.036
16626TIP3   OH249799   6.148   7.013   6.453
16626TIP3    H149800   6.117   6.974   6.536
16626TIP3    H249801   6.185   6.936   6.405
16627TIP3   OH249802   6.253   6.807   6.294
16627TIP3    H149803   6.226   6.817   6.200
16627TIP3    H249804   6.351   6.811   6.285
16628TIP3   OH249805   7.069   7.130   5.963
16628TIP3    H149806   7.058   7.085   5.877
16628TIP3    H249807   7.036   7.220   5.939
16629TIP3   OH249808   6.561   6.626   7.608
16629TIP3    H149809   6.575   6.664   7.520
16629TIP3    H249810   6.466   6.605   7.605
16630TIP3   OH249811   6.060   7.867   6.201
16630TIP3    H149812   6.155   7.857   6.180
16630TIP3    H249813   6.033   7.920   6.124
16631TIP3   OH249814   5.537   7.249   6.413
16631TIP3    H149815   5.632   7.270   6.400
16631TIP3    H249816   5.531   7.160   6.371
16632TIP3   OH249817   5.470   7.854   6.826
16632TIP3    H149818   5.396   7.800   6.790
16632TIP3    H249819   5.505   7.796   6.895
16633TIP3   OH249820   5.599   7.702   7.016
16633TIP3    H149821   5.591   7.640   7.091
16633TIP3    H249822   5.635   7.781   7.061
16634TIP3   OH249823   7.208   7.315   6.288
16634TIP3    H149824   7.243   7.403   6.269
16634TIP3    H249825   7.268   7.284   6.357
16635TIP3   OH249826   7.337   7.139   6.481
16635TIP3    H149827   7.255   7.103   6.524
16635TIP3    H249828   7.343   7.227   6.523
16636TIP3   OH249829   7.268   7.091   6.142
16636TIP3    H149830   7.200   7.089   6.071
16636TIP3    H249831   7.236   7.170   6.190
16637TIP3   OH249832   7.144   6.766   6.101
16637TIP3    H149833   7.141   6.809   6.013
16637TIP3    H249834   7.115   6.676   6.079
16638TIP3   OH249835   7.135   7.041   6.635
16638TIP3    H149836   7.142   6.944   6.630
16638TIP3    H249837   7.139   7.057   6.730
16639TIP3   OH249838   5.779   7.117   7.389
16639TIP3    H149839   5.769   7.085   7.297
16639TIP3    H249840   5.876   7.115   7.398
16640TIP3   OH249841   7.090   6.495   6.073
16640TIP3    H149842   7.149   6.468   6.146
16640TIP3    H249843   7.007   6.448   6.091
16641TIP3   OH249844   7.155   6.767   6.531
16641TIP3    H149845   7.193   6.677   6.545
16641TIP3    H249846   7.207   6.796   6.454
16642TIP3   OH249847   5.989   6.790   8.034
16642TIP3    H149848   6.075   6.834   8.043
16642TIP3    H249849   5.989   6.727   8.109
16643TIP3   OH249850   7.255   6.512   6.577
16643TIP3    H149851   7.296   6.491   6.663
16643TIP3    H249852   7.191   6.438   6.570
16644TIP3   OH249853   5.955   6.496   7.392
16644TIP3    H149854   6.018   6.421   7.400
16644TIP3    H249855   6.017   6.571   7.384
16645TIP3   OH249856   5.754   6.769   7.468
16645TIP3    H149857   5.806   6.775   7.385
16645TIP3    H249858   5.763   6.858   7.504
16646TIP3   OH249859   7.341   6.443   6.222
16646TIP3    H149860   7.378   6.380   6.156
16646TIP3    H249861   7.397   6.522   6.207
16647TIP3   OH249862   5.743   6.275   6.967
16647TIP3    H149863   5.650   6.268   6.994
16647TIP3    H249864   5.736   6.333   6.888
16648TIP3   OH249865   5.957   6.345   7.773
16648TIP3    H149866   5.911   6.351   7.859
16648TIP3    H249867   5.892   6.391   7.716
16649TIP3   OH249868   5.783   7.875   7.151
16649TIP3    H149869   5.766   7.844   7.241
16649TIP3    H249870   5.856   7.818   7.119
16650TIP3   OH249871   5.975   7.727   7.027
16650TIP3    H149872   5.990   7.643   7.076
16650TIP3    H249873   6.066   7.759   7.014
16651TIP3   OH249874   6.803   6.467   7.142
16651TIP3    H149875   6.743   6.408   7.191
16651TIP3    H249876   6.827   6.412   7.066
16652TIP3   OH249877   7.349   6.422   7.071
16652TIP3    H149878   7.373   6.451   6.981
16652TIP3    H249879   7.252   6.415   7.061
16653TIP3   OH249880   7.423   6.458   6.802
16653TIP3    H149881   7.490   6.401   6.758
16653TIP3    H249882   7.461   6.546   6.781
16654TIP3   OH249883   6.050   6.195   7.136
16654TIP3    H149884   5.957   6.164   7.140
16654TIP3    H249885   6.097   6.109   7.132
16655TIP3   OH249886   5.849   6.068   6.790
16655TIP3    H149887   5.872   6.124   6.713
16655TIP3    H249888   5.816   6.135   6.853
16656TIP3   OH249889   6.502   6.223   7.017
16656TIP3    H149890   6.558   6.278   6.960
16656TIP3    H249891   6.502   6.273   7.099
16657TIP3   OH249892   7.078   6.368   7.006
16657TIP3    H149893   7.058   6.329   6.920
16657TIP3    H249894   7.050   6.296   7.067
16658TIP3   OH249895   7.072   6.302   6.567
16658TIP3    H149896   6.985   6.346   6.582
16658TIP3    H249897   7.055   6.216   6.610
16659TIP3   OH249898   5.556   7.641   6.564
16659TIP3    H149899   5.469   7.613   6.530
16659TIP3    H249900   5.549   7.737   6.547
16660TIP3   OH249901   5.957   6.218   6.554
16660TIP3    H149902   6.005   6.159   6.492
16660TIP3    H249903   6.029   6.275   6.586
16661TIP3   OH249904   6.465   6.402   6.647
16661TIP3    H149905   6.520   6.351   6.708
16661TIP3    H249906   6.489   6.494   6.673
16662TIP3   OH249907   6.325   7.818   6.146
16662TIP3    H149908   6.413   7.842   6.108
16662TIP3    H249909   6.303   7.742   6.087
16663TIP3   OH249910   6.231   6.437   8.000
16663TIP3    H149911   6.216   6.370   8.069
16663TIP3    H249912   6.327   6.449   8.003
16664TIP3   OH249913   5.628   7.659   6.201
16664TIP3    H149914   5.628   7.684   6.294
16664TIP3    H249915   5.716   7.618   6.189
16665TIP3   OH249916   8.377   6.638   5.867
16665TIP3    H149917   8.315   6.698   5.909
16665TIP3    H249918   8.318   6.566   5.836
16666TIP3   OH249919   8.003   6.655   5.837
16666TIP3    H149920   7.975   6.649   5.929
16666TIP3    H249921   7.929   6.708   5.800
16667TIP3   OH249922   7.561   6.677   6.705
16667TIP3    H149923   7.582   6.769   6.682
16667TIP3    H249924   7.565   6.632   6.617
16668TIP3   OH249925   7.510   6.677   6.231
16668TIP3    H149926   7.549   6.710   6.147
16668TIP3    H249927   7.444   6.747   6.246
16669TIP3   OH249928   7.900   6.911   5.973
16669TIP3    H149929   7.831   6.880   5.912
16669TIP3    H249930   7.954   6.964   5.910
16670TIP3   OH249931   7.950   6.655   6.466
16670TIP3    H149932   7.891   6.580   6.493
16670TIP3    H249933   7.965   6.636   6.373
16671TIP3   OH249934   7.487   7.088   5.977
16671TIP3    H149935   7.492   7.186   5.965
16671TIP3    H249936   7.409   7.083   6.036
16672TIP3   OH249937   7.523   7.364   5.987
16672TIP3    H149938   7.533   7.413   6.071
16672TIP3    H249939   7.588   7.406   5.928
16673TIP3   OH249940   7.967   6.638   6.116
16673TIP3    H149941   7.964   6.735   6.114
16673TIP3    H249942   8.061   6.618   6.130
16674TIP3   OH249943   7.535   6.819   6.002
16674TIP3    H149944   7.545   6.916   5.998
16674TIP3    H249945   7.465   6.806   5.937
16675TIP3   OH249946   7.738   7.356   5.730
16675TIP3    H149947   7.801   7.300   5.776
16675TIP3    H249948   7.793   7.379   5.651
16676TIP3   OH249949   8.044   7.043   5.778
16676TIP3    H149950   8.007   7.052   5.687
16676TIP3    H249951   8.133   7.078   5.765
16677TIP3   OH249952   7.316   7.506   5.841
16677TIP3    H149953   7.386   7.495   5.907
16677TIP3    H249954   7.307   7.413   5.812
16678TIP3   OH249955   7.525   6.548   6.467
16678TIP3    H149956   7.430   6.526   6.475
16678TIP3    H249957   7.527   6.596   6.381
16679TIP3   OH249958   7.808   6.458   6.578
16679TIP3    H149959   7.722   6.423   6.609
16679TIP3    H249960   7.864   6.379   6.589
16680TIP3   OH249961   7.641   6.319   6.276
16680TIP3    H149962   7.667   6.369   6.196
16680TIP3    H249963   7.614   6.390   6.336
16681TIP3   OH249964   7.748   6.470   6.039
16681TIP3    H149965   7.800   6.412   5.978
16681TIP3    H249966   7.819   6.528   6.074
16682TIP3   OH249967   1.532   7.274   7.556
16682TIP3    H149968   1.461   7.301   7.615
16682TIP3    H249969   1.547   7.355   7.503
16683TIP3   OH249970   1.507   7.808   7.260
16683TIP3    H149971   1.425   7.855   7.234
16683TIP3    H249972   1.472   7.717   7.259
16684TIP3   OH249973   1.359   7.565   7.262
16684TIP3    H149974   1.435   7.524   7.307
16684TIP3    H249975   1.285   7.511   7.298
16685TIP3   OH249976   1.593   7.488   7.387
16685TIP3    H149977   1.627   7.414   7.332
16685TIP3    H249978   1.669   7.550   7.386
16686TIP3   OH249979   3.608   8.056   7.795
16686TIP3    H149980   3.625   8.149   7.815
16686TIP3    H249981   3.633   8.051   7.702
16687TIP3   OH249982   3.037   7.966   7.399
16687TIP3    H149983   3.103   7.946   7.471
16687TIP3    H249984   3.096   8.009   7.334
16688TIP3   OH249985   3.221   7.952   7.594
16688TIP3    H149986   3.209   7.926   7.686
16688TIP3    H249987   3.271   8.036   7.604
16689TIP3   OH249988   3.402   7.938   7.961
16689TIP3    H149989   3.328   8.001   7.961
16689TIP3    H249990   3.465   7.979   7.899
16690TIP3   OH249991   2.702   7.593   7.966
16690TIP3    H149992   2.677   7.498   7.975
16690TIP3    H249993   2.614   7.633   7.957
16691TIP3   OH249994   2.592   8.324   7.167
16691TIP3    H149995   2.560   8.416   7.173
16691TIP3    H249996   2.667   8.333   7.106
16692TIP3   OH249997   2.569   8.145   6.904
16692TIP3    H149998   2.623   8.190   6.971
16692TIP3    H249999   2.635   8.085   6.864
16693TIP3   OH250000   2.953   8.452   7.185
16693TIP3    H150001   2.912   8.459   7.273
16693TIP3    H250002   3.042   8.419   7.210
16694TIP3   OH250003   2.811   8.302   7.004
16694TIP3    H150004   2.866   8.368   7.053
16694TIP3    H250005   2.834   8.323   6.911
16695TIP3   OH250006   3.320   7.538   7.048
16695TIP3    H150007   3.239   7.559   7.099
16695TIP3    H250008   3.334   7.622   6.999
16696TIP3   OH250009   3.122   8.888   6.598
16696TIP3    H150010   3.131   8.981   6.570
16696TIP3    H250011   3.216   8.859   6.591
16697TIP3   OH250012   2.880   8.343   6.748
16697TIP3    H150013   2.848   8.319   6.658
16697TIP3    H250014   2.965   8.385   6.726
16698TIP3   OH250015   2.596   7.718   7.046
16698TIP3    H150016   2.564   7.715   7.139
16698TIP3    H250017   2.555   7.636   7.013
16699TIP3   OH250018   2.752   8.156   7.327
16699TIP3    H150019   2.697   8.219   7.277
16699TIP3    H250020   2.809   8.119   7.257
16700TIP3   OH250021   2.922   8.166   7.552
16700TIP3    H150022   2.849   8.193   7.493
16700TIP3    H250023   2.955   8.088   7.502
16701TIP3   OH250024   2.251   7.696   6.995
16701TIP3    H150025   2.248   7.694   7.093
16701TIP3    H250026   2.170   7.745   6.976
16702TIP3   OH250027   1.753   7.727   7.410
16702TIP3    H150028   1.809   7.753   7.333
16702TIP3    H250029   1.670   7.771   7.384
16703TIP3   OH250030   2.580   7.878   7.675
16703TIP3    H150031   2.524   7.833   7.741
16703TIP3    H250032   2.669   7.857   7.710
16704TIP3   OH250033   2.278   7.947   7.379
16704TIP3    H150034   2.374   7.955   7.364
16704TIP3    H250035   2.240   7.960   7.290
16705TIP3   OH250036   3.040   7.894   7.827
16705TIP3    H150037   2.953   7.939   7.842
16705TIP3    H250038   3.028   7.859   7.738
16706TIP3   OH250039   2.133   7.991   7.132
16706TIP3    H150040   2.074   7.934   7.079
16706TIP3    H250041   2.194   8.022   7.062
16707TIP3   OH250042   2.207   7.632   7.546
16707TIP3    H150043   2.164   7.579   7.616
16707TIP3    H250044   2.256   7.697   7.597
16708TIP3   OH250045   2.836   7.833   6.993
16708TIP3    H150046   2.745   7.805   7.019
16708TIP3    H250047   2.848   7.918   7.039
16709TIP3   OH250048   2.914   8.068   7.116
16709TIP3    H150049   3.010   8.072   7.135
16709TIP3    H250050   2.898   8.152   7.069
16710TIP3   OH250051   3.348   8.166   6.955
16710TIP3    H150052   3.287   8.122   6.892
16710TIP3    H250053   3.347   8.255   6.914
16711TIP3   OH250054   3.059   8.955   6.868
16711TIP3    H150055   3.027   8.872   6.905
16711TIP3    H250056   3.081   8.930   6.777
16712TIP3   OH250057   2.814   8.708   6.752
16712TIP3    H150058   2.862   8.682   6.835
16712TIP3    H250059   2.726   8.670   6.768
16713TIP3   OH250060   3.166   9.151   6.555
16713TIP3    H150061   3.210   9.224   6.509
16713TIP3    H250062   3.109   9.200   6.618
16714TIP3   OH250063   2.976   8.636   6.968
16714TIP3    H150064   2.962   8.583   7.049
16714TIP3    H250065   3.073   8.629   6.958
16715TIP3   OH250066   2.266   8.644   6.759
16715TIP3    H150067   2.226   8.556   6.743
16715TIP3    H250068   2.210   8.671   6.835
16716TIP3   OH250069   2.895   7.761   7.292
16716TIP3    H150070   2.879   7.794   7.202
16716TIP3    H250071   2.939   7.839   7.333
16717TIP3   OH250072   2.573   7.952   7.396
16717TIP3    H150073   2.637   8.026   7.386
16717TIP3    H250074   2.578   7.935   7.492
16718TIP3   OH250075   2.721   7.664   7.489
16718TIP3    H150076   2.753   7.707   7.571
16718TIP3    H250077   2.780   7.704   7.422
16719TIP3   OH250078   2.234   7.676   7.262
16719TIP3    H150079   2.214   7.730   7.340
16719TIP3    H250080   2.325   7.651   7.285
16720TIP3   OH250081   3.116   8.360   7.532
16720TIP3    H150082   3.061   8.283   7.557
16720TIP3    H250083   3.157   8.381   7.620
16721TIP3   OH250084   1.783   7.856   7.169
16721TIP3    H150085   1.811   7.946   7.151
16721TIP3    H250086   1.686   7.858   7.165
16722TIP3   OH250087   2.338   8.893   6.662
16722TIP3    H150088   2.290   8.828   6.717
16722TIP3    H250089   2.416   8.842   6.638
16723TIP3   OH250090   2.758   8.931   6.578
16723TIP3    H150091   2.802   8.882   6.650
16723TIP3    H250092   2.826   8.930   6.508
16724TIP3   OH250093   1.955   8.346   6.886
16724TIP3    H150094   2.008   8.305   6.957
16724TIP3    H250095   2.025   8.366   6.820
16725TIP3   OH250096   2.535   8.607   6.720
16725TIP3    H150097   2.441   8.622   6.746
16725TIP3    H250098   2.535   8.508   6.716
16726TIP3   OH250099   2.178   8.289   7.112
16726TIP3    H150100   2.150   8.231   7.185
16726TIP3    H250101   2.237   8.229   7.063
16727TIP3   OH250102   2.302   8.103   6.949
16727TIP3    H150103   2.278   8.112   6.854
16727TIP3    H250104   2.400   8.107   6.943
16728TIP3   OH250105   3.110   8.430   6.622
16728TIP3    H150106   3.120   8.390   6.535
16728TIP3    H250107   3.075   8.519   6.597
16729TIP3   OH250108   3.249   8.625   6.951
16729TIP3    H150109   3.317   8.686   6.916
16729TIP3    H250110   3.297   8.586   7.028
16730TIP3   OH250111   3.379   8.494   7.146
16730TIP3    H150112   3.321   8.446   7.209
16730TIP3    H250113   3.455   8.523   7.201
16731TIP3   OH250114   3.316   8.399   6.804
16731TIP3    H150115   3.243   8.403   6.740
16731TIP3    H250116   3.293   8.475   6.861
16732TIP3   OH250117   3.184   8.069   6.762
16732TIP3    H150118   3.153   8.106   6.679
16732TIP3    H250119   3.164   7.974   6.749
16733TIP3   OH250120   3.190   8.338   7.274
16733TIP3    H150121   3.199   8.242   7.262
16733TIP3    H250122   3.176   8.345   7.372
16734TIP3   OH250123   3.136   7.800   6.727
16734TIP3    H150124   3.209   7.775   6.788
16734TIP3    H250125   3.061   7.747   6.759
16735TIP3   OH250126   3.195   8.063   7.187
16735TIP3    H150127   3.235   7.975   7.205
16735TIP3    H250128   3.254   8.094   7.116
16736TIP3   OH250129   3.343   8.186   7.652
16736TIP3    H150130   3.425   8.229   7.625
16736TIP3    H250131   3.320   8.235   7.733
16737TIP3   OH250132   3.299   7.815   7.236
16737TIP3    H150133   3.347   7.800   7.320
16737TIP3    H250134   3.238   7.738   7.236
16738TIP3   OH250135   3.373   7.748   6.868
16738TIP3    H150136   3.418   7.677   6.818
16738TIP3    H250137   3.441   7.818   6.871
16739TIP3   OH250138   1.813   7.545   7.605
16739TIP3    H150139   1.819   7.583   7.694
16739TIP3    H250140   1.813   7.625   7.548
16740TIP3   OH250141   3.641   7.852   8.144
16740TIP3    H150142   3.549   7.837   8.116
16740TIP3    H250143   3.678   7.762   8.142
16741TIP3   OH250144   2.807   7.728   7.744
16741TIP3    H150145   2.780   7.682   7.826
16741TIP3    H250146   2.902   7.705   7.741
16742TIP3   OH250147   3.364   7.661   7.681
16742TIP3    H150148   3.401   7.720   7.612
16742TIP3    H250149   3.271   7.688   7.681
16743TIP3   OH250150   3.466   7.768   7.449
16743TIP3    H150151   3.541   7.716   7.413
16743TIP3    H250152   3.501   7.859   7.437
16744TIP3   OH250153   2.095   7.501   7.772
16744TIP3    H150154   2.009   7.470   7.803
16744TIP3    H250155   2.151   7.422   7.790
16745TIP3   OH250156   1.881   7.350   7.428
16745TIP3    H150157   1.922   7.411   7.364
16745TIP3    H250158   1.858   7.413   7.500
16746TIP3   OH250159   2.539   7.525   7.691
16746TIP3    H150160   2.595   7.577   7.632
16746TIP3    H250161   2.508   7.592   7.755
16747TIP3   OH250162   3.075   7.659   7.643
16747TIP3    H150163   3.086   7.608   7.562
16747TIP3    H250164   3.069   7.587   7.710
16748TIP3   OH250165   3.116   7.602   7.228
16748TIP3    H150166   3.032   7.647   7.249
16748TIP3    H250167   3.102   7.516   7.272
16749TIP3   OH250168   2.001   7.526   7.210
16749TIP3    H150169   2.051   7.464   7.153
16749TIP3    H250170   2.075   7.582   7.244
16750TIP3   OH250171   2.515   7.702   7.306
16750TIP3    H150172   2.573   7.660   7.373
16750TIP3    H250173   2.528   7.796   7.332
16751TIP3   OH250174   4.584   8.758   6.852
16751TIP3    H150175   4.558   8.852   6.839
16751TIP3    H250176   4.503   8.713   6.822
16752TIP3   OH250177   4.539   8.760   7.254
16752TIP3    H150178   4.576   8.726   7.338
16752TIP3    H250179   4.527   8.677   7.206
16753TIP3   OH250180   3.882   8.597   7.608
16753TIP3    H150181   3.924   8.540   7.676
16753TIP3    H250182   3.955   8.659   7.588
16754TIP3   OH250183   4.814   9.048   6.914
16754TIP3    H150184   4.805   8.976   6.980
16754TIP3    H250185   4.850   9.118   6.970
16755TIP3   OH250186   3.562   8.258   7.106
16755TIP3    H150187   3.532   8.348   7.125
16755TIP3    H250188   3.482   8.220   7.065
16756TIP3   OH250189   3.629   8.543   7.248
16756TIP3    H150190   3.676   8.471   7.296
16756TIP3    H250191   3.703   8.602   7.227
16757TIP3   OH250192   4.468   9.515   6.959
16757TIP3    H150193   4.517   9.460   6.896
16757TIP3    H250194   4.508   9.491   7.043
16758TIP3   OH250195   4.373   8.971   7.261
16758TIP3    H150196   4.434   8.895   7.247
16758TIP3    H250197   4.435   9.040   7.290
16759TIP3   OH250198   5.342   8.343   7.299
16759TIP3    H150199   5.427   8.390   7.310
16759TIP3    H250200   5.373   8.258   7.260
16760TIP3   OH250201   4.796   8.491   7.309
16760TIP3    H150202   4.842   8.408   7.333
16760TIP3    H250203   4.763   8.469   7.220
16761TIP3   OH250204   4.132   8.148   7.283
16761TIP3    H150205   4.117   8.222   7.221
16761TIP3    H250206   4.083   8.077   7.238
16762TIP3   OH250207   4.824   8.241   6.900
16762TIP3    H150208   4.892   8.217   6.968
16762TIP3    H250209   4.881   8.277   6.830
16763TIP3   OH250210   3.762   8.346   7.386
16763TIP3    H150211   3.846   8.338   7.436
16763TIP3    H250212   3.784   8.293   7.307
16764TIP3   OH250213   4.206   8.546   7.187
16764TIP3    H150214   4.301   8.522   7.196
16764TIP3    H250215   4.168   8.462   7.152
16765TIP3   OH250216   4.128   8.128   7.714
16765TIP3    H150217   4.068   8.168   7.650
16765TIP3    H250218   4.075   8.133   7.797
16766TIP3   OH250219   4.472   8.983   6.720
16766TIP3    H150220   4.431   8.967   6.634
16766TIP3    H250221   4.430   9.069   6.744
16767TIP3   OH250222   4.221   8.922   7.478
16767TIP3    H150223   4.194   9.008   7.516
16767TIP3    H250224   4.267   8.952   7.397
16768TIP3   OH250225   5.027   8.219   7.075
16768TIP3    H150226   5.034   8.194   7.168
16768TIP3    H250227   5.075   8.304   7.076
16769TIP3   OH250228   3.996   8.244   7.501
16769TIP3    H150229   4.055   8.319   7.526
16769TIP3    H250230   4.048   8.206   7.427
16770TIP3   OH250231   3.450   8.782   6.844
16770TIP3    H150232   3.417   8.823   6.762
16770TIP3    H250233   3.488   8.859   6.891
16771TIP3   OH250234   5.165   8.187   7.443
16771TIP3    H150235   5.081   8.226   7.414
16771TIP3    H250236   5.230   8.246   7.400
16772TIP3   OH250237   4.479   7.847   7.433
16772TIP3    H150238   4.462   7.753   7.453
16772TIP3    H250239   4.404   7.889   7.480
16773TIP3   OH250240   4.618   9.342   6.795
16773TIP3    H150241   4.643   9.249   6.785
16773TIP3    H250242   4.692   9.382   6.745
16774TIP3   OH250243   4.746   9.131   6.665
16774TIP3    H150244   4.706   9.053   6.624
16774TIP3    H250245   4.780   9.093   6.749
16775TIP3   OH250246   4.410   8.611   6.687
16775TIP3    H150247   4.332   8.666   6.665
16775TIP3    H250248   4.460   8.613   6.603
16776TIP3   OH250249   4.371   8.404   6.398
16776TIP3    H150250   4.436   8.455   6.450
16776TIP3    H250251   4.431   8.342   6.351
16777TIP3   OH250252   4.762   8.699   6.654
16777TIP3    H150253   4.708   8.721   6.733
16777TIP3    H250254   4.847   8.674   6.697
16778TIP3   OH250255   3.999   8.695   7.073
16778TIP3    H150256   3.960   8.635   7.006
16778TIP3    H250257   4.074   8.642   7.107
16779TIP3   OH250258   4.162   9.126   7.180
16779TIP3    H150259   4.103   9.078   7.119
16779TIP3    H250260   4.230   9.059   7.201
16780TIP3   OH250261   4.123   8.669   7.422
16780TIP3    H150262   4.164   8.637   7.339
16780TIP3    H250263   4.166   8.756   7.435
16781TIP3   OH250264   4.598   8.559   6.485
16781TIP3    H150265   4.659   8.618   6.534
16781TIP3    H250266   4.625   8.579   6.392
16782TIP3   OH250267   4.357   9.234   6.745
16782TIP3    H150268   4.423   9.291   6.787
16782TIP3    H250269   4.275   9.284   6.757
16783TIP3   OH250270   5.117   7.793   6.535
16783TIP3    H150271   5.035   7.816   6.585
16783TIP3    H250272   5.132   7.877   6.486
16784TIP3   OH250273   3.865   8.536   6.873
16784TIP3    H150274   3.793   8.579   6.823
16784TIP3    H250275   3.826   8.451   6.896
16785TIP3   OH250276   4.907   9.151   6.083
16785TIP3    H150277   4.913   9.247   6.062
16785TIP3    H250278   4.999   9.122   6.067
16786TIP3   OH250279   4.573   9.406   6.214
16786TIP3    H150280   4.597   9.319   6.177
16786TIP3    H250281   4.546   9.383   6.304
16787TIP3   OH250282   4.442   9.342   6.461
16787TIP3    H150283   4.392   9.417   6.497
16787TIP3    H250284   4.474   9.300   6.543
16788TIP3   OH250285   4.244   7.923   7.565
16788TIP3    H150286   4.154   7.898   7.536
16788TIP3    H250287   4.222   8.006   7.612
16789TIP3   OH250288   4.779   8.040   7.757
16789TIP3    H150289   4.846   8.018   7.823
16789TIP3    H250290   4.695   8.019   7.802
16790TIP3   OH250291   4.675   8.598   6.229
16790TIP3    H150292   4.643   8.575   6.139
16790TIP3    H250293   4.763   8.636   6.206
16791TIP3   OH250294   4.385   7.976   6.534
16791TIP3    H150295   4.354   7.973   6.626
16791TIP3    H250296   4.348   7.892   6.501
16792TIP3   OH250297   4.166   8.444   7.575
16792TIP3    H150298   4.179   8.480   7.665
16792TIP3    H250299   4.154   8.525   7.522
16793TIP3   OH250300   4.061   8.328   7.093
16793TIP3    H150301   3.969   8.303   7.113
16793TIP3    H250302   4.072   8.287   7.005
16794TIP3   OH250303   4.547   8.411   6.821
16794TIP3    H150304   4.498   8.484   6.777
16794TIP3    H250305   4.605   8.380   6.749
16795TIP3   OH250306   4.698   8.437   7.058
16795TIP3    H150307   4.636   8.464   6.988
16795TIP3    H250308   4.736   8.358   7.013
16796TIP3   OH250309   3.981   8.439   7.818
16796TIP3    H150310   3.960   8.458   7.912
16796TIP3    H250311   3.999   8.344   7.826
16797TIP3   OH250312   4.042   7.948   6.499
16797TIP3    H150313   4.036   7.949   6.596
16797TIP3    H250314   3.967   8.006   6.475
16798TIP3   OH250315   3.594   7.991   7.370
16798TIP3    H150316   3.666   8.026   7.427
16798TIP3    H250317   3.640   7.966   7.289
16799TIP3   OH250318   3.549   7.971   6.888
16799TIP3    H150319   3.598   8.007   6.812
16799TIP3    H250320   3.494   8.048   6.910
16800TIP3   OH250321   4.642   8.647   7.476
16800TIP3    H150322   4.703   8.584   7.431
16800TIP3    H250323   4.704   8.719   7.503
16801TIP3   OH250324   4.388   8.147   7.151
16801TIP3    H150325   4.313   8.151   7.213
16801TIP3    H250326   4.465   8.143   7.212
16802TIP3   OH250327   3.823   8.207   7.159
16802TIP3    H150328   3.729   8.211   7.131
16802TIP3    H250329   3.850   8.116   7.136
16803TIP3   OH250330   4.085   8.199   6.854
16803TIP3    H150331   4.179   8.217   6.837
16803TIP3    H250332   4.042   8.224   6.769
16804TIP3   OH250333   4.879   8.231   7.356
16804TIP3    H150334   4.845   8.244   7.448
16804TIP3    H250335   4.813   8.170   7.320
16805TIP3   OH250336   3.938   8.236   6.625
16805TIP3    H150337   3.868   8.193   6.572
16805TIP3    H250338   3.991   8.277   6.554
16806TIP3   OH250339   4.467   8.471   7.244
16806TIP3    H150340   4.547   8.441   7.199
16806TIP3    H250341   4.483   8.442   7.336
16807TIP3   OH250342   3.984   7.968   7.135
16807TIP3    H150343   3.951   7.890   7.184
16807TIP3    H250344   4.037   7.927   7.066
16808TIP3   OH250345   4.445   8.376   7.550
16808TIP3    H150346   4.357   8.417   7.557
16808TIP3    H250347   4.499   8.429   7.612
16809TIP3   OH250348   4.182   8.764   6.630
16809TIP3    H150349   4.107   8.701   6.620
16809TIP3    H250350   4.165   8.798   6.722
16810TIP3   OH250351   4.639   8.077   6.503
16810TIP3    H150352   4.543   8.061   6.513
16810TIP3    H250353   4.649   8.171   6.528
16811TIP3   OH250354   4.708   8.328   6.604
16811TIP3    H150355   4.804   8.333   6.622
16811TIP3    H250356   4.692   8.409   6.553
16812TIP3   OH250357   3.863   8.714   7.315
16812TIP3    H150358   3.900   8.738   7.228
16812TIP3    H250359   3.946   8.696   7.364
16813TIP3   OH250360   4.331   8.913   6.458
16813TIP3    H150361   4.278   8.997   6.461
16813TIP3    H250362   4.277   8.857   6.518
16814TIP3   OH250363   5.146   8.421   6.438
16814TIP3    H150364   5.082   8.378   6.377
16814TIP3    H250365   5.143   8.511   6.399
16815TIP3   OH250366   4.867   9.201   6.356
16815TIP3    H150367   4.838   9.129   6.413
16815TIP3    H250368   4.873   9.159   6.268
16816TIP3   OH250369   4.818   8.875   7.137
16816TIP3    H150370   4.768   8.848   7.215
16816TIP3    H250371   4.858   8.790   7.107
16817TIP3   OH250372   3.975   9.079   6.930
16817TIP3    H150373   3.973   9.166   6.885
16817TIP3    H250374   3.881   9.063   6.940
16818TIP3   OH250375   3.539   8.396   6.638
16818TIP3    H150376   3.588   8.479   6.660
16818TIP3    H250377   3.466   8.401   6.703
16819TIP3   OH250378   4.114   8.851   6.874
16819TIP3    H150379   4.077   8.940   6.893
16819TIP3    H250380   4.083   8.802   6.952
16820TIP3   OH250381   3.893   9.315   6.811
16820TIP3    H150382   3.806   9.346   6.838
16820TIP3    H250383   3.949   9.387   6.846
16821TIP3   OH250384   4.612   8.965   6.252
16821TIP3    H150385   4.669   8.941   6.329
16821TIP3    H250386   4.526   8.937   6.286
16822TIP3   OH250387   4.932   9.425   6.060
16822TIP3    H150388   5.005   9.489   6.049
16822TIP3    H250389   4.855   9.484   6.048
16823TIP3   OH250390   3.983   8.182   7.946
16823TIP3    H150391   3.906   8.206   7.997
16823TIP3    H250392   4.033   8.131   8.013
16824TIP3   OH250393   4.774   8.901   6.464
16824TIP3    H150394   4.762   8.834   6.534
16824TIP3    H250395   4.871   8.895   6.451
16825TIP3   OH250396   3.967   8.945   6.250
16825TIP3    H150397   3.984   8.852   6.226
16825TIP3    H250398   3.953   8.937   6.347
16826TIP3   OH250399   3.916   8.949   6.523
16826TIP3    H150400   3.993   8.922   6.575
16826TIP3    H250401   3.918   9.047   6.534
16827TIP3   OH250402   3.651   8.636   6.724
16827TIP3    H150403   3.583   8.680   6.780
16827TIP3    H250404   3.667   8.706   6.658
16828TIP3   OH250405   4.813   8.276   7.616
16828TIP3    H150406   4.892   8.305   7.663
16828TIP3    H250407   4.787   8.197   7.668
16829TIP3   OH250408   4.690   8.024   6.786
16829TIP3    H150409   4.678   8.049   6.693
16829TIP3    H250410   4.729   8.106   6.824
16830TIP3   OH250411   4.179   9.136   6.470
16830TIP3    H150412   4.094   9.165   6.508
16830TIP3    H250413   4.223   9.220   6.454
16831TIP3   OH250414   4.364   8.213   6.884
16831TIP3    H150415   4.430   8.285   6.867
16831TIP3    H250416   4.375   8.201   6.982
16832TIP3   OH250417   4.611   8.489   7.752
16832TIP3    H150418   4.635   8.582   7.769
16832TIP3    H250419   4.690   8.456   7.708
16833TIP3   OH250420   4.516   7.926   6.982
16833TIP3    H150421   4.517   7.998   7.047
16833TIP3    H250422   4.580   7.961   6.916
16834TIP3   OH250423   3.932   9.220   6.549
16834TIP3    H150424   3.915   9.291   6.485
16834TIP3    H250425   3.911   9.265   6.633
16835TIP3   OH250426   4.031   7.937   6.775
16835TIP3    H150427   4.028   8.027   6.812
16835TIP3    H250428   4.127   7.920   6.783
16836TIP3   OH250429   4.926   8.620   7.049
16836TIP3    H150430   4.848   8.567   7.071
16836TIP3    H250431   4.999   8.568   7.088
16837TIP3   OH250432   3.648   8.845   6.530
16837TIP3    H150433   3.718   8.912   6.540
16837TIP3    H250434   3.693   8.787   6.464
16838TIP3   OH250435   3.588   8.127   6.667
16838TIP3    H150436   3.597   8.224   6.662
16838TIP3    H250437   3.507   8.113   6.617
16839TIP3   OH250438   3.975   7.850   7.534
16839TIP3    H150439   3.948   7.815   7.447
16839TIP3    H250440   3.967   7.772   7.592
16840TIP3   OH250441   3.523   9.034   6.936
16840TIP3    H150442   3.445   9.065   6.985
16840TIP3    H250443   3.499   9.066   6.846
16841TIP3   OH250444   4.136   9.144   6.158
16841TIP3    H150445   4.084   9.071   6.198
16841TIP3    H250446   4.209   9.094   6.117
16842TIP3   OH250447   4.573   9.166   6.065
16842TIP3    H150448   4.604   9.095   6.125
16842TIP3    H250449   4.633   9.158   5.989
16843TIP3   OH250450   3.785   8.659   6.387
16843TIP3    H150451   3.843   8.633   6.461
16843TIP3    H250452   3.851   8.665   6.315
16844TIP3   OH250453   4.293   8.860   6.190
16844TIP3    H150454   4.299   8.873   6.287
16844TIP3    H250455   4.296   8.762   6.185
16845TIP3   OH250456   3.981   8.573   6.598
16845TIP3    H150457   3.961   8.537   6.686
16845TIP3    H250458   4.024   8.497   6.553
16846TIP3   OH250459   4.313   8.576   7.791
16846TIP3    H150460   4.310   8.626   7.875
16846TIP3    H250461   4.373   8.632   7.737
16847TIP3   OH250462   4.095   8.366   6.444
16847TIP3    H150463   4.071   8.375   6.349
16847TIP3    H250464   4.193   8.369   6.438
16848TIP3   OH250465   4.908   8.691   6.112
16848TIP3    H150466   4.899   8.646   6.026
16848TIP3    H250467   4.872   8.779   6.087
16849TIP3   OH250468   4.374   8.375   7.963
16849TIP3    H150469   4.390   8.296   7.909
16849TIP3    H250470   4.357   8.440   7.891
16850TIP3   OH250471   4.392   8.190   7.753
16850TIP3    H150472   4.420   8.246   7.678
16850TIP3    H250473   4.296   8.180   7.737
16851TIP3   OH250474   4.412   8.750   7.605
16851TIP3    H150475   4.497   8.717   7.566
16851TIP3    H250476   4.382   8.812   7.537
16852TIP3   OH250477   4.518   7.960   7.825
16852TIP3    H150478   4.473   8.044   7.798
16852TIP3    H250479   4.445   7.896   7.814
16853TIP3   OH250480   4.588   7.933   8.086
16853TIP3    H150481   4.664   7.873   8.069
16853TIP3    H250482   4.553   7.942   7.995
16854TIP3   OH250483   4.674   8.154   8.221
16854TIP3    H150484   4.644   8.071   8.178
16854TIP3    H250485   4.629   8.221   8.167
16855TIP3   OH250486   3.380   8.808   6.563
16855TIP3    H150487   3.475   8.832   6.553
16855TIP3    H250488   3.379   8.719   6.522
16856TIP3   OH250489   5.047   8.882   6.438
16856TIP3    H150490   5.115   8.946   6.408
16856TIP3    H250491   5.092   8.842   6.515
16857TIP3   OH250492   5.173   8.744   6.636
16857TIP3    H150493   5.108   8.703   6.697
16857TIP3    H250494   5.238   8.783   6.698
16858TIP3   OH250495   5.112   8.655   6.292
16858TIP3    H150496   5.041   8.656   6.224
16858TIP3    H250497   5.085   8.732   6.346
16859TIP3   OH250498   4.979   8.328   6.246
16859TIP3    H150499   4.967   8.365   6.158
16859TIP3    H250500   4.955   8.235   6.232
16860TIP3   OH250501   4.988   8.605   6.784
16860TIP3    H150502   4.996   8.508   6.778
16860TIP3    H250503   4.969   8.618   6.879
16861TIP3   OH250504   3.634   8.646   7.510
16861TIP3    H150505   3.638   8.637   7.413
16861TIP3    H250506   3.728   8.627   7.533
16862TIP3   OH250507   4.932   8.059   6.222
16862TIP3    H150508   5.006   8.033   6.282
16862TIP3    H250509   4.858   8.003   6.251
16863TIP3   OH250510   4.984   8.325   6.681
16863TIP3    H150511   5.023   8.234   6.691
16863TIP3    H250512   5.043   8.359   6.612
16864TIP3   OH250513   5.146   8.461   7.117
16864TIP3    H150514   5.224   8.476   7.062
16864TIP3    H250515   5.187   8.466   7.206
16865TIP3   OH250516   5.087   8.074   6.706
16865TIP3    H150517   5.143   8.058   6.785
16865TIP3    H250518   5.028   7.996   6.711
16866TIP3   OH250519   3.791   8.060   7.552
16866TIP3    H150520   3.851   7.983   7.559
16866TIP3    H250521   3.855   8.132   7.536
16867TIP3   OH250522   3.590   8.347   7.611
16867TIP3    H150523   3.627   8.309   7.528
16867TIP3    H250524   3.649   8.424   7.617
16868TIP3   OH250525   5.172   8.002   6.358
16868TIP3    H150526   5.215   7.934   6.303
16868TIP3    H250527   5.238   8.074   6.359
16869TIP3   OH250528   3.581   7.824   7.113
16869TIP3    H150529   3.491   7.824   7.149
16869TIP3    H250530   3.575   7.887   7.039
16870TIP3   OH250531   4.788   9.499   6.627
16870TIP3    H150532   4.818   9.454   6.546
16870TIP3    H250533   4.810   9.591   6.605
16871TIP3   OH250534   3.799   7.900   7.923
16871TIP3    H150535   3.753   7.900   8.010
16871TIP3    H250536   3.734   7.948   7.869
16872TIP3   OH250537   4.626   8.048   7.266
16872TIP3    H150538   4.595   7.974   7.321
16872TIP3    H250539   4.707   8.009   7.224
16873TIP3   OH250540   5.158   7.897   7.169
16873TIP3    H150541   5.237   7.956   7.162
16873TIP3    H250542   5.086   7.961   7.169
16874TIP3   OH250543   5.255   8.021   6.908
16874TIP3    H150544   5.339   7.972   6.899
16874TIP3    H250545   5.286   8.102   6.953
16875TIP3   OH250546   3.891   7.753   7.285
16875TIP3    H150547   3.799   7.719   7.291
16875TIP3    H250548   3.941   7.668   7.281
16876TIP3   OH250549   3.674   7.626   6.935
16876TIP3    H150550   3.708   7.683   6.864
16876TIP3    H250551   3.650   7.691   7.004
16877TIP3   OH250552   4.339   7.784   7.171
16877TIP3    H150553   4.390   7.832   7.104
16877TIP3    H250554   4.370   7.826   7.253
16878TIP3   OH250555   4.848   7.935   7.155
16878TIP3    H150556   4.887   7.904   7.072
16878TIP3    H250557   4.848   7.853   7.209
16879TIP3   OH250558   4.909   7.858   6.712
16879TIP3    H150559   4.826   7.904   6.735
16879TIP3    H250560   4.895   7.772   6.757
16880TIP3   OH250561   3.392   9.126   6.724
16880TIP3    H150562   3.314   9.100   6.671
16880TIP3    H250563   3.395   9.221   6.702
16881TIP3   OH250564   3.800   7.784   6.698
16881TIP3    H150565   3.848   7.721   6.640
16881TIP3    H250566   3.874   7.838   6.733
16882TIP3   OH250567   4.308   7.961   6.799
16882TIP3    H150568   4.372   7.919   6.859
16882TIP3    H250569   4.325   8.055   6.823
16883TIP3   OH250570   4.036   9.370   6.289
16883TIP3    H150571   4.114   9.427   6.297
16883TIP3    H250572   4.075   9.287   6.251
16884TIP3   OH250573   4.894   9.466   6.374
16884TIP3    H150574   4.889   9.367   6.374
16884TIP3    H250575   4.927   9.480   6.284
16885TIP3   OH250576   4.104   8.012   8.148
16885TIP3    H150577   4.070   7.960   8.223
16885TIP3    H250578   4.194   8.034   8.179
16886TIP3   OH250579   4.369   8.035   8.259
16886TIP3    H150580   4.446   7.996   8.214
16886TIP3    H250581   4.367   7.985   8.342
16887TIP3   OH250582   3.487   9.170   6.369
16887TIP3    H150583   3.492   9.252   6.419
16887TIP3    H250584   3.581   9.157   6.342
16888TIP3   OH250585   5.350   8.522   6.596
16888TIP3    H150586   5.305   8.608   6.607
16888TIP3    H250587   5.279   8.471   6.554
16889TIP3   OH250588   5.399   8.820   6.774
16889TIP3    H150589   5.433   8.732   6.802
16889TIP3    H250590   5.483   8.858   6.742
16890TIP3   OH250591   5.935   8.386   6.780
16890TIP3    H150592   5.880   8.466   6.780
16890TIP3    H250593   5.887   8.328   6.718
16891TIP3   OH250594   5.536   8.597   6.846
16891TIP3    H150595   5.633   8.596   6.830
16891TIP3    H250596   5.507   8.535   6.776
16892TIP3   OH250597   5.245   9.051   6.335
16892TIP3    H150598   5.202   9.096   6.261
16892TIP3    H250599   5.280   9.128   6.387
16893TIP3   OH250600   6.151   8.644   5.868
16893TIP3    H150601   6.177   8.701   5.945
16893TIP3    H250602   6.236   8.602   5.843
16894TIP3   OH250603   6.883   7.992   6.024
16894TIP3    H150604   6.802   8.025   6.068
16894TIP3    H250605   6.920   8.074   5.987
16895TIP3   OH250606   5.667   8.786   6.317
16895TIP3    H150607   5.580   8.821   6.289
16895TIP3    H250608   5.646   8.734   6.395
16896TIP3   OH250609   6.485   8.833   5.663
16896TIP3    H150610   6.441   8.804   5.580
16896TIP3    H250611   6.575   8.851   5.627
16897TIP3   OH250612   6.190   8.229   6.018
16897TIP3    H150613   6.160   8.226   6.111
16897TIP3    H250614   6.146   8.148   5.984
16898TIP3   OH250615   5.832   8.576   6.534
16898TIP3    H150616   5.747   8.528   6.548
16898TIP3    H250617   5.873   8.523   6.464
16899TIP3   OH250618   5.844   8.207   5.982
16899TIP3    H150619   5.830   8.205   6.079
16899TIP3    H250620   5.768   8.262   5.955
16900TIP3   OH250621   5.388   8.272   6.844
16900TIP3    H150622   5.463   8.291   6.903
16900TIP3    H250623   5.424   8.207   6.782
16901TIP3   OH250624   5.347   8.231   6.375
16901TIP3    H150625   5.392   8.268   6.296
16901TIP3    H250626   5.286   8.304   6.395
16902TIP3   OH250627   5.612   8.446   6.608
16902TIP3    H150628   5.515   8.452   6.591
16902TIP3    H250629   5.632   8.351   6.605
16903TIP3   OH250630   5.931   8.448   6.305
16903TIP3    H150631   5.977   8.533   6.299
16903TIP3    H250632   5.858   8.462   6.239
16904TIP3   OH250633   5.740   8.479   6.119
16904TIP3    H150634   5.662   8.445   6.073
16904TIP3    H250635   5.785   8.526   6.046
16905TIP3   OH250636   5.782   8.217   6.616
16905TIP3    H150637   5.742   8.147   6.673
16905TIP3    H250638   5.831   8.163   6.553
16906TIP3   OH250639   6.431   8.349   5.996
16906TIP3    H150640   6.337   8.321   5.996
16906TIP3    H250641   6.426   8.440   5.966
16907TIP3   OH250642   5.343   8.649   6.141
16907TIP3    H150643   5.385   8.736   6.162
16907TIP3    H250644   5.263   8.654   6.197
16908TIP3   OH250645   5.749   9.194   5.741
16908TIP3    H150646   5.797   9.116   5.707
16908TIP3    H250647   5.705   9.154   5.818
16909TIP3   OH250648   5.683   9.193   6.006
16909TIP3    H150649   5.745   9.143   6.060
16909TIP3    H250650   5.739   9.262   5.969
16910TIP3   OH250651   5.436   8.898   6.213
16910TIP3    H150652   5.370   8.943   6.270
16910TIP3    H250653   5.441   8.962   6.139
16911TIP3   OH250654   6.505   8.295   6.257
16911TIP3    H150655   6.471   8.306   6.165
16911TIP3    H250656   6.558   8.374   6.266
16912TIP3   OH250657   5.824   8.182   6.257
16912TIP3    H150658   5.829   8.274   6.289
16912TIP3    H250659   5.919   8.158   6.260
16913TIP3   OH250660   5.424   9.093   6.011
16913TIP3    H150661   5.492   9.163   6.015
16913TIP3    H250662   5.471   9.032   5.949
16914TIP3   OH250663   5.384   8.380   6.147
16914TIP3    H150664   5.392   8.478   6.152
16914TIP3    H250665   5.297   8.371   6.107
16915TIP3   OH250666   5.782   8.113   7.022
16915TIP3    H150667   5.761   8.079   6.934
16915TIP3    H250668   5.767   8.033   7.077
16916TIP3   OH250669   5.349   9.285   6.446
16916TIP3    H150670   5.292   9.346   6.497
16916TIP3    H250671   5.346   9.329   6.359
16917TIP3   OH250672   5.916   9.378   5.624
16917TIP3    H150673   5.855   9.316   5.668
16917TIP3    H250674   5.978   9.316   5.582
16918TIP3   OH250675   5.582   8.918   5.876
16918TIP3    H150676   5.639   8.887   5.949
16918TIP3    H250677   5.647   8.916   5.802
16919TIP3   OH250678   6.030   9.101   5.662
16919TIP3    H150679   6.111   9.136   5.704
16919TIP3    H250680   6.046   9.004   5.670
16920TIP3   OH250681   5.773   8.838   6.071
16920TIP3    H150682   5.747   8.813   6.162
16920TIP3    H250683   5.816   8.757   6.039
16921TIP3   OH250684   5.882   8.616   5.930
16921TIP3    H150685   5.852   8.627   5.837
16921TIP3    H250686   5.979   8.613   5.915
16922TIP3   OH250687   5.158   9.061   6.043
16922TIP3    H150688   5.255   9.080   6.036
16922TIP3    H250689   5.154   8.971   6.006
16923TIP3   OH250690   6.759   8.601   5.719
16923TIP3    H150691   6.721   8.617   5.633
16923TIP3    H250692   6.753   8.503   5.726
16924TIP3   OH250693   6.723   8.330   5.754
16924TIP3    H150694   6.801   8.277   5.735
16924TIP3    H250695   6.650   8.266   5.743
16925TIP3   OH250696   5.615   8.325   7.001
16925TIP3    H150697   5.649   8.235   7.021
16925TIP3    H250698   5.697   8.369   6.978
16926TIP3   OH250699   5.380   8.080   6.598
16926TIP3    H150700   5.290   8.080   6.634
16926TIP3    H250701   5.372   8.145   6.524
16927TIP3   OH250702   5.691   8.012   6.772
16927TIP3    H150703   5.599   7.978   6.781
16927TIP3    H250704   5.740   7.927   6.770
16928TIP3   OH250705   5.475   7.882   6.422
16928TIP3    H150706   5.503   7.941   6.350
16928TIP3    H250707   5.447   7.946   6.490
16929TIP3   OH250708   6.141   8.050   6.623
16929TIP3    H150709   6.236   8.070   6.631
16929TIP3    H250710   6.114   8.082   6.712
16930TIP3   OH250711   6.691   8.099   6.202
16930TIP3    H150712   6.615   8.156   6.225
16930TIP3    H250713   6.666   8.016   6.248
16931TIP3   OH250714   5.188   9.381   6.235
16931TIP3    H150715   5.126   9.339   6.176
16931TIP3    H250716   5.186   9.473   6.201
16932TIP3   OH250717   5.592   8.037   6.184
16932TIP3    H150718   5.641   7.976   6.126
16932TIP3    H250719   5.665   8.091   6.220
16933TIP3   OH250720   6.100   8.218   6.286
16933TIP3    H150721   6.133   8.184   6.370
16933TIP3    H250722   6.066   8.306   6.310
16934TIP3   OH250723   5.286   9.433   5.851
16934TIP3    H150724   5.281   9.509   5.910
16934TIP3    H250725   5.382   9.423   5.836
16935TIP3   OH250726   6.447   4.167   8.938
16935TIP3    H150727   6.456   4.264   8.941
16935TIP3    H250728   6.540   4.140   8.923
16936TIP3   OH250729   5.967   4.375   9.082
16936TIP3    H150730   6.024   4.310   9.037
16936TIP3    H250731   5.963   4.338   9.173
16937TIP3   OH250732   6.209   3.586   9.094
16937TIP3    H150733   6.171   3.565   9.007
16937TIP3    H250734   6.293   3.629   9.070
16938TIP3   OH250735   6.685   3.428   9.273
16938TIP3    H150736   6.614   3.395   9.213
16938TIP3    H250737   6.719   3.501   9.217
16939TIP3   OH250738   6.143   3.956   9.121
16939TIP3    H150739   6.173   3.948   9.213
16939TIP3    H250740   6.069   3.894   9.120
16940TIP3   OH250741   6.482   4.442   8.942
16940TIP3    H150742   6.536   4.516   8.911
16940TIP3    H250743   6.408   4.491   8.985
16941TIP3   OH250744   5.527   3.936   9.140
16941TIP3    H150745   5.555   3.860   9.085
16941TIP3    H250746   5.446   3.900   9.180
16942TIP3   OH250747   5.674   4.142   9.027
16942TIP3    H150748   5.634   4.064   9.069
16942TIP3    H250749   5.750   4.102   8.980
16943TIP3   OH250750   6.107   4.187   8.937
16943TIP3    H150751   6.157   4.130   8.998
16943TIP3    H250752   6.164   4.186   8.857
16944TIP3   OH250753   5.842   3.861   9.066
16944TIP3    H150754   5.854   3.836   9.160
16944TIP3    H250755   5.839   3.771   9.027
16945TIP3   OH250756   6.436   3.696   8.975
16945TIP3    H150757   6.417   3.653   8.889
16945TIP3    H250758   6.402   3.786   8.954
16946TIP3   OH250759   5.434   4.416   9.204
16946TIP3    H150760   5.531   4.407   9.185
16946TIP3    H250761   5.408   4.467   9.125
16947TIP3   OH250762   6.664   3.666   9.124
16947TIP3    H150763   6.587   3.676   9.064
16947TIP3    H250764   6.625   3.692   9.209
16948TIP3   OH250765   6.514   3.340   9.080
16948TIP3    H150766   6.467   3.390   9.012
16948TIP3    H250767   6.486   3.249   9.060
16949TIP3   OH250768   6.454   3.064   9.095
16949TIP3    H150769   6.503   3.098   9.173
16949TIP3    H250770   6.368   3.043   9.135
16950TIP3   OH250771   5.692   4.394   9.134
16950TIP3    H150772   5.787   4.416   9.125
16950TIP3    H250773   5.691   4.304   9.097
16951TIP3   OH250774   7.742   4.623   8.544
16951TIP3    H150775   7.788   4.544   8.507
16951TIP3    H250776   7.820   4.673   8.577
16952TIP3   OH250777   7.637   4.185   8.794
16952TIP3    H150778   7.610   4.279   8.802
16952TIP3    H250779   7.551   4.142   8.789
16953TIP3   OH250780   6.894   3.649   8.980
16953TIP3    H150781   6.941   3.731   9.006
16953TIP3    H250782   6.813   3.658   9.035
16954TIP3   OH250783   7.301   4.204   8.602
16954TIP3    H150784   7.310   4.111   8.571
16954TIP3    H250785   7.285   4.190   8.698
16955TIP3   OH250786   7.269   4.210   8.876
16955TIP3    H150787   7.293   4.192   8.968
16955TIP3    H250788   7.264   4.308   8.876
16956TIP3   OH250789   6.980   3.899   9.058
16956TIP3    H150790   6.952   3.934   9.143
16956TIP3    H250791   6.979   3.978   9.001
16957TIP3   OH250792   7.522   4.429   8.826
16957TIP3    H150793   7.434   4.444   8.865
16957TIP3    H250794   7.518   4.491   8.752
16958TIP3   OH250795   7.255   4.483   8.887
16958TIP3    H150796   7.228   4.546   8.817
16958TIP3    H250797   7.231   4.532   8.966
16959TIP3   OH250798   6.981   4.113   8.886
16959TIP3    H150799   7.042   4.187   8.878
16959TIP3    H250800   7.019   4.053   8.818
16960TIP3   OH250801   6.920   3.341   8.973
16960TIP3    H150802   6.966   3.426   8.982
16960TIP3    H250803   6.835   3.361   9.015
16961TIP3   OH250804   7.468   4.402   8.515
16961TIP3    H150805   7.413   4.327   8.547
16961TIP3    H250806   7.543   4.354   8.474
16962TIP3   OH250807   7.903   4.436   8.416
16962TIP3    H150808   7.981   4.399   8.464
16962TIP3    H250809   7.945   4.449   8.328
16963TIP3   OH250810   7.101   3.929   8.727
16963TIP3    H150811   7.133   3.862   8.789
16963TIP3    H250812   7.175   3.933   8.662
16964TIP3   OH250813   7.624   4.113   8.522
16964TIP3    H150814   7.653   4.131   8.613
16964TIP3    H250815   7.629   4.015   8.519
16965TIP3   OH250816   7.230   4.700   8.716
16965TIP3    H150817   7.323   4.682   8.692
16965TIP3    H250818   7.199   4.738   8.632
16966TIP3   OH250819   6.704   4.076   8.871
16966TIP3    H150820   6.798   4.089   8.892
16966TIP3    H250821   6.701   3.979   8.853
16967TIP3   OH250822   7.484   4.641   8.640
16967TIP3    H150823   7.575   4.662   8.610
16967TIP3    H250824   7.466   4.565   8.581
16968TIP3   OH250825   6.800   4.482   8.697
16968TIP3    H150826   6.784   4.506   8.789
16968TIP3    H250827   6.886   4.435   8.700
16969TIP3   OH250828   4.296   5.726   9.069
16969TIP3    H150829   4.303   5.823   9.081
16969TIP3    H250830   4.391   5.701   9.061
16970TIP3   OH250831   4.325   5.999   9.097
16970TIP3    H150832   4.378   6.073   9.063
16970TIP3    H250833   4.247   6.048   9.131
16971TIP3   OH250834   3.960   5.705   9.069
16971TIP3    H150835   4.021   5.733   9.141
16971TIP3    H250836   4.013   5.724   8.989
16972TIP3   OH250837   4.289   5.258   9.134
16972TIP3    H150838   4.269   5.206   9.054
16972TIP3    H250839   4.258   5.346   9.103
16973TIP3   OH250840   5.541   5.223   8.903
16973TIP3    H150841   5.608   5.268   8.958
16973TIP3    H250842   5.598   5.159   8.856
16974TIP3   OH250843   5.785   5.354   8.987
16974TIP3    H150844   5.811   5.438   9.028
16974TIP3    H250845   5.804   5.374   8.892
16975TIP3   OH250846   6.293   4.618   9.044
16975TIP3    H150847   6.200   4.620   9.066
16975TIP3    H250848   6.303   4.698   8.988
16976TIP3   OH250849   6.098   5.977   8.571
16976TIP3    H150850   6.099   6.074   8.558
16976TIP3    H250851   6.188   5.953   8.540
16977TIP3   OH250852   5.599   6.192   8.706
16977TIP3    H150853   5.653   6.125   8.658
16977TIP3    H250854   5.652   6.204   8.786
16978TIP3   OH250855   5.848   5.428   8.736
16978TIP3    H150856   5.806   5.399   8.653
16978TIP3    H250857   5.935   5.456   8.704
16979TIP3   OH250858   5.567   4.790   9.039
16979TIP3    H150859   5.525   4.794   9.126
16979TIP3    H250860   5.527   4.707   9.005
16980TIP3   OH250861   5.221   4.767   8.996
16980TIP3    H150862   5.207   4.747   9.091
16980TIP3    H250863   5.140   4.818   8.977
16981TIP3   OH250864   5.095   5.065   9.130
16981TIP3    H150865   5.035   5.011   9.076
16981TIP3    H250866   5.158   5.095   9.062
16982TIP3   OH250867   5.801   4.911   8.965
16982TIP3    H150868   5.720   4.871   9.005
16982TIP3    H250869   5.830   4.972   9.035
16983TIP3   OH250870   5.898   5.133   9.109
16983TIP3    H150871   5.989   5.148   9.083
16983TIP3    H250872   5.852   5.208   9.067
16984TIP3   OH250873   5.501   5.737   8.945
16984TIP3    H150874   5.456   5.824   8.957
16984TIP3    H250875   5.468   5.687   9.020
16985TIP3   OH250876   6.343   5.230   8.909
16985TIP3    H150877   6.267   5.193   8.859
16985TIP3    H250878   6.335   5.323   8.884
16986TIP3   OH250879   4.692   5.224   9.136
16986TIP3    H150880   4.746   5.298   9.169
16986TIP3    H250881   4.629   5.209   9.208
16987TIP3   OH250882   5.770   5.782   8.747
16987TIP3    H150883   5.810   5.753   8.830
16987TIP3    H250884   5.678   5.753   8.759
16988TIP3   OH250885   6.120   6.248   8.575
16988TIP3    H150886   6.108   6.305   8.496
16988TIP3    H250887   6.039   6.270   8.625
16989TIP3   OH250888   5.142   5.755   8.749
16989TIP3    H150889   5.155   5.661   8.727
16989TIP3    H250890   5.122   5.749   8.845
16990TIP3   OH250891   5.086   5.770   9.019
16990TIP3    H150892   5.137   5.734   9.093
16990TIP3    H250893   5.095   5.867   9.031
16991TIP3   OH250894   4.814   5.459   9.228
16991TIP3    H150895   4.793   5.519   9.301
16991TIP3    H250896   4.825   5.523   9.155
16992TIP3   OH250897   5.360   5.969   8.976
16992TIP3    H150898   5.272   5.990   9.012
16992TIP3    H250899   5.371   6.045   8.916
16993TIP3   OH250900   5.100   6.042   9.041
16993TIP3    H150901   5.078   6.102   8.965
16993TIP3    H250902   5.073   6.098   9.114
16994TIP3   OH250903   5.201   4.713   9.261
16994TIP3    H150904   5.224   4.797   9.306
16994TIP3    H250905   5.252   4.647   9.311
16995TIP3   OH250906   4.824   5.664   9.032
16995TIP3    H150907   4.893   5.732   9.033
16995TIP3    H250908   4.864   5.603   8.966
16996TIP3   OH250909   4.737   4.941   9.093
16996TIP3    H150910   4.758   5.030   9.124
16996TIP3    H250911   4.749   4.890   9.175
16997TIP3   OH250912   5.308   5.954   8.656
16997TIP3    H150913   5.253   5.881   8.694
16997TIP3    H250914   5.383   5.904   8.619
16998TIP3   OH250915   5.744   6.005   8.573
16998TIP3    H150916   5.790   5.942   8.631
16998TIP3    H250917   5.797   6.002   8.490
16999TIP3   OH250918   4.956   5.476   8.889
16999TIP3    H150919   5.007   5.440   8.964
16999TIP3    H250920   5.025   5.478   8.820
17000TIP3   OH250921   5.471   5.676   8.683
17000TIP3    H150922   5.468   5.691   8.780
17000TIP3    H250923   5.474   5.577   8.681
17001TIP3   OH250924   5.132   5.373   9.089
17001TIP3    H150925   5.114   5.314   9.163
17001TIP3    H250926   5.189   5.315   9.034
17002TIP3   OH250927   5.266   5.180   8.946
17002TIP3    H150928   5.241   5.181   8.851
17002TIP3    H250929   5.363   5.180   8.939
17003TIP3   OH250930   6.082   5.510   8.618
17003TIP3    H150931   6.066   5.462   8.534
17003TIP3    H250932   6.045   5.598   8.593
17004TIP3   OH250933   5.076   6.240   8.855
17004TIP3    H150934   5.172   6.234   8.839
17004TIP3    H250935   5.050   6.291   8.776
17005TIP3   OH250936   4.551   5.632   9.026
17005TIP3    H150937   4.646   5.647   9.041
17005TIP3    H250938   4.548   5.538   8.998
17006TIP3   OH250939   6.287   5.484   8.794
17006TIP3    H150940   6.214   5.480   8.727
17006TIP3    H250941   6.248   5.542   8.859
17007TIP3   OH250942   6.139   5.150   8.743
17007TIP3    H150943   6.100   5.166   8.656
17007TIP3    H250944   6.126   5.052   8.748
17008TIP3   OH250945   6.100   4.881   8.730
17008TIP3    H150946   6.173   4.845   8.785
17008TIP3    H250947   6.026   4.820   8.746
17009TIP3   OH250948   6.340   4.818   8.862
17009TIP3    H150949   6.381   4.750   8.805
17009TIP3    H250950   6.411   4.886   8.866
17010TIP3   OH250951   4.947   4.636   9.175
17010TIP3    H150952   4.986   4.546   9.184
17010TIP3    H250953   5.019   4.686   9.218
17011TIP3   OH250954   5.336   6.186   8.794
17011TIP3    H150955   5.423   6.217   8.763
17011TIP3    H250956   5.320   6.112   8.732
17012TIP3   OH250957   4.638   6.035   8.848
17012TIP3    H150958   4.627   6.070   8.938
17012TIP3    H250959   4.728   5.995   8.850
17013TIP3   OH250960   7.386   5.014   8.519
17013TIP3    H150961   7.322   5.068   8.566
17013TIP3    H250962   7.330   4.939   8.489
17014TIP3   OH250963   7.017   5.032   8.486
17014TIP3    H150964   7.000   5.022   8.581
17014TIP3    H250965   6.937   5.081   8.458
17015TIP3   OH250966   6.528   5.022   8.873
17015TIP3    H150967   6.571   5.067   8.798
17015TIP3    H250968   6.472   5.095   8.907
17016TIP3   OH250969   6.894   5.311   8.622
17016TIP3    H150970   6.831   5.264   8.566
17016TIP3    H250971   6.955   5.349   8.555
17017TIP3   OH250972   6.506   5.468   8.635
17017TIP3    H150973   6.501   5.561   8.609
17017TIP3    H250974   6.433   5.463   8.700
17018TIP3   OH250975   6.986   5.004   8.756
17018TIP3    H150976   6.972   5.094   8.791
17018TIP3    H250977   7.060   4.972   8.808
17019TIP3   OH250978   6.561   5.191   8.651
17019TIP3    H150979   6.560   5.288   8.654
17019TIP3    H250980   6.472   5.170   8.620
17020TIP3   OH250981   6.743   5.751   8.367
17020TIP3    H150982   6.789   5.699   8.433
17020TIP3    H250983   6.810   5.750   8.295
17021TIP3   OH250984   7.058   5.420   8.429
17021TIP3    H150985   7.022   5.429   8.338
17021TIP3    H250986   7.150   5.447   8.415
17022TIP3   OH250987   6.357   5.881   8.511
17022TIP3    H150988   6.388   5.865   8.601
17022TIP3    H250989   6.344   5.789   8.478
17023TIP3   OH250990   6.642   4.690   8.887
17023TIP3    H150991   6.672   4.755   8.821
17023TIP3    H250992   6.613   4.748   8.959
17024TIP3   OH250993   6.762   4.852   8.680
17024TIP3    H150994   6.809   4.788   8.623
17024TIP3    H250995   6.836   4.906   8.714
17025TIP3   OH250996   3.399   6.774   9.086
17025TIP3    H150997   3.477   6.829   9.104
17025TIP3    H250998   3.439   6.709   9.025
17026TIP3   OH250999   3.633   6.921   9.139
17026TIP3    H151000   3.670   7.006   9.168
17026TIP3    H251001   3.650   6.929   9.042
17027TIP3   OH251002   4.136   6.170   9.198
17027TIP3    H151003   4.049   6.182   9.237
17027TIP3    H251004   4.146   6.251   9.143
17028TIP3   OH251005   3.947   7.542   8.694
17028TIP3    H151006   3.970   7.628   8.729
17028TIP3    H251007   4.036   7.500   8.688
17029TIP3   OH251008   3.683   6.959   8.879
17029TIP3    H151009   3.652   6.939   8.788
17029TIP3    H251010   3.761   7.015   8.860
17030TIP3   OH251011   3.372   6.377   9.154
17030TIP3    H151012   3.398   6.362   9.247
17030TIP3    H251013   3.356   6.284   9.124
17031TIP3   OH251014   3.642   6.461   9.114
17031TIP3    H151015   3.556   6.443   9.156
17031TIP3    H251016   3.680   6.528   9.175
17032TIP3   OH251017   3.738   6.684   9.241
17032TIP3    H151018   3.829   6.706   9.267
17032TIP3    H251019   3.704   6.769   9.208
17033TIP3   OH251020   4.180   6.791   9.068
17033TIP3    H151021   4.108   6.751   9.015
17033TIP3    H251022   4.175   6.883   9.036
17034TIP3   OH251023   3.109   6.748   9.098
17034TIP3    H151024   3.074   6.754   9.007
17034TIP3    H251025   3.204   6.744   9.082
17035TIP3   OH251026   3.921   7.066   8.771
17035TIP3    H151027   3.903   7.025   8.684
17035TIP3    H251028   3.889   7.157   8.753
17036TIP3   OH251029   4.126   7.038   8.949
17036TIP3    H151030   4.054   7.031   8.882
17036TIP3    H251031   4.106   7.126   8.985
17037TIP3   OH251032   3.989   6.701   8.892
17037TIP3    H151033   3.939   6.734   8.817
17037TIP3    H251034   3.972   6.605   8.886
17038TIP3   OH251035   3.947   6.430   8.871
17038TIP3    H151036   4.014   6.403   8.936
17038TIP3    H251037   3.868   6.378   8.896
17039TIP3   OH251038   4.182   6.374   9.018
17039TIP3    H151039   4.224   6.310   8.957
17039TIP3    H251040   4.247   6.448   9.019
17040TIP3   OH251041   5.163   7.016   8.521
17040TIP3    H151042   5.189   7.073   8.597
17040TIP3    H251043   5.248   6.976   8.494
17041TIP3   OH251044   5.899   6.371   8.676
17041TIP3    H151045   5.851   6.439   8.727
17041TIP3    H251046   5.941   6.429   8.611
17042TIP3   OH251047   5.208   6.602   8.671
17042TIP3    H151048   5.152   6.621   8.747
17042TIP3    H251049   5.166   6.521   8.637
17043TIP3   OH251050   4.853   6.583   8.634
17043TIP3    H151051   4.840   6.581   8.731
17043TIP3    H251052   4.779   6.642   8.609
17044TIP3   OH251053   4.363   6.581   9.020
17044TIP3    H151054   4.408   6.628   8.947
17044TIP3    H251055   4.311   6.655   9.057
17045TIP3   OH251056   4.746   6.836   8.771
17045TIP3    H151057   4.671   6.813   8.713
17045TIP3    H251058   4.800   6.890   8.710
17046TIP3   OH251059   5.458   6.712   8.632
17046TIP3    H151060   5.365   6.686   8.652
17046TIP3    H251061   5.461   6.805   8.655
17047TIP3   OH251062   4.347   7.020   8.783
17047TIP3    H151063   4.391   7.107   8.799
17047TIP3    H251064   4.273   7.027   8.846
17048TIP3   OH251065   4.764   7.574   8.406
17048TIP3    H151066   4.802   7.496   8.360
17048TIP3    H251067   4.778   7.548   8.498
17049TIP3   OH251068   4.439   7.270   8.846
17049TIP3    H151069   4.430   7.323   8.926
17049TIP3    H251070   4.467   7.339   8.782
17050TIP3   OH251071   4.822   6.565   8.907
17050TIP3    H151072   4.804   6.659   8.926
17050TIP3    H251073   4.895   6.544   8.967
17051TIP3   OH251074   4.472   7.495   8.681
17051TIP3    H151075   4.448   7.577   8.636
17051TIP3    H251076   4.516   7.443   8.610
17052TIP3   OH251077   4.398   6.749   8.797
17052TIP3    H151078   4.407   6.847   8.799
17052TIP3    H251079   4.304   6.741   8.778
17053TIP3   OH251080   4.931   7.748   8.274
17053TIP3    H151081   4.869   7.691   8.324
17053TIP3    H251082   4.994   7.682   8.239
17054TIP3   OH251083   4.593   7.300   8.530
17054TIP3    H151084   4.649   7.260   8.600
17054TIP3    H251085   4.657   7.298   8.455
17055TIP3   OH251086   5.033   7.468   8.338
17055TIP3    H151087   5.117   7.510   8.364
17055TIP3    H251088   5.059   7.374   8.335
17056TIP3   OH251089   4.777   7.195   8.721
17056TIP3    H151090   4.763   7.154   8.807
17056TIP3    H251091   4.828   7.126   8.675
17057TIP3   OH251092   4.894   6.985   8.583
17057TIP3    H151093   4.865   6.998   8.491
17057TIP3    H251094   4.991   6.984   8.570
17058TIP3   OH251095   4.195   7.434   8.682
17058TIP3    H151096   4.289   7.451   8.703
17058TIP3    H251097   4.199   7.342   8.647
17059TIP3   OH251098   5.727   6.701   8.426
17059TIP3    H151099   5.806   6.672   8.379
17059TIP3    H251100   5.658   6.642   8.392
17060TIP3   OH251101   4.485   6.252   9.042
17060TIP3    H151102   4.519   6.311   8.972
17060TIP3    H251103   4.447   6.317   9.102
17061TIP3   OH251104   4.603   6.406   8.834
17061TIP3    H151105   4.654   6.349   8.772
17061TIP3    H251106   4.673   6.466   8.866
17062TIP3   OH251107   4.296   7.769   8.540
17062TIP3    H151108   4.258   7.858   8.525
17062TIP3    H251109   4.382   7.776   8.494
   8.90000   8.39100   7.26682   0.00000   0.00000  -2.96667   0.00000  -2.96667  -4.19550
